Title
44418
    1ASP      N    1   6.255   4.735   3.696 -0.4796 -0.2841  0.2307
    1ASP    HT1    2   6.292   4.774   3.607 -0.6999 -1.0077 -0.1807
    1ASP    HT2    3   6.248   4.634   3.674  0.8287 -0.5780  1.0749
    1ASP    HT3    4   6.331   4.748   3.766 -0.0972 -0.4690 -0.1560
    1ASP     CA    5   6.125   4.815   3.728  0.1054  0.5232  0.0429
    1ASP     HA    6   6.144   4.916   3.760 -0.4751  0.9567 -0.9351
    1ASP     CB    7   6.043   4.834   3.595  0.2658 -0.2449 -0.6135
    1ASP    HB1    8   5.948   4.889   3.607 -0.5981 -2.0635  1.0946
    1ASP    HB2    9   6.016   4.732   3.560 -0.2107 -0.2544 -0.2248
    1ASP     CG   10   6.127   4.903   3.490  0.3368 -0.2738 -0.1583
    1ASP    OD1   11   6.247   4.891   3.484  0.4578 -0.0323 -0.2646
    1ASP    OD2   12   6.068   4.961   3.394 -0.2711  0.4212 -0.4629
    1ASP      C   13   6.036   4.755   3.837  0.6414 -0.3753 -0.2216
    1ASP      O   14   6.072   4.654   3.898  0.0112  0.5791  0.5084
    2SER      N   15   5.922   4.817   3.869 -0.0050 -0.1523 -0.0267
    2SER     HN   16   5.894   4.903   3.827 -0.5588  0.3549  1.3587
    2SER     CA   17   5.822   4.764   3.958  0.5991 -0.6958  0.4367
    2SER     HA   18   5.882   4.739   4.044  1.7007  1.6055  0.3994
    2SER     CB   19   5.710   4.876   3.998 -0.2661 -0.1585 -0.0696
    2SER    HB1   20   5.753   4.960   4.056 -0.8555 -0.8913  1.4438
    2SER    HB2   21   5.635   4.827   4.064  0.3069  1.0025  1.4561
    2SER     OG   22   5.650   4.936   3.879 -0.1634 -0.1694  0.2067
    2SER    HG1   23   5.606   5.017   3.906 -0.0221  0.0074 -0.0982
    2SER      C   24   5.747   4.636   3.911  0.2957  0.2453 -0.3440
    2SER      O   25   5.715   4.613   3.795 -0.3693 -0.1487 -0.1434
    3GLY      N   26   5.719   4.538   4.001  0.1048 -0.2315  0.1766
    3GLY     HN   27   5.760   4.547   4.092  0.9567 -0.5246 -0.1689
    3GLY     CA   28   5.641   4.419   3.973  0.5484 -0.2254 -0.1019
    3GLY    HA1   29   5.619   4.376   4.069  0.5586 -0.9340 -0.4122
    3GLY    HA2   30   5.698   4.348   3.915 -0.7037 -1.3772  0.0317
    3GLY      C   31   5.506   4.430   3.894  0.6061  0.0652  0.1482
    3GLY      O   32   5.448   4.539   3.901  0.7482  0.4057  0.1166
    4ASP      N   33   5.456   4.322   3.831 -0.9008  0.3067 -0.5550
    4ASP     HN   34   5.517   4.245   3.814 -1.0250  0.3599 -1.2451
    4ASP     CA   35   5.327   4.314   3.774  0.0317 -0.0310  0.5956
    4ASP     HA   36   5.313   4.411   3.729  2.8732 -0.0985 -0.4999
    4ASP     CB   37   5.294   4.198   3.677  0.3288 -0.1833 -0.3046
    4ASP    HB1   38   5.199   4.223   3.625  0.4751  1.6846  0.2661
    4ASP    HB2   39   5.281   4.096   3.720  1.3424  0.0460  0.5672
    4ASP     CG   40   5.401   4.183   3.565 -0.0975 -0.1649  0.2358
    4ASP    OD1   41   5.394   4.083   3.487 -0.5884 -0.3143  0.0613
    4ASP    OD2   42   5.490   4.272   3.549  0.8230  0.3263  0.0087
    4ASP      C   43   5.220   4.319   3.882  0.9110  0.1690  0.1532
    4ASP      O   44   5.228   4.259   3.986  0.2971  0.1094  0.1911
    5SER      N   45   5.101   4.387   3.852  0.1676 -0.8077 -0.1106
    5SER     HN   46   5.095   4.425   3.759  0.4110 -0.3186  0.0685
    5SER     CA   47   4.990   4.394   3.948 -0.0849  0.0674 -0.0189
    5SER     HA   48   5.028   4.449   4.033 -0.7365  2.1626 -1.0451
    5SER     CB   49   4.868   4.475   3.903  0.3150 -0.0319  0.3787
    5SER    HB1   50   4.768   4.447   3.941 -0.3458  1.3515 -0.3256
    5SER    HB2   51   4.868   4.451   3.794  0.7959 -1.5166  0.6848
    5SER     OG   52   4.885   4.618   3.928  0.2420  0.7089 -0.2531
    5SER    HG1   53   4.966   4.652   3.890  2.3799 -1.7235  1.9679
    5SER      C   54   4.941   4.257   4.004  0.2555 -0.3296 -1.0239
    5SER      O   55   4.903   4.170   3.932  0.3720  0.0430 -0.3917
    6GLY      N   56   4.924   4.252   4.137 -0.0691  1.3608 -0.3802
    6GLY     HN   57   4.947   4.332   4.192 -0.2329  0.2321  1.3630
    6GLY     CA   58   4.871   4.140   4.213 -0.3862  0.0361  0.2997
    6GLY    HA1   59   4.858   4.165   4.318 -0.2035  1.3104  0.0176
    6GLY    HA2   60   4.930   4.051   4.197  1.5092  0.2944  4.9636
    6GLY      C   61   4.727   4.108   4.160  0.1302 -0.5091 -1.0914
    6GLY      O   62   4.668   4.191   4.086 -0.4968 -0.2538 -0.2579
    7PRO      N   63   4.668   3.993   4.193 -0.1993  0.9465  0.6817
    7PRO     CD   64   4.721   3.889   4.286 -0.3930  0.6889 -0.2410
    7PRO    HD1   65   4.749   3.935   4.383  1.0714 -0.0967 -0.2860
    7PRO    HD2   66   4.812   3.857   4.231 -1.1609  1.1593 -1.8198
    7PRO     CA   67   4.537   3.958   4.151 -0.4406 -0.3100  0.2440
    7PRO     HA   68   4.530   3.973   4.045  1.4346 -1.1895 -0.0342
    7PRO     CB   69   4.512   3.815   4.196 -0.1006 -0.0866 -0.6774
    7PRO    HB1   70   4.538   3.753   4.107  0.5630  0.5181 -0.9103
    7PRO    HB2   71   4.409   3.795   4.234  0.1370 -1.5734 -0.7683
    7PRO     CG   72   4.608   3.794   4.319  0.7554  0.2015  0.2777
    7PRO    HG1   73   4.551   3.818   4.411  1.4945  1.0558  0.5143
    7PRO    HG2   74   4.629   3.686   4.334  1.8241  0.3790  0.0874
    7PRO      C   75   4.426   4.056   4.203  0.5607  0.0966  0.9060
    7PRO      O   76   4.426   4.098   4.319  0.8110 -0.2353 -0.0644
    8GLY      N   77   4.318   4.077   4.122  0.0797 -0.1294 -0.1395
    8GLY     HN   78   4.317   4.032   4.033 -0.0730  1.7333 -1.1159
    8GLY     CA   79   4.196   4.155   4.147  0.2065 -0.0062 -0.8112
    8GLY    HA1   80   4.123   4.139   4.068  0.8622  1.2202 -1.6832
    8GLY    HA2   81   4.222   4.258   4.165 -0.0494 -0.0678 -0.0651
    8GLY      C   82   4.119   4.113   4.269 -0.0853  0.5292 -0.3326
    8GLY      O   83   4.119   4.001   4.299 -0.0930 -0.2812 -0.2474
    9ASP      N   84   4.052   4.204   4.339  0.7062  0.3436 -0.3175
    9ASP     HN   85   4.048   4.299   4.307  1.7424  0.0790 -1.2721
    9ASP     CA   86   3.979   4.177   4.462  0.1094 -0.1621  0.4522
    9ASP     HA   87   4.052   4.116   4.514  0.6738 -1.7609 -2.1098
    9ASP     CB   88   3.933   4.309   4.532 -0.2531  0.6371  0.1142
    9ASP    HB1   89   3.864   4.293   4.618  0.5484 -0.9046  0.4993
    9ASP    HB2   90   3.878   4.372   4.459 -1.8561  0.3671  1.0655
    9ASP     CG   91   4.053   4.384   4.587  0.7234  0.0697 -0.4613
    9ASP    OD1   92   4.169   4.352   4.562 -0.0402 -0.2902  0.2136
    9ASP    OD2   93   4.032   4.472   4.674  0.4120 -0.3139 -0.2100
    9ASP      C   94   3.854   4.083   4.433 -0.3382  0.5101 -0.1489
    9ASP      O   95   3.801   4.084   4.322  0.2669  0.4366 -0.0326
   10PRO      N   96   3.809   4.004   4.529  0.5426  0.9812 -0.1598
   10PRO     CD   97   3.856   3.986   4.659  0.9984  0.0985 -0.2801
   10PRO    HD1   98   3.927   4.069   4.682 -0.2957  1.1217  0.0513
   10PRO    HD2   99   3.914   3.891   4.660  1.4267  0.2986 -2.7481
   10PRO     CA  100   3.670   3.953   4.521 -0.7139  0.6061  0.3856
   10PRO     HA  101   3.664   3.878   4.445 -0.7011  0.7364  0.2557
   10PRO     CB  102   3.636   3.896   4.661 -0.6342 -0.6112  0.1085
   10PRO    HB1  103   3.657   3.787   4.654  1.2894 -0.2129 -0.5334
   10PRO    HB2  104   3.528   3.908   4.686 -1.2199  1.0054 -2.9857
   10PRO     CG  105   3.739   3.969   4.745 -0.5049 -0.0468 -1.0294
   10PRO    HG1  106   3.699   4.065   4.783 -0.7237 -1.3991  2.4036
   10PRO    HG2  107   3.768   3.905   4.832  0.3341  1.2437 -0.3553
   10PRO      C  108   3.562   4.055   4.480 -0.7539 -0.0425 -0.7976
   10PRO      O  109   3.558   4.160   4.538  0.0509 -0.2696  0.1601
   11GLY      N  110   3.472   4.009   4.384 -0.0231 -0.8075  0.7995
   11GLY     HN  111   3.482   3.912   4.363  0.5583 -0.7555  0.8434
   11GLY     CA  112   3.359   4.086   4.341  0.1759 -0.1007  0.8552
   11GLY    HA1  113   3.297   4.031   4.272 -0.6269  0.6852  0.9498
   11GLY    HA2  114   3.395   4.181   4.302  0.3465 -1.1752 -1.7055
   11GLY      C  115   3.270   4.118   4.462 -0.6523 -0.4968  0.2886
   11GLY      O  116   3.270   4.055   4.568  0.3490  0.7024 -0.6019
   12ASP      N  117   3.188   4.230   4.450  0.1528 -0.3031  0.2781
   12ASP     HN  118   3.194   4.282   4.365  1.6271 -0.7217  0.1088
   12ASP     CA  119   3.086   4.269   4.545 -0.0202 -0.2020  0.5964
   12ASP     HA  120   3.121   4.291   4.644 -0.5537  2.0702  0.3125
   12ASP     CB  121   3.012   4.398   4.494 -0.4151  0.1066  0.1266
   12ASP    HB1  122   2.928   4.424   4.562 -0.1020  0.1880  0.4845
   12ASP    HB2  123   2.980   4.366   4.392  2.4963  0.4459 -0.9487
   12ASP     CG  124   3.106   4.517   4.486  0.0940 -0.3378 -0.4265
   12ASP    OD1  125   3.216   4.521   4.542 -0.1740 -0.0189  0.1229
   12ASP    OD2  126   3.062   4.619   4.429 -0.3221  0.0327  0.9131
   12ASP      C  127   2.983   4.158   4.570  0.5766 -0.1142 -0.0890
   12ASP      O  128   2.953   4.070   4.489 -0.0950 -0.2804 -0.6796
   13SER      N  129   2.944   4.149   4.700 -0.6572  0.2756  1.2160
   13SER     HN  130   2.964   4.218   4.769  0.9916 -0.7647  1.7974
   13SER     CA  131   2.859   4.047   4.751 -0.1183 -0.4897 -0.3181
   13SER     HA  132   2.902   3.950   4.728 -0.6071 -0.4583 -1.3934
   13SER     CB  133   2.837   4.060   4.909 -0.4317  0.3079 -0.0838
   13SER    HB1  134   2.942   4.056   4.946  0.0823 -0.3235 -1.5423
   13SER    HB2  135   2.780   3.975   4.952 -0.2012  0.0570 -0.2720
   13SER     OG  136   2.761   4.177   4.945 -0.0450 -0.2940  0.8338
   13SER    HG1  137   2.807   4.251   4.903  2.0465 -2.1861 -0.3349
   13SER      C  138   2.722   4.056   4.690 -0.6436  0.2330 -0.3058
   13SER      O  139   2.674   4.162   4.653 -0.0682  0.1307 -0.0792
   14GLY      N  140   2.655   3.946   4.665 -0.2651 -1.3116  0.0623
   14GLY     HN  141   2.699   3.858   4.680  0.1829 -0.9096  1.1746
   14GLY     CA  142   2.522   3.940   4.608  0.1304 -0.0025 -0.0548
   14GLY    HA1  143   2.482   3.840   4.596 -1.5053  0.8974 -2.4051
   14GLY    HA2  144   2.538   3.983   4.511  0.0364  0.3032  0.0649
   14GLY      C  145   2.413   4.024   4.667 -0.5060 -0.1853 -0.1594
   14GLY      O  146   2.406   4.049   4.791  0.4056 -0.0954  0.6438
   15SER      N  147   2.330   4.085   4.585 -0.2416 -0.3079 -0.2852
   15SER     HN  148   2.330   4.076   4.486 -3.2427  4.2984 -0.8826
   15SER     CA  149   2.230   4.184   4.623  0.0113 -0.2917 -0.1440
   15SER     HA  150   2.281   4.259   4.681 -0.9709  0.4694 -0.2539
   15SER     CB  151   2.161   4.251   4.493 -0.0089  0.4600 -0.5280
   15SER    HB1  152   2.243   4.299   4.437  0.4893  0.6249  0.3242
   15SER    HB2  153   2.093   4.335   4.520  1.3120  0.1906  4.1154
   15SER     OG  154   2.094   4.162   4.405 -0.5401  0.0692 -0.1771
   15SER    HG1  155   2.031   4.114   4.460  0.8670 -1.1579  0.4017
   15SER      C  156   2.112   4.132   4.708 -0.2980 -0.2614  0.3670
   15SER    OT1  157   2.017   4.066   4.656  0.2099 -0.6636  0.0971
   15SER    OT2  158   2.118   4.159   4.827 -0.2755 -0.1502  0.2579
   16LIT    LIT  159   1.431   5.043   5.070  0.3032  0.3965 -0.1710
   17LIT    LIT  160   5.234   4.600   1.196  0.1818 -1.3883 -0.4947
   18LIT    LIT  161   5.725   6.787   6.115  1.0895  1.1421  0.0954
   19LIT    LIT  162   2.423   1.569   4.037 -0.4177  0.7055  0.1910
   20LIT    LIT  163   3.368   0.369   1.817  0.0152  0.1960  0.5049
   21LIT    LIT  164   1.579   6.417   4.240  0.9534 -0.1524  0.6111
   22LIT    LIT  165   5.308   3.942   4.194  0.5131  0.0374 -0.9539
   23LIT    LIT  166   0.241   2.215   5.299  0.5881  0.4234  0.5118
   24LIT    LIT  167   7.084   7.442   1.056  0.1939 -0.4171 -0.2271
   25LIT    LIT  168   8.223   2.641   6.713  0.4474 -0.5753 -0.1646
   26LIT    LIT  169   6.617   0.050   2.218  0.5623 -0.1118 -0.4872
   27LIT    LIT  170   1.842   2.237   1.335 -0.5066  0.0214  0.0837
   28LIT    LIT  171   5.835   2.738   1.185 -0.5651 -0.0670 -0.5202
   29LIT    LIT  172   7.142   2.362   4.044 -0.0432  0.9403 -0.7924
   30LIT    LIT  173   2.814   1.354   0.352  0.2155  0.6917  0.5541
   31LIT    LIT  174   3.571   4.557   4.373  0.4204 -0.3371  0.1562
   32LIT    LIT  175   0.526   4.631   0.840  0.6130 -0.1945 -0.0218
   33LIT    LIT  176   1.397   3.063   3.607  0.0770  0.7598 -0.3732
   34LIT    LIT  177   4.976   5.994   5.698 -0.5521 -0.0470  0.3312
   35LIT    LIT  178   1.450   5.710   2.092 -0.9730 -0.0564 -0.6209
   36LIT    LIT  179   4.232   5.839   1.526  0.9168  0.8637  0.4156
   37LIT    LIT  180   6.116   2.483   2.293  0.0849  0.1964  0.4697
   38LIT    LIT  181   0.948   2.709   0.821  0.5816 -0.5596 -0.1871
   39LIT    LIT  182   4.802   6.809   4.422  0.7033 -0.4878  0.3248
   40LIT    LIT  183   1.148   7.996   5.713 -1.0019  0.1022 -1.6502
   41LIT    LIT  184   4.765   5.264   5.324  0.5168 -0.2094  0.3015
   42LIT    LIT  185   1.668   6.897   6.298  0.3937  1.0190 -0.3202
   43LIT    LIT  186   4.807   1.091   3.318  0.4216  0.1788  0.8607
   44LIT    LIT  187   3.372   2.986   0.480 -0.4742 -0.1385 -0.5061
   45LIT    LIT  188   1.451   7.489   2.362 -0.0885 -0.1703  0.3116
   46LIT    LIT  189   0.414   2.994   6.728  0.2989 -0.0306  1.2350
   47LIT    LIT  190   5.643   1.042   0.844  0.0702  1.0358  0.2573
   48LIT    LIT  191   3.524   7.704   5.101  0.0941  0.0500  0.2110
   49LIT    LIT  192   4.536   1.390   1.397 -0.5679 -0.2432 -0.8477
   50LIT    LIT  193   0.613   0.687   5.485  0.1560  1.2870 -1.1537
   51LIT    LIT  194   3.449   3.200   2.356 -1.0719 -0.1480 -0.4609
   52LIT    LIT  195   0.508   4.983   3.833 -0.0322 -0.3703 -0.7250
   53LIT    LIT  196   8.288   6.590   1.233  0.5212 -0.3657 -0.3570
   54LIT    LIT  197   0.255   4.204   5.679 -1.0126  0.2570  0.5079
   55LIT    LIT  198   3.453   0.305   0.134  0.3587 -0.4140  0.4909
   56LIT    LIT  199   5.155   1.771   0.602  0.4976  0.3590 -0.7502
   57LIT    LIT  200   5.767   1.482   5.245 -0.4251  0.5742  0.4076
   58LIT    LIT  201   8.226   4.198   3.322 -1.0462 -0.4837 -1.3792
   59LIT    LIT  202   3.047   0.958   1.088 -0.0835 -1.0692  0.3446
   60LIT    LIT  203   3.820   7.804   5.468  0.1711  0.9979  0.0274
   61LIT    LIT  204   6.347   1.450   6.889 -0.6966 -0.0097  0.1717
   62CLA    CLA  205   3.926   7.800   5.267  0.0199 -0.0392 -0.4906
   63CLA    CLA  206   5.727   4.982   0.060 -0.0836 -0.0043 -0.3684
   64CLA    CLA  207   2.754   6.220   6.819  0.1916 -0.1987  0.2113
   65CLA    CLA  208   1.960   0.877   6.834  0.1809  0.1945 -0.0976
   66CLA    CLA  209   3.875   7.821   3.649 -0.3396 -0.2913 -0.2101
   67CLA    CLA  210   4.435   0.755   0.800  0.0865 -0.3801  0.1649
   68CLA    CLA  211   4.358   6.026   1.451 -0.2993  0.4428 -0.2174
   69CLA    CLA  212   0.458   2.734   4.461  0.0262 -0.0197  0.4362
   70CLA    CLA  213   5.299   5.390   5.277  0.2640 -0.0062 -0.3449
   71CLA    CLA  214   2.219   3.643   4.507  0.3475 -0.2225 -0.1946
   72CLA    CLA  215   4.513   6.447   4.278 -0.0741  0.1075  0.0388
   73CLA    CLA  216   8.173   6.472   4.380 -0.1674 -0.2478 -0.3758
   74CLA    CLA  217   4.853   6.350   1.817 -0.5274 -0.2338 -0.0235
   75CLA    CLA  218   6.466   0.218   5.278 -0.1934 -0.1594 -0.1833
   76CLA    CLA  219   4.723   1.045   6.082  0.2611 -0.2031 -0.2839
   77CLA    CLA  220   6.502   3.784   3.276 -0.2962 -0.1955  0.1005
   78CLA    CLA  221   2.897   6.086   3.054 -0.2592  0.0798  0.5781
   79CLA    CLA  222   2.408   1.286   0.890 -0.0247  0.0154  0.2399
   80CLA    CLA  223   8.216   2.212   4.936  0.1504  0.2263  0.0651
   81CLA    CLA  224   2.815   7.650   0.254  0.0454  0.3493 -0.3085
   82CLA    CLA  225   4.848   5.367   5.134 -0.2717 -0.4609  0.3501
   83CLA    CLA  226   5.907   0.583   2.539  0.0852 -0.2209  0.3627
   84CLA    CLA  227   8.021   3.056   4.097  0.0263  0.2011  0.0528
   85CLA    CLA  228   1.724   5.151   6.718 -0.1184 -0.3641  0.0950
   86CLA    CLA  229   5.669   5.518   6.847 -0.1015  0.5632 -0.2583
   87CLA    CLA  230   1.274   0.591   0.419  0.2792 -0.1110 -0.3444
   88CLA    CLA  231   7.107   0.127   6.496 -0.2478  0.0610  0.0773
   89CLA    CLA  232   0.265   7.584   3.409  0.5364 -0.2693 -0.0211
   90CLA    CLA  233   3.026   6.830   5.648 -0.0763  0.0481  0.0166
   91CLA    CLA  234   4.858   0.503   2.687  0.5598 -0.2862 -0.0048
   92CLA    CLA  235   1.366   7.932   0.082  0.1796  0.6057  0.2368
   93CLA    CLA  236   1.022   7.532   2.620 -0.0064 -0.1224  0.4290
   94CLA    CLA  237   0.458   3.150   6.554 -0.3167 -0.5252  0.5136
   95CLA    CLA  238   3.851   1.510   3.721 -0.1211 -0.0466 -0.2414
   96CLA    CLA  239   3.809   1.632   3.308 -0.1973  0.0382  0.0961
   97CLA    CLA  240   5.808   6.711   6.316  0.3748 -0.0175 -0.5351
   98CLA    CLA  241   4.862   2.065   4.340  0.2112 -0.0670  0.1033
   99CLA    CLA  242   3.719   0.629   6.401 -0.5481 -0.5639  0.3997
  100CLA    CLA  243   0.521   5.506   2.908  0.0209  0.4258  0.1041
  101CLA    CLA  244   3.495   4.457   1.720 -0.0048 -0.2949 -0.0922
  102CLA    CLA  245   2.153   1.836   0.912  0.2718 -0.4864  0.0060
  103CLA    CLA  246   4.933   7.075   4.743 -0.3244 -0.1247 -0.3880
  104TIP3   OH2  247   0.416   7.999   2.611  0.4150 -0.0736 -0.3105
  104TIP3    H1  248   0.489   7.939   2.599  1.1557  0.4529  1.3392
  104TIP3    H2  249   0.415   8.054   2.533 -0.1846 -2.1347 -1.7716
  105TIP3   OH2  250   1.613   0.284   1.745  0.7851  0.4118  0.4640
  105TIP3    H1  251   1.697   0.330   1.742  0.5997  0.7182 -0.2131
  105TIP3    H2  252   1.631   0.203   1.793  1.6846  0.0391 -0.4913
  106TIP3   OH2  253   0.027   7.225   3.027 -0.5691  0.0002  0.6804
  106TIP3    H1  254   0.114   7.264   3.032 -0.8114  0.8044 -1.0607
  106TIP3    H2  255   0.029   7.153   3.090  1.2023  0.2812  0.9649
  107TIP3   OH2  256   3.276   1.735   4.971  0.0579 -0.6350 -0.9250
  107TIP3    H1  257   3.369   1.723   4.989  0.2180  1.2455 -0.4142
  107TIP3    H2  258   3.263   1.693   4.886  1.8466  0.8824 -2.0148
  108TIP3   OH2  259   5.938   5.613   0.431  0.0570  0.0099 -0.1956
  108TIP3    H1  260   6.013   5.641   0.379  1.0972 -0.1996  1.1588
  108TIP3    H2  261   5.885   5.692   0.442  0.7460  0.4565 -0.0808
  109TIP3   OH2  262   2.796   1.222   2.373  0.0580 -0.0462 -0.0050
  109TIP3    H1  263   2.874   1.277   2.377  1.9579 -2.7486  1.8692
  109TIP3    H2  264   2.828   1.137   2.341 -2.3585 -0.8035 -0.5460
  110TIP3   OH2  265   8.306   7.854   0.631 -0.2105 -0.1851 -0.4360
  110TIP3    H1  266   8.284   7.936   0.674 -0.4826 -1.1537  1.2937
  110TIP3    H2  267   8.234   7.840   0.569 -0.6104  0.4262 -0.1192
  111TIP3   OH2  268   0.172   7.803   3.025  0.3394 -0.0313  0.1585
  111TIP3    H1  269   0.214   7.806   3.111 -0.4015 -0.3787  0.5313
  111TIP3    H2  270   0.184   7.891   2.990  0.1130  0.2814  0.8669
  112TIP3   OH2  271   1.919  -0.008   3.453 -0.3404 -0.2434 -0.6131
  112TIP3    H1  272   1.985   0.048   3.493 -0.4693 -0.9172  0.5581
  112TIP3    H2  273   1.839   0.044   3.457 -1.0148 -1.3980  2.7241
  113TIP3   OH2  274   2.238   1.523   2.247  0.3290  0.0575 -0.2034
  113TIP3    H1  275   2.315   1.542   2.195 -0.6217 -0.4945 -1.8485
  113TIP3    H2  276   2.272   1.482   2.327  1.8462  1.5679 -0.0602
  114TIP3   OH2  277   0.083   7.509   0.911 -0.3870  0.1615 -0.4219
  114TIP3    H1  278   0.011   7.502   0.974  0.2451  1.7753  0.5078
  114TIP3    H2  279   0.050   7.568   0.844  0.2419  1.3020  0.2633
  115TIP3   OH2  280   2.997   1.701   0.232  0.1050  0.0701  0.1221
  115TIP3    H1  281   3.090   1.709   0.212 -0.0462  0.9727 -0.2269
  115TIP3    H2  282   2.953   1.736   0.155 -0.5251 -0.0897  0.4096
  116TIP3   OH2  283   2.624   0.938   3.555 -0.1450 -0.2808  0.2400
  116TIP3    H1  284   2.540   0.959   3.514  1.4511  0.6519 -2.7570
  116TIP3    H2  285   2.643   0.848   3.527  1.1792  0.5252 -1.5596
  117TIP3   OH2  286   2.998   1.077   1.546  0.6927 -0.3199 -0.1598
  117TIP3    H1  287   2.944   1.152   1.524  2.0122  0.5879 -0.3933
  117TIP3    H2  288   2.954   1.036   1.620 -0.2967  0.4047 -0.3370
  118TIP3   OH2  289   7.818   6.857   1.798  0.2897  0.1546 -0.4295
  118TIP3    H1  290   7.771   6.851   1.881 -0.3325 -1.8585 -0.8867
  118TIP3    H2  291   7.899   6.809   1.814 -0.2912 -1.1239 -1.2790
  119TIP3   OH2  292   4.218   2.652   1.934 -0.3909 -0.1694  0.2243
  119TIP3    H1  293   4.126   2.635   1.951 -0.5407  1.9920  1.9201
  119TIP3    H2  294   4.223   2.748   1.924  1.6466 -0.2618  0.0953
  120TIP3   OH2  295   1.880   8.007   1.626 -0.1157 -0.2721  0.1165
  120TIP3    H1  296   1.839   8.038   1.707  2.4597 -0.3260  1.5111
  120TIP3    H2  297   1.827   7.931   1.601 -1.6161  0.3987  1.1250
  121TIP3   OH2  298   4.953   0.380   1.281  0.2405  0.1315  0.3091
  121TIP3    H1  299   4.934   0.414   1.194  1.7086  0.3602  0.0672
  121TIP3    H2  300   4.870   0.343   1.311 -0.1003 -0.5628 -1.4645
  122TIP3   OH2  301   4.224   1.443   1.668  0.0217  0.2724  0.4538
  122TIP3    H1  302   4.143   1.393   1.677 -0.9935  1.8100 -0.0473
  122TIP3    H2  303   4.285   1.399   1.727 -1.4437 -0.3308  1.5593
  123TIP3   OH2  304   7.123   4.831   6.802 -0.5649 -0.5852 -0.1106
  123TIP3    H1  305   7.126   4.799   6.892  0.2472 -0.4209 -0.0788
  123TIP3    H2  306   7.192   4.898   6.797 -0.6735 -0.5198 -0.8187
  124TIP3   OH2  307   4.455   1.085   2.448  0.5703 -0.5821 -0.1925
  124TIP3    H1  308   4.536   1.034   2.456  2.0244  1.9049  1.7178
  124TIP3    H2  309   4.404   1.060   2.525  1.6648  1.4130  1.2209
  125TIP3   OH2  310   2.692   1.112   1.559  0.1058  0.6277  0.1380
  125TIP3    H1  311   2.722   1.025   1.533  0.8210  1.0395 -0.4278
  125TIP3    H2  312   2.596   1.107   1.552  0.1578 -0.0357 -0.1397
  126TIP3   OH2  313   0.013   7.760   1.821  0.6980 -0.4564  0.6369
  126TIP3    H1  314   0.078   7.777   1.890  1.1708  1.1784 -0.1702
  126TIP3    H2  315  -0.063   7.725   1.867  1.7155 -1.2477  1.7474
  127TIP3   OH2  316   2.072   1.004   0.151 -0.1843 -0.3814 -0.1831
  127TIP3    H1  317   1.986   1.045   0.165  0.0505 -0.1163  0.5090
  127TIP3    H2  318   2.066   0.920   0.195  0.3465  0.1907  1.0031
  128TIP3   OH2  319   8.229   7.641   0.981  0.2139  0.7423  0.8199
  128TIP3    H1  320   8.271   7.727   0.980  0.0388  0.8451  1.7531
  128TIP3    H2  321   8.175   7.640   0.902  1.4883  0.8499 -0.0567
  129TIP3   OH2  322   3.991   2.235   4.904  0.3699  0.1995 -0.6989
  129TIP3    H1  323   4.035   2.259   4.986 -0.5031  1.5812 -0.6158
  129TIP3    H2  324   3.978   2.141   4.910  0.9046  0.1938  0.4643
  130TIP3   OH2  325   8.428   3.472   6.833  0.0996 -0.7123  0.0552
  130TIP3    H1  326   8.391   3.452   6.918 -0.1191 -1.3688 -0.1919
  130TIP3    H2  327   8.354   3.467   6.772  0.3453 -0.7407 -0.2447
  131TIP3   OH2  328   3.528   3.490   0.128 -0.2401 -0.5370  0.0406
  131TIP3    H1  329   3.571   3.572   0.152 -1.5664 -0.1241  1.0793
  131TIP3    H2  330   3.529   3.438   0.209 -1.7802 -0.4798  0.1007
  132TIP3   OH2  331   1.864   7.433   1.960 -0.2887  0.1695  0.1077
  132TIP3    H1  332   1.921   7.466   1.891 -1.3083 -0.2415 -0.9492
  132TIP3    H2  333   1.921   7.380   2.015  0.1371 -1.0886 -1.5222
  133TIP3   OH2  334   2.385   7.254   2.432 -0.2250 -0.1610 -0.1879
  133TIP3    H1  335   2.396   7.322   2.366 -0.2639 -1.0164 -1.0962
  133TIP3    H2  336   2.462   7.261   2.487 -1.2722  2.0431  1.0753
  134TIP3   OH2  337   5.433   0.487   1.212 -0.1921 -0.1256 -0.8089
  134TIP3    H1  338   5.370   0.436   1.160 -0.7092 -0.4317  0.1154
  134TIP3    H2  339   5.443   0.569   1.163  2.4346 -1.9831 -3.5651
  135TIP3   OH2  340   1.904   1.721   2.546  0.3755 -0.1107 -0.2830
  135TIP3    H1  341   1.866   1.736   2.459 -1.1564 -2.2092 -0.0104
  135TIP3    H2  342   1.959   1.643   2.535 -1.3754 -1.5797  1.0430
  136TIP3   OH2  343   3.415   0.484   1.959 -0.2137  0.0287  0.1606
  136TIP3    H1  344   3.371   0.558   2.001 -0.4009 -1.0675  1.9606
  136TIP3    H2  345   3.485   0.459   2.020  0.5007 -0.6328 -0.9036
  137TIP3   OH2  346   7.489   6.305   0.864  0.2032  0.2587 -0.0247
  137TIP3    H1  347   7.482   6.359   0.785  2.2858  1.7939  0.8184
  137TIP3    H2  348   7.441   6.354   0.930  0.8879  0.3772  0.3845
  138TIP3   OH2  349   4.641   6.568   1.641 -0.1889 -0.6079  0.2992
  138TIP3    H1  350   4.686   6.579   1.557 -1.2945 -0.7293 -0.3167
  138TIP3    H2  351   4.705   6.525   1.697  1.0309  0.6720 -0.0651
  139TIP3   OH2  352   2.651   0.257   1.521  0.2212  0.2618  0.5988
  139TIP3    H1  353   2.737   0.278   1.485 -0.4745  0.2736 -1.1167
  139TIP3    H2  354   2.666   0.247   1.615  2.3464 -0.9906  0.1771
  140TIP3   OH2  355   3.328   0.195   1.914  0.1278  0.5163  0.7041
  140TIP3    H1  356   3.416   0.157   1.911  0.1760  0.6152  0.8399
  140TIP3    H2  357   3.270   0.120   1.926  0.1801  0.4335  0.4350
  141TIP3   OH2  358   5.124   0.760   1.345  0.2542  0.7622 -0.2691
  141TIP3    H1  359   5.137   0.842   1.393 -1.5380  0.6732  0.4036
  141TIP3    H2  360   5.143   0.692   1.409 -0.7916  0.6479 -0.0780
  142TIP3   OH2  361   1.725   1.687   2.977  0.4299  0.0385 -0.1765
  142TIP3    H1  362   1.806   1.730   2.949  0.7784 -0.3809  0.1804
  142TIP3    H2  363   1.754   1.618   3.037 -0.1056 -0.9158 -1.0123
  143TIP3   OH2  364   3.101   0.783   0.305  0.1579 -0.3174 -0.0369
  143TIP3    H1  365   3.072   0.732   0.381  1.1148 -0.1415  0.4539
  143TIP3    H2  366   3.194   0.799   0.321  0.2076  0.3045 -0.9183
  144TIP3   OH2  367   4.413   1.494   2.049 -0.0276 -0.2548  0.1943
  144TIP3    H1  368   4.472   1.473   2.121  0.2359 -1.3601 -0.3299
  144TIP3    H2  369   4.332   1.524   2.092  0.8130  1.0308  0.9131
  145TIP3   OH2  370   7.144   7.817   2.157 -0.2753  0.3341  0.2060
  145TIP3    H1  371   7.155   7.733   2.113 -1.9914  0.1347  0.0964
  145TIP3    H2  372   7.107   7.795   2.242 -0.1873  0.9390  0.4036
  146TIP3   OH2  373   2.146   6.324   1.870 -0.0642  0.2652  0.0948
  146TIP3    H1  374   2.168   6.244   1.918  1.6044  0.5079 -0.2355
  146TIP3    H2  375   2.096   6.294   1.794  0.3210 -0.4407  0.1147
  147TIP3   OH2  376   7.560   6.871   1.407  0.1914 -0.5252 -0.1650
  147TIP3    H1  377   7.633   6.925   1.377 -1.1657  1.0647 -0.7009
  147TIP3    H2  378   7.600   6.805   1.464  2.2213 -0.6730 -1.7342
  148TIP3   OH2  379   7.966   7.296   3.099  0.0404  0.7062 -0.1447
  148TIP3    H1  380   7.931   7.298   3.010  1.2939  0.0599 -0.6631
  148TIP3    H2  381   8.057   7.267   3.089  0.0420  0.0957  1.3913
  149TIP3   OH2  382   2.797   1.719   1.948 -0.1240 -0.0977  0.0128
  149TIP3    H1  383   2.790   1.681   2.036  0.4031 -0.6496 -0.1779
  149TIP3    H2  384   2.869   1.672   1.907 -1.0678 -0.6126 -1.1004
  150TIP3   OH2  385   3.021   1.138   2.677 -0.0109 -0.5282  0.8020
  150TIP3    H1  386   3.113   1.119   2.697  0.5454 -0.5440 -1.5432
  150TIP3    H2  387   2.974   1.057   2.695  0.8620 -1.3171 -0.3992
  151TIP3   OH2  388   3.308   6.389   2.432 -0.1839 -0.4926  0.0283
  151TIP3    H1  389   3.293   6.442   2.511 -3.8845 -1.2352 -0.0984
  151TIP3    H2  390   3.332   6.453   2.365 -1.1516  0.6580  0.7455
  152TIP3   OH2  391   0.240   4.800   3.437  0.5240 -0.0803 -0.5478
  152TIP3    H1  392   0.225   4.881   3.485 -1.3124 -1.8057  1.9236
  152TIP3    H2  393   0.157   4.781   3.394  0.8146 -0.8689 -0.7746
  153TIP3   OH2  394   2.912   0.865   1.921  0.3519  0.7345 -0.0749
  153TIP3    H1  395   2.861   0.806   1.865  3.1711 -0.1328 -1.8320
  153TIP3    H2  396   2.921   0.818   2.004 -0.8450  0.4984 -0.0616
  154TIP3   OH2  397   3.011   6.758   3.124 -0.8277 -0.3478  0.3220
  154TIP3    H1  398   2.938   6.775   3.064 -1.7024 -2.1052  0.8754
  154TIP3    H2  399   3.085   6.804   3.084 -1.1243 -2.3518 -2.6688
  155TIP3   OH2  400   1.820   7.919   3.539 -0.2947  0.4870 -0.4186
  155TIP3    H1  401   1.847   7.892   3.452 -0.7510  0.7974 -0.6564
  155TIP3    H2  402   1.818   8.015   3.536 -1.3258  0.4668 -0.3765
  156TIP3   OH2  403   1.938   6.741   2.064  0.4541  0.5988  0.3418
  156TIP3    H1  404   1.950   6.646   2.061 -1.7521  0.3207 -0.6315
  156TIP3    H2  405   2.026   6.777   2.050  1.1635 -1.2857 -0.1947
  157TIP3   OH2  406   0.400   7.198   4.436  0.5596  0.3233 -0.4880
  157TIP3    H1  407   0.421   7.275   4.488 -0.7752  0.8104 -0.6737
  157TIP3    H2  408   0.305   7.197   4.430  0.6832  0.4657 -3.1761
  158TIP3   OH2  409   6.699   0.863   1.409  0.1563  0.3951  0.0648
  158TIP3    H1  410   6.688   0.770   1.387  0.0102  0.6669 -1.0178
  158TIP3    H2  411   6.692   0.865   1.505  0.2141 -0.7169  0.1051
  159TIP3   OH2  412   2.597   1.471   2.796  0.3563 -0.1315 -0.1143
  159TIP3    H1  413   2.668   1.429   2.844 -0.2096 -0.3254  0.5716
  159TIP3    H2  414   2.526   1.407   2.796  0.0164  0.2365 -0.3746
  160TIP3   OH2  415   3.583   1.001   2.161  0.2046  0.2947 -0.0751
  160TIP3    H1  416   3.545   1.078   2.119 -0.5132  0.2327  0.4394
  160TIP3    H2  417   3.591   0.936   2.091 -0.0607  0.5269 -0.3203
  161TIP3   OH2  418   3.004   7.277   0.928 -0.3554  0.1327 -0.2849
  161TIP3    H1  419   3.017   7.284   0.833  1.8203  1.0675  0.0632
  161TIP3    H2  420   2.924   7.224   0.937  0.1106 -1.0478 -2.6187
  162TIP3   OH2  421   5.455   2.077   4.013 -0.6724  0.1773 -0.4153
  162TIP3    H1  422   5.417   2.155   4.052 -3.0303 -0.9749 -0.3235
  162TIP3    H2  423   5.454   2.011   4.083 -1.7976 -0.9060 -1.4379
  163TIP3   OH2  424   4.323   1.722   1.292  0.2380  0.3287  0.0162
  163TIP3    H1  425   4.357   1.787   1.230  0.1246  0.0430 -0.3536
  163TIP3    H2  426   4.341   1.638   1.250 -0.3066  0.1511  0.1312
  164TIP3   OH2  427   0.879   6.669   2.143 -0.2943 -0.1300  0.1628
  164TIP3    H1  428   0.903   6.697   2.231 -0.6286 -1.0545  0.5484
  164TIP3    H2  429   0.951   6.701   2.088  1.7980 -2.6919  1.2740
  165TIP3   OH2  430   5.717   1.551   2.163  0.0614 -0.4664 -0.7750
  165TIP3    H1  431   5.803   1.551   2.207 -0.9943 -0.8778  1.3558
  165TIP3    H2  432   5.714   1.466   2.119 -0.1789 -1.4510  1.0830
  166TIP3   OH2  433   5.095   0.429   3.149 -0.0593 -0.1316 -0.3414
  166TIP3    H1  434   5.003   0.453   3.152 -0.5976 -1.9438 -2.0291
  166TIP3    H2  435   5.112   0.406   3.058  1.5529 -1.7577  0.3392
  167TIP3   OH2  436   1.649   2.403   5.723  0.4639 -0.2993  0.3112
  167TIP3    H1  437   1.633   2.497   5.711  0.9452 -0.3335 -0.5927
  167TIP3    H2  438   1.743   2.396   5.733  0.6291 -0.8918 -1.5257
  168TIP3   OH2  439   1.475   1.707   3.255 -0.3478  0.5249 -0.1246
  168TIP3    H1  440   1.396   1.759   3.272 -0.6877 -0.3023  0.8013
  168TIP3    H2  441   1.446   1.640   3.194 -0.1356  0.8015 -0.5323
  169TIP3   OH2  442   1.276   7.617   1.628 -0.2655 -0.3832  0.2429
  169TIP3    H1  443   1.254   7.710   1.629 -0.8628 -0.5222  1.4052
  169TIP3    H2  444   1.195   7.573   1.604  0.4651 -0.5106 -2.0728
  170TIP3   OH2  445   1.943   0.801   3.755 -0.2187 -0.5340  0.0851
  170TIP3    H1  446   1.912   0.879   3.709  0.6383 -0.0746  0.2983
  170TIP3    H2  447   1.865   0.767   3.799 -0.3808  0.7330  0.7791
  171TIP3   OH2  448   3.849   2.677   1.255  0.2741  0.0227 -0.3636
  171TIP3    H1  449   3.903   2.752   1.281 -0.3493  1.2691 -2.5311
  171TIP3    H2  450   3.776   2.678   1.318  0.1835  1.3505 -0.4643
  172TIP3   OH2  451   3.626   0.467   0.786  0.1106  0.3805  0.0100
  172TIP3    H1  452   3.571   0.456   0.708 -0.5976  1.2458  0.3752
  172TIP3    H2  453   3.644   0.561   0.789  1.0038  0.2039  0.3136
  173TIP3   OH2  454   0.539   7.295   2.483  0.3245 -0.4654 -0.5940
  173TIP3    H1  455   0.584   7.247   2.413  0.8410  0.6520 -1.0457
  173TIP3    H2  456   0.601   7.364   2.507  0.4123 -1.2289  1.4137
  174TIP3   OH2  457   2.846   1.811   1.277 -0.0736 -0.0949  0.4169
  174TIP3    H1  458   2.808   1.855   1.353  0.1642 -0.7907  0.9415
  174TIP3    H2  459   2.771   1.792   1.220 -0.6448 -2.2633  1.8506
  175TIP3   OH2  460   4.642   1.094   3.225 -0.2344  0.0208 -0.1136
  175TIP3    H1  461   4.573   1.158   3.240  0.8416  1.0312  0.6861
  175TIP3    H2  462   4.598   1.020   3.183 -1.7893  0.6339  0.3951
  176TIP3   OH2  463   8.427   5.562   6.888  0.0858 -0.1533  0.1890
  176TIP3    H1  464   8.490   5.544   6.818  0.5665 -0.8472  0.7935
  176TIP3    H2  465   8.385   5.644   6.862 -0.2907 -0.7922 -1.3144
  177TIP3   OH2  466   8.110   7.706   0.485 -0.4178 -0.5773  0.7308
  177TIP3    H1  467   8.015   7.716   0.492 -0.3434 -0.7386  1.9411
  177TIP3    H2  468   8.127   7.714   0.391 -1.3960  1.5230  0.6876
  178TIP3   OH2  469   2.048   6.575   1.581  0.3604  0.2066  0.2273
  178TIP3    H1  470   2.048   6.481   1.601 -0.3764  0.5035  1.6690
  178TIP3    H2  471   1.958   6.603   1.595  0.1856  0.7997 -1.8968
  179TIP3   OH2  472   2.377   6.468   1.842  0.6387  0.5037  0.0708
  179TIP3    H1  473   2.418   6.397   1.794  2.7726  1.3085  0.6687
  179TIP3    H2  474   2.293   6.431   1.872  1.4340 -1.5432 -0.1487
  180TIP3   OH2  475   5.645   1.085   2.298  0.2534 -0.1111  0.2682
  180TIP3    H1  476   5.697   1.075   2.378 -0.4876 -0.7972  0.6709
  180TIP3    H2  477   5.682   1.023   2.236 -0.9167 -1.5621  0.9948
  181TIP3   OH2  478   0.378   5.556   6.515 -0.9956  0.2119  0.5758
  181TIP3    H1  479   0.367   5.462   6.529 -0.4393  0.3704  2.2189
  181TIP3    H2  480   0.472   5.567   6.500 -1.0704  0.4983  0.3176
  182TIP3   OH2  481   1.584   7.730   1.867  0.4712 -0.3190  0.1337
  182TIP3    H1  482   1.553   7.820   1.857  0.1348 -0.3888  0.5404
  182TIP3    H2  483   1.649   7.719   1.797  1.2746  0.5720  0.7311
  183TIP3   OH2  484   3.139   7.617   0.898  0.3637  0.0643  0.1265
  183TIP3    H1  485   3.151   7.703   0.859 -1.0537 -0.1663 -0.8455
  183TIP3    H2  486   3.227   7.579   0.900  1.1318  1.8141  1.2978
  184TIP3   OH2  487   4.722   0.203   1.378 -0.4026  0.0428 -0.2491
  184TIP3    H1  488   4.730   0.211   1.473 -0.8477  2.5035 -0.3947
  184TIP3    H2  489   4.751   0.114   1.359  0.8796 -0.0556  2.0450
  185TIP3   OH2  490   6.473   2.773   0.422  0.2671 -0.2758 -0.1845
  185TIP3    H1  491   6.557   2.728   0.434  0.3274 -0.2807 -0.6312
  185TIP3    H2  492   6.490   2.863   0.449  0.4103 -0.2782 -0.2670
  186TIP3   OH2  493   4.026   1.479   2.510  0.5236  0.1753 -0.2319
  186TIP3    H1  494   3.975   1.552   2.474 -0.4449 -0.2720  0.2148
  186TIP3    H2  495   4.072   1.442   2.434 -0.0734  0.3783 -0.6964
  187TIP3   OH2  496   2.592   7.287   0.245  0.0269 -0.1979 -0.4392
  187TIP3    H1  497   2.579   7.366   0.191 -0.1790 -0.8850 -1.4200
  187TIP3    H2  498   2.540   7.220   0.201  0.4963 -0.9759  0.1836
  188TIP3   OH2  499   3.964   0.678   1.008 -0.4582 -0.3766  0.1412
  188TIP3    H1  500   3.904   0.630   1.065  0.8450 -1.4723  0.6318
  188TIP3    H2  501   3.968   0.627   0.927  0.2799 -0.6621  0.3480
  189TIP3   OH2  502   3.932   3.253   0.732 -0.4464  0.2141  0.5676
  189TIP3    H1  503   3.945   3.252   0.827 -1.4764 -0.7679  0.7117
  189TIP3    H2  504   3.957   3.165   0.704 -3.6263 -0.7408  0.4542
  190TIP3   OH2  505   7.466   5.465   6.623 -0.1709  0.2030  0.0880
  190TIP3    H1  506   7.399   5.489   6.559 -0.3215  0.4403  0.3289
  190TIP3    H2  507   7.527   5.409   6.575 -1.1162 -0.8853  0.1485
  191TIP3   OH2  508   0.379   0.307   1.290  0.4401 -0.2294  0.2181
  191TIP3    H1  509   0.460   0.257   1.290 -0.3802 -1.6118 -1.6551
  191TIP3    H2  510   0.407   0.398   1.279  1.7442 -0.6366  0.0809
  192TIP3   OH2  511   7.130   5.173   6.576  0.3021  0.1023 -0.9003
  192TIP3    H1  512   7.050   5.122   6.563 -0.2127  0.6967 -0.0928
  192TIP3    H2  513   7.116   5.219   6.659  1.4589  0.2475 -0.7786
  193TIP3   OH2  514   5.415   0.893   3.840 -0.1841  0.3420 -0.4599
  193TIP3    H1  515   5.382   0.814   3.883  4.3153 -1.4410  0.0424
  193TIP3    H2  516   5.413   0.872   3.747 -1.6741  0.7607 -0.5253
  194TIP3   OH2  517   1.589   7.615   2.309  0.4691  0.4008 -0.2419
  194TIP3    H1  518   1.664   7.596   2.253  0.0567  2.5120 -1.5415
  194TIP3    H2  519   1.623   7.675   2.376  0.2630  0.2325  0.0162
  195TIP3   OH2  520   4.467   7.611   1.922  0.0785 -0.0096 -0.0582
  195TIP3    H1  521   4.371   7.614   1.921  0.0989  0.6306 -0.3269
  195TIP3    H2  522   4.493   7.645   1.837  0.5376 -0.8107 -0.2426
  196TIP3   OH2  523   2.044   7.112   0.557  0.2642 -0.2399 -0.0009
  196TIP3    H1  524   2.055   7.018   0.546  0.5512 -0.2426  0.3101
  196TIP3    H2  525   2.073   7.130   0.646 -0.3276  0.0589  0.1358
  197TIP3   OH2  526   1.492   5.664   6.294 -0.6210 -0.1089  0.6269
  197TIP3    H1  527   1.418   5.705   6.338 -2.0066 -0.7917 -0.9855
  197TIP3    H2  528   1.539   5.619   6.363 -1.7950  0.2187  1.6681
  198TIP3   OH2  529   2.412   7.862   2.056 -0.5406  0.0501  0.2150
  198TIP3    H1  530   2.484   7.904   2.103  0.1364 -0.3363 -0.4735
  198TIP3    H2  531   2.360   7.820   2.125  0.8004 -1.0543  0.5814
  199TIP3   OH2  532   3.153   7.241   2.028  0.3471 -0.4585  0.9250
  199TIP3    H1  533   3.174   7.232   1.936  1.0508 -1.0115  1.1350
  199TIP3    H2  534   3.190   7.326   2.053 -0.2416 -0.1045  0.5909
  200TIP3   OH2  535   5.790   0.063   0.027 -1.4815 -0.0759 -0.2687
  200TIP3    H1  536   5.759   0.113   0.102 -3.3090 -0.4417 -0.7487
  200TIP3    H2  537   5.863   0.114  -0.007 -0.1497 -0.2710  2.1656
  201TIP3   OH2  538   4.600   7.016   2.303  0.8489  0.4241 -0.2234
  201TIP3    H1  539   4.689   6.991   2.279  0.9752  0.0663  0.6000
  201TIP3    H2  540   4.592   7.107   2.272  1.4562  0.4145 -0.4169
  202TIP3   OH2  541   0.763   7.708   6.506  0.4093 -0.3461  0.2943
  202TIP3    H1  542   0.766   7.783   6.564  2.1961  1.2281 -1.7218
  202TIP3    H2  543   0.855   7.695   6.479 -0.2402 -1.5275 -1.4886
  203TIP3   OH2  544   4.924   2.054   0.881 -0.0410  0.4286 -0.2479
  203TIP3    H1  545   4.928   1.959   0.887 -0.1980  0.4276 -0.1456
  203TIP3    H2  546   4.968   2.075   0.799  2.9286  0.5139  1.2920
  204TIP3   OH2  547   7.336   2.535   2.506  0.1567  0.5101  0.7856
  204TIP3    H1  548   7.428   2.523   2.482 -0.7587  0.5784 -3.0578
  204TIP3    H2  549   7.322   2.629   2.501 -0.2907  0.4406  0.7397
  205TIP3   OH2  550   0.449   1.625   1.467 -0.1752  0.5458  0.5164
  205TIP3    H1  551   0.462   1.617   1.562 -1.2841 -0.1282  0.6243
  205TIP3    H2  552   0.384   1.696   1.458 -0.2452  0.4510  0.2771
  206TIP3   OH2  553   2.788   0.490   2.498  0.6843  0.9488 -0.2297
  206TIP3    H1  554   2.777   0.555   2.567  0.6940  0.5370  0.1656
  206TIP3    H2  555   2.713   0.504   2.440 -0.4270  0.0091  0.9335
  207TIP3   OH2  556   2.715   0.365   3.028  0.3546  0.2265 -0.3624
  207TIP3    H1  557   2.638   0.348   2.974  0.2019 -0.7088  0.1336
  207TIP3    H2  558   2.787   0.320   2.983  0.5148  0.7019 -0.5776
  208TIP3   OH2  559   4.100   0.356   1.294  0.0579 -0.1420 -0.1982
  208TIP3    H1  560   4.136   0.352   1.383 -1.9341 -0.3532  0.6302
  208TIP3    H2  561   4.147   0.288   1.247  0.6369 -0.5278  0.9100
  209TIP3   OH2  562   1.484   1.404   1.446  0.6052  0.2853  0.4775
  209TIP3    H1  563   1.490   1.425   1.539 -0.8423 -0.3406  0.7216
  209TIP3    H2  564   1.393   1.420   1.423  0.2294 -2.4651 -0.1078
  210TIP3   OH2  565   2.154   1.951   1.346 -0.2862  0.3566  0.0081
  210TIP3    H1  566   2.191   1.990   1.267  0.1576  0.2388  0.1563
  210TIP3    H2  567   2.094   1.883   1.314 -0.9798  1.0918 -0.2466
  211TIP3   OH2  568   0.354   7.860   1.109  0.2338 -0.1942 -0.4994
  211TIP3    H1  569   0.443   7.871   1.075  0.4505  2.3964  0.7694
  211TIP3    H2  570   0.301   7.842   1.031  1.5461  0.1854 -1.5043
  212TIP3   OH2  571   4.847   2.600   1.252  0.7548 -0.5741  0.2553
  212TIP3    H1  572   4.912   2.649   1.203  0.7430 -2.4712 -1.7585
  212TIP3    H2  573   4.894   2.521   1.281 -0.0662 -0.9421  0.5914
  213TIP3   OH2  574   3.385   2.188   2.070  0.5732 -0.3149 -0.2405
  213TIP3    H1  575   3.427   2.139   2.141 -0.5870 -1.3711 -0.2528
  213TIP3    H2  576   3.296   2.152   2.067 -0.5010  2.2296  0.1579
  214TIP3   OH2  577   1.242   2.317   4.439  0.0244  0.0643  0.3690
  214TIP3    H1  578   1.173   2.262   4.475  0.5115 -0.8295 -0.0306
  214TIP3    H2  579   1.290   2.349   4.515  0.3818 -0.9306  0.5740
  215TIP3   OH2  580   2.493   2.446   2.618  0.1225  0.1269 -0.1437
  215TIP3    H1  581   2.415   2.395   2.594  0.2544 -0.3813  0.5059
  215TIP3    H2  582   2.461   2.536   2.623 -0.5861 -0.1711  0.8373
  216TIP3   OH2  583   1.699   0.781   3.882  0.1682 -0.7454  0.1389
  216TIP3    H1  584   1.610   0.815   3.871  0.0844 -0.0814  2.4641
  216TIP3    H2  585   1.687   0.691   3.911  0.2607 -0.7925  0.0305
  217TIP3   OH2  586   2.310   0.844   1.814 -0.0020  0.2764  0.1120
  217TIP3    H1  587   2.351   0.789   1.747 -1.4699 -1.6806  0.7794
  217TIP3    H2  588   2.228   0.873   1.774 -0.5836 -0.3802  0.8066
  218TIP3   OH2  589   3.656   1.268   3.247 -0.2888  0.0992  0.1331
  218TIP3    H1  590   3.715   1.319   3.193  1.6671 -2.3281 -0.1269
  218TIP3    H2  591   3.695   1.269   3.334 -1.4801  0.9456  0.6753
  219TIP3   OH2  592   1.101   3.788   1.395 -0.3456 -0.4476  0.1714
  219TIP3    H1  593   1.044   3.862   1.378 -2.0230 -1.3178  1.8342
  219TIP3    H2  594   1.102   3.738   1.313  1.0346  1.5135 -1.0538
  220TIP3   OH2  595   4.296   2.506   3.124  0.1961 -0.0017 -0.0460
  220TIP3    H1  596   4.255   2.571   3.182 -0.6911 -1.4846  1.0234
  220TIP3    H2  597   4.386   2.500   3.155  0.4088  1.0217 -0.4290
  221TIP3   OH2  598   5.022   4.133   2.210 -0.0247  0.4983 -0.0967
  221TIP3    H1  599   5.081   4.137   2.135  0.6535 -0.1293  0.3956
  221TIP3    H2  600   4.974   4.051   2.198 -0.7563  0.9727 -0.4599
  222TIP3   OH2  601   3.702   3.124   0.035 -0.2673 -0.2687  0.0210
  222TIP3    H1  602   3.775   3.129   0.096 -1.8925  0.3973  1.9745
  222TIP3    H2  603   3.723   3.187  -0.033  2.5821 -2.5215 -1.2729
  223TIP3   OH2  604   2.356   2.697   4.733  0.0723 -0.3312  0.0672
  223TIP3    H1  605   2.278   2.746   4.706 -0.0352  0.3370  1.5436
  223TIP3    H2  606   2.324   2.637   4.801  0.6413 -0.8205 -0.0977
  224TIP3   OH2  607   4.833   1.215   1.789  0.4000 -0.3242  0.3439
  224TIP3    H1  608   4.859   1.124   1.798  0.0391 -0.5062 -0.4471
  224TIP3    H2  609   4.847   1.253   1.876  0.8833 -1.0433  0.5781
  225TIP3   OH2  610   6.635   7.917   3.145 -0.2261  0.2665  0.1951
  225TIP3    H1  611   6.664   7.982   3.209  0.0790  0.2127  0.1145
  225TIP3    H2  612   6.541   7.911   3.157 -0.3019  0.9865 -0.0493
  226TIP3   OH2  613   5.009   0.659   2.892  0.0689  0.1508 -0.2469
  226TIP3    H1  614   5.098   0.640   2.865  0.2646 -1.3564  1.3357
  226TIP3    H2  615   4.954   0.610   2.831  0.4392 -1.5847  0.7830
  227TIP3   OH2  616   2.588   2.098   3.707 -0.5940  0.0769 -0.3512
  227TIP3    H1  617   2.572   2.118   3.615 -2.4802  0.9708  0.1314
  227TIP3    H2  618   2.656   2.160   3.733 -0.2026 -0.0329 -1.0965
  228TIP3   OH2  619   2.852   1.686   3.000 -0.4125 -0.2183  0.2282
  228TIP3    H1  620   2.845   1.781   3.001 -2.1177 -0.3208  0.4775
  228TIP3    H2  621   2.946   1.668   3.005 -0.1498  1.4252  1.5529
  229TIP3   OH2  622   2.065   1.066   2.127  0.2500 -0.3406  0.2190
  229TIP3    H1  623   2.049   1.158   2.147 -1.0851  0.0249 -2.3795
  229TIP3    H2  624   2.147   1.065   2.079 -1.4790 -0.0489 -2.8510
  230TIP3   OH2  625   4.235   1.656   2.574 -0.2766 -0.0501 -0.6411
  230TIP3    H1  626   4.176   1.582   2.560 -0.4924 -0.3410  1.6825
  230TIP3    H2  627   4.195   1.729   2.526 -0.3828 -1.2471 -2.4284
  231TIP3   OH2  628   2.321   1.029   2.979  0.0125 -0.0869 -0.3819
  231TIP3    H1  629   2.338   1.020   3.073  0.4044  0.0024 -0.4458
  231TIP3    H2  630   2.229   1.055   2.974  0.3571  1.2241  0.0287
  232TIP3   OH2  631   1.166   6.570   3.179  0.7610  0.5031  0.1869
  232TIP3    H1  632   1.111   6.647   3.195  0.7829  0.2945  1.2898
  232TIP3    H2  633   1.136   6.538   3.094  0.7882  1.7551 -0.3156
  233TIP3   OH2  634   4.657   2.018   1.088 -0.0748  0.0588  0.2102
  233TIP3    H1  635   4.671   1.988   0.998 -3.3807 -0.2754 -0.2464
  233TIP3    H2  636   4.705   2.101   1.093  1.0484 -0.4532 -1.5025
  234TIP3   OH2  637   0.947   1.415   2.400  0.3332 -0.7351 -0.1731
  234TIP3    H1  638   1.042   1.425   2.396  0.1961  0.7212 -0.0531
  234TIP3    H2  639   0.923   1.446   2.488 -0.0467 -3.0081  0.5649
  235TIP3   OH2  640   1.824   2.793   2.656  0.5687 -0.1165  0.3645
  235TIP3    H1  641   1.794   2.786   2.566 -2.1037 -2.1205  1.3527
  235TIP3    H2  642   1.778   2.870   2.691  1.7119  0.7442  0.0058
  236TIP3   OH2  643   4.345   2.809   2.973  0.5422 -0.4800 -0.2410
  236TIP3    H1  644   4.307   2.897   2.965 -0.1968 -0.7743  0.0206
  236TIP3    H2  645   4.343   2.791   3.067  1.4993 -0.4316 -0.1997
  237TIP3   OH2  646   0.577   1.829   1.697  0.0841  0.0681 -0.1065
  237TIP3    H1  647   0.521   1.905   1.712  0.0341  0.1324 -0.6109
  237TIP3    H2  648   0.523   1.754   1.722 -0.1082  0.1520 -0.2709
  238TIP3   OH2  649   3.121   1.819   1.433  0.3125  0.3080 -0.3212
  238TIP3    H1  650   3.196   1.869   1.401  0.8075 -0.0368  0.2860
  238TIP3    H2  651   3.076   1.879   1.492  0.7788  0.1171  0.2317
  239TIP3   OH2  652   4.264   2.446   1.425 -0.0569 -0.0045  0.5574
  239TIP3    H1  653   4.307   2.430   1.341  0.1013  0.0275  0.6313
  239TIP3    H2  654   4.225   2.533   1.416 -0.4996 -0.2301  0.3265
  240TIP3   OH2  655   3.606   2.783   2.946 -0.5665 -0.1738 -0.2094
  240TIP3    H1  656   3.650   2.840   2.883 -0.2521  0.4770  0.5847
  240TIP3    H2  657   3.633   2.695   2.922  0.3463  0.1467 -0.3627
  241TIP3   OH2  658   3.509   3.723   1.801  0.2066  0.5011 -0.7463
  241TIP3    H1  659   3.596   3.696   1.770  0.2995  0.7001 -0.6591
  241TIP3    H2  660   3.525   3.760   1.887  0.0182  0.4362 -0.6837
  242TIP3   OH2  661   3.110   0.826   2.890  0.0026 -0.4573 -0.0199
  242TIP3    H1  662   3.025   0.785   2.876 -0.4167  0.7370 -1.0245
  242TIP3    H2  663   3.107   0.860   2.980 -0.1671 -1.3492  0.3185
  243TIP3   OH2  664   3.255   0.187   2.398  0.3662  0.3185  0.0547
  243TIP3    H1  665   3.210   0.228   2.472 -1.1471 -1.3336  0.0880
  243TIP3    H2  666   3.316   0.253   2.367  0.4924  1.3084  2.3153
  244TIP3   OH2  667   2.065   2.908   1.206  0.1069  0.2143 -0.2744
  244TIP3    H1  668   2.132   2.868   1.150  1.3379  1.7312  0.0852
  244TIP3    H2  669   1.984   2.897   1.157  0.7540 -0.8138 -1.1514
  245TIP3   OH2  670   3.626   1.314   2.648 -0.4807 -0.3178 -0.6583
  245TIP3    H1  671   3.711   1.359   2.645  0.6058 -2.1310  1.4649
  245TIP3    H2  672   3.644   1.228   2.610 -1.3087 -0.8348  0.1346
  246TIP3   OH2  673   2.411   0.692   1.607 -0.3153 -0.5294  0.2536
  246TIP3    H1  674   2.421   0.601   1.634 -1.7341 -1.4573 -2.1739
  246TIP3    H2  675   2.482   0.707   1.544 -0.0593  0.0781  0.6749
  247TIP3   OH2  676   3.141   1.646   2.995 -0.2061  0.1716  0.4401
  247TIP3    H1  677   3.117   1.562   2.955 -2.3223  0.1407  1.7218
  247TIP3    H2  678   3.199   1.686   2.931 -0.9253 -1.3080 -1.2024
  248TIP3   OH2  679   0.606   7.495   1.429 -0.3801 -0.1618  0.2129
  248TIP3    H1  680   0.663   7.565   1.399 -0.4435 -0.4953 -0.6948
  248TIP3    H2  681   0.560   7.465   1.350 -1.8335  0.1283  0.9289
  249TIP3   OH2  682   2.560   4.493   0.090 -0.2108 -0.1314  0.1050
  249TIP3    H1  683   2.467   4.501   0.071 -0.3605 -0.8044  0.5561
  249TIP3    H2  684   2.603   4.498   0.005 -0.5725  1.3887 -0.0007
  250TIP3   OH2  685   3.920   3.250   1.343  0.1336  0.3814  0.2498
  250TIP3    H1  686   3.984   3.310   1.381 -0.5739  0.6013  1.1009
  250TIP3    H2  687   3.849   3.246   1.407 -0.3582 -0.4589 -0.3355
  251TIP3   OH2  688   1.233   0.032   2.513  0.4405 -0.0925  0.2978
  251TIP3    H1  689   1.148  -0.008   2.532 -0.6760  2.2478  0.3621
  251TIP3    H2  690   1.240   0.104   2.575 -0.9173  4.4083 -4.4026
  252TIP3   OH2  691   4.866   6.350   5.480  0.2220  0.0333 -0.1599
  252TIP3    H1  692   4.931   6.396   5.533  0.7612  1.8644 -2.3478
  252TIP3    H2  693   4.792   6.411   5.476 -0.4298 -0.7539 -0.2331
  253TIP3   OH2  694   5.039   4.178   1.655 -0.2652  0.0682 -0.6539
  253TIP3    H1  695   5.045   4.129   1.737 -1.6063  0.0311 -0.5669
  253TIP3    H2  696   5.126   4.168   1.614  0.5075  0.3207  0.8796
  254TIP3   OH2  697   5.337   4.148   6.879  0.1711 -0.1634  0.2986
  254TIP3    H1  698   5.245   4.152   6.902  0.0146 -1.0269 -0.1343
  254TIP3    H2  699   5.372   4.234   6.901 -0.3784 -0.3640  1.9940
  255TIP3   OH2  700   4.254   0.744   1.063 -0.0997 -0.4513 -0.1333
  255TIP3    H1  701   4.174   0.738   1.011 -0.4673 -0.2942  0.4091
  255TIP3    H2  702   4.325   0.739   0.999 -0.4488 -4.3611 -0.2825
  256TIP3   OH2  703   4.402   2.180   1.149  0.2281 -0.5207  0.1389
  256TIP3    H1  704   4.431   2.168   1.239 -0.3185 -1.4998  0.1842
  256TIP3    H2  705   4.406   2.093   1.110  1.9951  0.1514 -1.2604
  257TIP3   OH2  706   3.229  -0.021   0.472  0.1339 -0.2531  0.1635
  257TIP3    H1  707   3.312   0.025   0.459  0.4196 -0.7787  0.0819
  257TIP3    H2  708   3.169   0.019   0.410  0.1759  0.4995  0.6035
  258TIP3   OH2  709   4.469   1.814   2.072 -0.0074 -0.2713  0.6417
  258TIP3    H1  710   4.532   1.761   2.023  0.5089  0.0336  0.9669
  258TIP3    H2  711   4.499   1.808   2.163  1.2034  2.1238  0.4429
  259TIP3   OH2  712   3.565   3.368   0.386 -0.3097  0.1070  0.6033
  259TIP3    H1  713   3.642   3.334   0.430 -0.2136 -1.2004 -0.5562
  259TIP3    H2  714   3.492   3.317   0.423 -0.5534  0.8608  1.1882
  260TIP3   OH2  715   4.955   6.408   6.745  0.1798 -0.2705  0.0637
  260TIP3    H1  716   4.892   6.478   6.762  1.1325  0.4279  0.7471
  260TIP3    H2  717   4.957   6.358   6.826 -0.1810 -0.8459 -0.2798
  261TIP3   OH2  718   7.190   1.459   2.082 -0.1506 -0.3005 -0.5204
  261TIP3    H1  719   7.209   1.390   2.145  1.2606  0.5972  0.0495
  261TIP3    H2  720   7.190   1.539   2.133 -1.0057  0.2257 -1.3154
  262TIP3   OH2  721   1.785   1.220   1.737  0.1280  0.6331 -0.1966
  262TIP3    H1  722   1.773   1.213   1.642 -1.0963  0.9913 -0.0719
  262TIP3    H2  723   1.880   1.217   1.749  0.2879  0.4392 -1.4201
  263TIP3   OH2  724   1.955   1.980   0.438  0.7938  0.0792 -0.0469
  263TIP3    H1  725   1.917   1.975   0.526 -0.9693 -0.7526 -0.8245
  263TIP3    H2  726   1.893   1.932   0.383  1.1134  1.8579 -2.0120
  264TIP3   OH2  727   2.797   2.733   3.639 -0.6405 -0.3984  0.1536
  264TIP3    H1  728   2.795   2.749   3.544  0.8063  2.1384  0.5300
  264TIP3    H2  729   2.750   2.807   3.677 -0.0001 -0.6809  1.5125
  265TIP3   OH2  730   3.113   1.359   1.230 -0.5691 -0.1335 -0.2896
  265TIP3    H1  731   3.182   1.411   1.273 -1.8867 -1.0227  3.0673
  265TIP3    H2  732   3.048   1.423   1.202 -1.2675  0.2759  2.1094
  266TIP3   OH2  733   2.721   1.913   1.503  0.3287  0.1660  0.0996
  266TIP3    H1  734   2.650   1.948   1.556 -0.4777 -0.2784 -0.6805
  266TIP3    H2  735   2.749   1.834   1.550  0.8996  0.8072  0.8630
  267TIP3   OH2  736   2.630   4.133   3.117 -0.1313 -0.3331 -0.0852
  267TIP3    H1  737   2.674   4.167   3.194 -1.5845 -0.1393  0.6824
  267TIP3    H2  738   2.577   4.207   3.085 -1.0200 -0.9830 -0.1351
  268TIP3   OH2  739   2.448   2.622   1.464 -0.1767 -0.3656 -0.1085
  268TIP3    H1  740   2.516   2.686   1.444 -0.5661  0.0122 -0.2442
  268TIP3    H2  741   2.372   2.675   1.489 -0.2958 -0.7901  0.4483
  269TIP3   OH2  742   2.421   2.219   2.812  0.4370 -0.3038  0.0695
  269TIP3    H1  743   2.477   2.297   2.807  0.0596  0.0670  1.5013
  269TIP3    H2  744   2.388   2.208   2.723  0.9684  0.8257 -0.2816
  270TIP3   OH2  745   5.013   0.696   2.506  0.3722 -0.2033 -0.3608
  270TIP3    H1  746   5.094   0.649   2.489  0.4748 -0.1390 -0.0483
  270TIP3    H2  747   4.967   0.643   2.571  1.3316  1.0681  1.3999
  271TIP3   OH2  748   4.756   1.827   0.470  0.1223 -0.3466 -0.4061
  271TIP3    H1  749   4.799   1.786   0.395 -0.2545  0.8157 -1.2698
  271TIP3    H2  750   4.674   1.778   0.480 -0.1194 -0.0951 -1.1469
  272TIP3   OH2  751   6.633   5.502   6.029  0.0809  0.0568  0.2656
  272TIP3    H1  752   6.542   5.518   6.008  0.1274  0.9322  0.7310
  272TIP3    H2  753   6.674   5.480   5.945 -0.3322  0.6911 -0.0967
  273TIP3   OH2  754   2.952   2.317   1.171 -0.5791 -0.2848  0.1384
  273TIP3    H1  755   2.948   2.315   1.075  1.8903 -0.8702  0.0120
  273TIP3    H2  756   2.930   2.227   1.197  0.4068 -0.5632  0.0262
  274TIP3   OH2  757   6.995   5.000   4.619 -0.2415 -0.0083 -0.6186
  274TIP3    H1  758   6.965   4.944   4.691 -0.9119  1.5495  0.3294
  274TIP3    H2  759   6.957   5.085   4.637  0.9683  0.8311 -1.9366
  275TIP3   OH2  760   3.405   1.883   0.216 -0.0088 -0.2506  0.2369
  275TIP3    H1  761   3.343   1.812   0.197  0.8302 -0.6455 -1.0726
  275TIP3    H2  762   3.464   1.846   0.281 -0.6856 -0.1347  0.9166
  276TIP3   OH2  763   4.405   0.766   0.160  0.0270 -0.0615 -0.5227
  276TIP3    H1  764   4.440   0.763   0.249 -0.9325  0.0097 -0.1376
  276TIP3    H2  765   4.397   0.859   0.140  1.5872 -0.0619 -1.2306
  277TIP3   OH2  766   2.180   1.337   1.291 -0.0596  0.3666 -0.2528
  277TIP3    H1  767   2.205   1.257   1.245 -1.3815 -0.3214  0.1892
  277TIP3    H2  768   2.171   1.403   1.222  1.6458  0.2974 -0.5490
  278TIP3   OH2  769   3.544   4.138   0.163 -0.0021 -0.1177 -0.4257
  278TIP3    H1  770   3.590   4.122   0.245 -0.1168  0.4663 -0.2426
  278TIP3    H2  771   3.567   4.064   0.107  1.6054  0.4348 -0.5309
  279TIP3   OH2  772   5.082   0.951   2.340 -0.4420 -0.3389 -0.8524
  279TIP3    H1  773   5.169   0.981   2.314 -0.2399  0.5226  0.7509
  279TIP3    H2  774   5.097   0.867   2.383 -0.2239  0.4223  0.6005
  280TIP3   OH2  775   0.341   6.410   5.671 -0.0343 -0.0184  0.0436
  280TIP3    H1  776   0.247   6.407   5.659 -0.1908  0.7613  0.9536
  280TIP3    H2  777   0.371   6.321   5.652 -0.9780 -0.3208 -0.0487
  281TIP3   OH2  778   4.260   3.282   1.486  0.3468  0.2231  0.3318
  281TIP3    H1  779   4.267   3.192   1.454 -0.0847  0.4966 -0.5398
  281TIP3    H2  780   4.289   3.277   1.578  1.5833 -0.5626 -0.0885
  282TIP3   OH2  781   4.210   0.183   2.738  0.1110 -0.2475  0.5003
  282TIP3    H1  782   4.222   0.249   2.670 -0.5935 -1.4016 -0.7596
  282TIP3    H2  783   4.295   0.140   2.745  1.0395  1.8389  2.4595
  283TIP3   OH2  784   4.512   0.957   0.393 -0.3366 -0.0439 -0.3152
  283TIP3    H1  785   4.430   1.003   0.375 -1.2594 -0.2809  2.9188
  283TIP3    H2  786   4.486   0.867   0.411  0.6053 -0.1038  0.8153
  284TIP3   OH2  787   3.044   1.754   0.742 -0.3274  0.5356 -0.4380
  284TIP3    H1  788   3.016   1.700   0.668  1.2963 -0.6129 -0.2188
  284TIP3    H2  789   3.035   1.697   0.818 -2.3834  1.8376  0.3627
  285TIP3   OH2  790   5.829   5.445   6.590 -0.4106  1.0514  0.3566
  285TIP3    H1  791   5.772   5.469   6.663 -1.7664 -1.1358  0.0419
  285TIP3    H2  792   5.896   5.389   6.630  0.8474  2.5968  0.4965
  286TIP3   OH2  793   0.288   5.705   6.202 -0.1236  0.2672  0.0888
  286TIP3    H1  794   0.352   5.653   6.153 -1.0597 -1.0052  0.1996
  286TIP3    H2  795   0.341   5.755   6.264  0.9051  0.5132 -0.9681
  287TIP3   OH2  796   5.183   3.444   0.160 -0.0332 -0.4284  0.9038
  287TIP3    H1  797   5.197   3.484   0.074 -0.9018  2.0414  1.8764
  287TIP3    H2  798   5.266   3.454   0.205 -0.6010  1.4165  1.5764
  288TIP3   OH2  799   3.860   1.122   1.174  0.0400 -0.3560 -0.0490
  288TIP3    H1  800   3.819   1.207   1.164  0.0219 -0.3141  0.3612
  288TIP3    H2  801   3.809   1.063   1.118  0.1248 -0.0759 -0.4218
  289TIP3   OH2  802   5.523   5.158   6.350  0.1321 -0.0789 -0.3234
  289TIP3    H1  803   5.538   5.067   6.324 -0.3333 -0.1163 -0.4675
  289TIP3    H2  804   5.560   5.210   6.278 -0.1700 -0.1655 -0.5418
  290TIP3   OH2  805   6.729   5.397   6.699 -0.0136  0.4332 -0.0101
  290TIP3    H1  806   6.731   5.480   6.747  0.9290 -0.6321  1.8481
  290TIP3    H2  807   6.652   5.352   6.733  0.9899 -0.5775  0.9847
  291TIP3   OH2  808   5.766   2.827   0.811  0.3545 -0.2597  0.1421
  291TIP3    H1  809   5.680   2.815   0.772  0.6563 -0.7090 -0.3997
  291TIP3    H2  810   5.802   2.904   0.766  1.4001 -1.7971 -1.7613
  292TIP3   OH2  811   7.416   5.758   5.368 -0.2104  0.6983 -0.0368
  292TIP3    H1  812   7.332   5.726   5.399 -0.2841 -0.7827 -1.6872
  292TIP3    H2  813   7.395   5.831   5.310 -0.2804  1.1102  0.5052
  293TIP3   OH2  814   4.236   0.934   1.277 -0.2051  0.0026  0.0448
  293TIP3    H1  815   4.219   0.858   1.221  1.5383  0.8198 -1.6236
  293TIP3    H2  816   4.237   1.009   1.218  3.8098  0.6212  0.8031
  294TIP3   OH2  817   7.652   5.999   5.009 -0.3293 -0.5388 -0.1878
  294TIP3    H1  818   7.746   5.988   5.001 -0.1491 -0.0094  1.0699
  294TIP3    H2  819   7.620   6.003   4.919  0.9242 -0.1419 -0.6173
  295TIP3   OH2  820   4.388   3.306   0.764  0.4449 -0.3478 -0.2143
  295TIP3    H1  821   4.450   3.251   0.715  1.0370  0.5476 -0.4900
  295TIP3    H2  822   4.429   3.318   0.850 -0.2767 -1.3643  0.2764
  296TIP3   OH2  823   4.329   2.577   1.676  0.0411  0.5484  0.1623
  296TIP3    H1  824   4.267   2.600   1.745  1.0124  1.0386  0.8811
  296TIP3    H2  825   4.297   2.493   1.642 -0.6553  0.4879  0.9548
  297TIP3   OH2  826   5.688   5.027   5.964 -0.3111  0.1262 -0.4143
  297TIP3    H1  827   5.778   5.013   5.993  0.0820  2.9179 -0.1604
  297TIP3    H2  828   5.654   5.095   6.021 -2.1347  0.1176 -1.4369
  298TIP3   OH2  829   4.555   2.739   0.347  0.1072 -0.1828  0.1643
  298TIP3    H1  830   4.639   2.708   0.314  0.1653  1.1986 -1.0303
  298TIP3    H2  831   4.502   2.754   0.269 -0.8569  0.0639  0.8499
  299TIP3   OH2  832   6.776   5.637   6.895 -0.0061 -0.5463 -0.5211
  299TIP3    H1  833   6.813   5.630   6.983  3.7734  0.1843 -1.9857
  299TIP3    H2  834   6.739   5.725   6.891  1.2063 -0.0056 -0.1308
  300TIP3   OH2  835   5.180   0.916   1.935 -0.0680  0.6097  0.1173
  300TIP3    H1  836   5.092   0.937   1.967 -1.1957 -0.5251 -2.1529
  300TIP3    H2  837   5.184   0.821   1.937  1.1951  0.6635  0.3747
  301TIP3   OH2  838   7.644   5.330   6.457  0.2176 -0.1669  0.3023
  301TIP3    H1  839   7.648   5.328   6.362 -0.3799  0.5205  0.2590
  301TIP3    H2  840   7.699   5.257   6.485 -0.3892 -0.9735 -0.5850
  302TIP3   OH2  841   2.723   1.308   0.975 -0.4981  0.1144 -0.6527
  302TIP3    H1  842   2.630   1.305   0.954 -0.7103  0.9126  0.1510
  302TIP3    H2  843   2.738   1.397   1.005  0.3764 -0.2257 -0.0716
  303TIP3   OH2  844   5.681   3.801   1.629  0.2475  0.1279 -0.0516
  303TIP3    H1  845   5.699   3.791   1.536 -0.8894 -0.9209 -0.1711
  303TIP3    H2  846   5.743   3.742   1.673 -0.3880 -0.7065 -0.2556
  304TIP3   OH2  847   4.229   2.794   1.099  0.0848 -0.0866  0.2731
  304TIP3    H1  848   4.292   2.798   1.027 -0.9680 -1.1117 -0.7445
  304TIP3    H2  849   4.201   2.884   1.111  1.3467  0.2963  0.3791
  305TIP3   OH2  850   4.218   3.119   1.151 -0.1833  0.2919 -0.1137
  305TIP3    H1  851   4.272   3.198   1.147  0.2683 -0.0216 -0.2653
  305TIP3    H2  852   4.241   3.078   1.235 -1.6067  1.1601  0.7166
  306TIP3   OH2  853   4.329   3.892   0.841  0.1934  0.2945 -0.2003
  306TIP3    H1  854   4.364   3.899   0.752  0.4992 -0.1442 -0.1141
  306TIP3    H2  855   4.369   3.813   0.876 -1.1068 -0.3608 -0.1892
  307TIP3   OH2  856   0.316   5.133   6.234 -0.1393 -0.0834  0.1151
  307TIP3    H1  857   0.282   5.075   6.302  1.6121 -0.4778  0.6893
  307TIP3    H2  858   0.306   5.084   6.153  0.7771 -0.9427  0.5223
  308TIP3   OH2  859   6.725   4.747   6.849  0.6165  0.3901  0.1127
  308TIP3    H1  860   6.667   4.692   6.901  1.7946 -1.0622 -0.0849
  308TIP3    H2  861   6.721   4.711   6.761 -0.1832  1.8997 -0.4889
  309TIP3   OH2  862   4.261   4.485   0.087 -0.5030 -0.0661 -0.6703
  309TIP3    H1  863   4.296   4.437   0.162 -0.8602  0.5194 -0.1295
  309TIP3    H2  864   4.255   4.419   0.017 -1.1974 -0.8680  0.1305
  310TIP3   OH2  865   5.891   3.352   1.369 -0.5106  0.3089 -0.2198
  310TIP3    H1  866   5.874   3.444   1.388 -1.5331  0.3495 -1.2901
  310TIP3    H2  867   5.981   3.351   1.335 -0.2511  0.8157  0.4424
  311TIP3   OH2  868   3.961   2.522   3.241  0.2076 -0.3959 -0.1917
  311TIP3    H1  869   3.924   2.606   3.266  1.5281  0.7130 -1.8291
  311TIP3    H2  870   3.994   2.485   3.323  0.1310  0.9507  0.4616
  312TIP3   OH2  871   3.708   0.283   0.480  0.1579 -0.0357 -0.0055
  312TIP3    H1  872   3.736   0.224   0.550  0.3558  0.0820  0.0140
  312TIP3    H2  873   3.789   0.319   0.445  0.1572 -1.2628 -1.3314
  313TIP3   OH2  874   5.130   3.445   1.369 -0.4162 -0.1528 -0.0460
  313TIP3    H1  875   5.212   3.406   1.338  0.7350  3.5946 -1.9555
  313TIP3    H2  876   5.137   3.441   1.465  2.8752  1.6692 -0.1075
  314TIP3   OH2  877   3.493   3.024   2.453  0.2097 -0.2691 -0.3899
  314TIP3    H1  878   3.482   3.055   2.543  3.6995 -0.5780  0.1961
  314TIP3    H2  879   3.421   2.961   2.441  0.3689 -1.1140  2.5825
  315TIP3   OH2  880   5.817   5.875   6.618  0.0113  0.0833  0.2941
  315TIP3    H1  881   5.883   5.920   6.566  0.2195 -0.7854 -0.2091
  315TIP3    H2  882   5.868   5.823   6.681 -0.1663 -0.8992 -0.3575
  316TIP3   OH2  883   7.172   5.834   5.742 -0.2334  0.3559 -0.4102
  316TIP3    H1  884   7.260   5.800   5.758 -0.4230  0.4469  0.8636
  316TIP3    H2  885   7.164   5.908   5.803 -1.7260 -0.5679  0.5342
  317TIP3   OH2  886   2.099   0.687   6.252 -0.1317 -0.0759  0.1003
  317TIP3    H1  887   2.029   0.682   6.317  0.3843  0.1899  0.6777
  317TIP3    H2  888   2.073   0.758   6.194 -0.0057  0.4691  0.7123
  318TIP3   OH2  889   1.858   3.335   1.063 -0.3260  0.0736 -0.1809
  318TIP3    H1  890   1.765   3.312   1.058 -0.3175  0.1962 -0.8697
  318TIP3    H2  891   1.887   3.339   0.972 -0.4046  3.1110 -0.1151
  319TIP3   OH2  892   3.209   2.428   1.929 -0.4056 -0.0744 -0.6128
  319TIP3    H1  893   3.268   2.396   1.861 -0.3496 -0.1068 -0.5497
  319TIP3    H2  894   3.195   2.353   1.987  0.7562  0.3655  0.2558
  320TIP3   OH2  895   2.053   3.470   2.090 -0.1053  0.1114  0.2621
  320TIP3    H1  896   2.110   3.463   2.013 -1.2523  0.3780 -0.6260
  320TIP3    H2  897   2.057   3.383   2.130 -2.2076 -1.1336 -2.0759
  321TIP3   OH2  898   7.346   4.951   6.098 -0.2877  0.1311  0.0398
  321TIP3    H1  899   7.264   4.982   6.135 -0.0017 -1.1216  1.7687
  321TIP3    H2  900   7.353   4.860   6.128  0.8460 -0.3453 -1.5912
  322TIP3   OH2  901   4.771   2.653   2.677  0.0470  0.3181  0.3824
  322TIP3    H1  902   4.809   2.596   2.744  0.0172  0.0792  0.1941
  322TIP3    H2  903   4.815   2.629   2.596  0.0923  0.6182  0.3161
  323TIP3   OH2  904   7.987   5.592   6.093 -0.2527  0.1574 -0.7095
  323TIP3    H1  905   7.969   5.540   6.014  1.5025  0.1959 -1.1548
  323TIP3    H2  906   8.042   5.535   6.147  1.5856  1.4748 -1.1483
  324TIP3   OH2  907   4.962   1.248   0.170  0.2188  0.1896  0.7483
  324TIP3    H1  908   4.933   1.157   0.169 -0.3087  0.3557 -0.7100
  324TIP3    H2  909   4.918   1.288   0.095  0.9323  1.4896  1.0038
  325TIP3   OH2  910   4.083   1.643   0.514  0.5364  0.0798 -0.2442
  325TIP3    H1  911   4.007   1.674   0.564 -0.8410 -1.9133 -1.0155
  325TIP3    H2  912   4.124   1.723   0.481 -0.6817  1.2386  0.9854
  326TIP3   OH2  913   3.755   0.206   1.139 -0.1506 -0.3350 -0.0447
  326TIP3    H1  914   3.796   0.120   1.144 -1.3530 -1.0718 -2.1316
  326TIP3    H2  915   3.780   0.240   1.053  1.3437  1.9525  1.2515
  327TIP3   OH2  916   0.567   3.624   6.559 -1.0691  0.3057  0.2007
  327TIP3    H1  917   0.629   3.554   6.536 -2.6440 -1.5897  1.5623
  327TIP3    H2  918   0.597   3.699   6.508  1.6199 -0.8913 -0.1239
  328TIP3   OH2  919   4.598   1.504   2.270  0.6467 -0.2588  0.2048
  328TIP3    H1  920   4.581   1.477   2.360 -3.3568 -2.1215 -0.9915
  328TIP3    H2  921   4.605   1.599   2.274  3.1307 -0.4885  2.7930
  329TIP3   OH2  922   3.964   0.815   2.457  0.1469 -0.3716  0.6419
  329TIP3    H1  923   4.018   0.850   2.386 -0.4915 -1.1677 -0.2499
  329TIP3    H2  924   3.952   0.888   2.517 -1.3647  1.0077 -1.3033
  330TIP3   OH2  925   2.817   3.745   1.640 -0.0447  0.4455  0.2364
  330TIP3    H1  926   2.863   3.793   1.571  0.2923 -1.5946 -1.0016
  330TIP3    H2  927   2.753   3.692   1.593 -0.2577 -0.4668  1.5437
  331TIP3   OH2  928   0.409   4.343   6.040  0.8732  0.5624 -0.3065
  331TIP3    H1  929   0.474   4.287   6.082  0.5573 -0.9281 -1.7411
  331TIP3    H2  930   0.439   4.350   5.949  0.8755  2.7088 -0.1649
  332TIP3   OH2  931   4.500   0.330   2.388  0.6739  0.0215 -0.0248
  332TIP3    H1  932   4.554   0.321   2.309  0.6661 -0.0647 -0.0211
  332TIP3    H2  933   4.426   0.383   2.361  1.7417  1.7923  0.4718
  333TIP3   OH2  934   6.476   5.729   6.732 -0.3018  0.1198  0.2163
  333TIP3    H1  935   6.559   5.766   6.758 -0.5167  0.6930  0.0863
  333TIP3    H2  936   6.478   5.729   6.636 -1.5295  2.6150  0.1505
  334TIP3   OH2  937   2.604   2.380   1.233  0.0014  0.1051 -0.1809
  334TIP3    H1  938   2.682   2.332   1.206  0.6958 -0.4093  2.5395
  334TIP3    H2  939   2.607   2.378   1.329 -1.1677  3.6367  0.0012
  335TIP3   OH2  940   1.631   2.926   0.906 -0.0525  0.6064 -0.1121
  335TIP3    H1  941   1.547   2.897   0.869 -0.4336 -0.4043  1.4866
  335TIP3    H2  942   1.623   3.021   0.912 -0.7712  0.5901 -0.7395
  336TIP3   OH2  943   3.180   2.068   2.526  0.6530  0.2475 -0.3069
  336TIP3    H1  944   3.167   2.143   2.469  2.6622  1.6884  1.0737
  336TIP3    H2  945   3.196   2.106   2.612 -2.2150 -1.8601  1.2726
  337TIP3   OH2  946   6.475   5.772   6.416  0.1833 -0.4352  0.4060
  337TIP3    H1  947   6.560   5.729   6.427 -0.0143 -1.0618 -0.3966
  337TIP3    H2  948   6.495   5.857   6.376  0.5550  0.1055  1.7252
  338TIP3   OH2  949   3.688   2.665   0.145  0.2891  0.0432 -0.9195
  338TIP3    H1  950   3.692   2.668   0.241 -0.0463  1.8246 -0.9543
  338TIP3    H2  951   3.766   2.616   0.120  0.4931 -0.2552  0.2493
  339TIP3   OH2  952   1.146   4.408   6.436 -0.3393  0.6490  0.0529
  339TIP3    H1  953   1.180   4.334   6.485 -0.1563  0.4228 -0.4151
  339TIP3    H2  954   1.223   4.464   6.421  0.0641 -0.4226 -2.0098
  340TIP3   OH2  955   5.389   2.656   0.059 -0.0594  0.2456  0.4815
  340TIP3    H1  956   5.339   2.623   0.134 -0.4605 -1.2353 -0.4188
  340TIP3    H2  957   5.480   2.651   0.088 -0.2448  0.2082  1.0754
  341TIP3   OH2  958   7.589   5.413   6.880  0.3567  0.3287  0.2574
  341TIP3    H1  959   7.533   5.436   6.806 -0.2672  0.9885  0.9400
  341TIP3    H2  960   7.629   5.330   6.854 -1.0888 -0.2544 -0.1531
  342TIP3   OH2  961   3.344   0.917   0.223  0.1450 -0.2830 -0.0838
  342TIP3    H1  962   3.418   0.938   0.167  0.0199  0.5821  0.0737
  342TIP3    H2  963   3.269   0.959   0.182  0.0461  0.3247  0.6961
  343TIP3   OH2  964   5.757   2.040   1.048  0.4745 -0.0262  0.1480
  343TIP3    H1  965   5.680   1.997   1.085  0.6300 -0.5354 -0.1236
  343TIP3    H2  966   5.825   1.973   1.048  0.6009  0.1017 -0.6621
  344TIP3   OH2  967   6.756   6.343   5.357  0.4850  0.3469 -0.7214
  344TIP3    H1  968   6.711   6.355   5.441  0.6108  0.8772 -0.7304
  344TIP3    H2  969   6.833   6.290   5.378 -1.2629 -2.4297 -1.0355
  345TIP3   OH2  970   5.098   3.136   1.462  0.1982 -0.1405 -0.2453
  345TIP3    H1  971   5.106   3.211   1.521 -1.7143  0.1402 -0.3281
  345TIP3    H2  972   5.016   3.094   1.486 -1.3274  0.7620 -3.5767
  346TIP3   OH2  973   5.499   2.661   1.625  0.2601 -0.1871 -0.2550
  346TIP3    H1  974   5.487   2.647   1.719  0.6658  2.3066  0.2016
  346TIP3    H2  975   5.536   2.750   1.618 -0.6036  0.0159 -2.8094
  347TIP3   OH2  976   4.056   2.300   1.344 -0.0465  0.2928  0.1651
  347TIP3    H1  977   4.003   2.291   1.423  2.1795 -0.5231  1.6114
  347TIP3    H2  978   4.130   2.355   1.370  0.4580  0.4597 -1.5079
  348TIP3   OH2  979   5.681   4.370   2.346 -0.4791 -0.0209 -0.1031
  348TIP3    H1  980   5.596   4.342   2.380 -0.1449  0.3275  1.0599
  348TIP3    H2  981   5.702   4.449   2.396  0.7690 -0.4080  0.0031
  349TIP3   OH2  982   4.357   2.470   0.689  0.0351 -0.2177 -0.0439
  349TIP3    H1  983   4.390   2.533   0.753 -0.3369 -1.1952  1.1167
  349TIP3    H2  984   4.328   2.396   0.741 -0.2619 -1.0305 -1.3520
  350TIP3   OH2  985   5.872   0.720   0.825  0.2004 -0.2453 -0.2724
  350TIP3    H1  986   5.945   0.659   0.832 -0.2760 -0.8650 -0.7473
  350TIP3    H2  987   5.829   0.715   0.910 -0.2414 -1.0706 -0.5488
  351TIP3   OH2  988   1.914   1.759   1.910  0.2600  0.2400 -0.0637
  351TIP3    H1  989   1.917   1.778   1.817 -0.8194  1.4575  0.1478
  351TIP3    H2  990   2.006   1.758   1.937  0.4652  2.9766 -0.5191
  352TIP3   OH2  991   7.855   6.233   4.926  0.3983  0.2667  0.8926
  352TIP3    H1  992   7.938   6.279   4.935 -0.8620  3.1014 -0.9803
  352TIP3    H2  993   7.866   6.178   4.848  0.4548  0.9155  0.4304
  353TIP3   OH2  994   3.510   2.513   2.072 -0.2614  0.3026  0.2918
  353TIP3    H1  995   3.597   2.505   2.111 -0.6039  2.1139  1.5017
  353TIP3    H2  996   3.477   2.423   2.068  0.6570 -0.1484  2.1960
  354TIP3   OH2  997   3.709   3.433   1.571 -0.3367  0.3660  0.3337
  354TIP3    H1  998   3.788   3.434   1.626  0.8846  2.8153 -1.3825
  354TIP3    H2  999   3.698   3.341   1.547  3.8489  0.3550 -1.9501
  355TIP3   OH2 1000   5.514   5.805   5.908  0.5152 -0.1317 -0.2376
  355TIP3    H1 1001   5.608   5.821   5.899  0.6009  0.1074  1.0511
  355TIP3    H2 1002   5.473   5.890   5.893  0.5630 -0.0574  0.0456
  356TIP3   OH2 1003   5.265   0.334   0.676  0.3556  0.5217 -0.1629
  356TIP3    H1 1004   5.346   0.385   0.674  1.4033 -1.1109 -0.4991
  356TIP3    H2 1005   5.195   0.399   0.681  1.6748  1.9613 -0.2386
  357TIP3   OH2 1006   4.452   2.712   1.269 -0.2606  0.3531 -0.0374
  357TIP3    H1 1007   4.434   2.637   1.212  2.5559  1.7794 -2.9500
  357TIP3    H2 1008   4.401   2.784   1.231  1.0108  1.1234 -0.3292
  358TIP3   OH2 1009   7.541   7.467   6.149  1.0219 -0.1101  0.1871
  358TIP3    H1 1010   7.498   7.428   6.225 -0.2574 -3.0853 -1.9486
  358TIP3    H2 1011   7.472   7.516   6.104  0.5143 -2.3747 -1.6027
  359TIP3   OH2 1012   4.067   1.649   1.721  0.3705  0.3037  0.2442
  359TIP3    H1 1013   4.118   1.730   1.721  0.3061  0.3448  0.0534
  359TIP3    H2 1014   4.127   1.582   1.687  0.3996  0.2882  0.3270
  360TIP3   OH2 1015   5.082   2.889   0.217  0.1395 -0.1426  0.3092
  360TIP3    H1 1016   5.062   2.887   0.123 -0.4507  0.8963  0.4021
  360TIP3    H2 1017   5.096   2.797   0.240  1.3533 -0.3101 -1.0136
  361TIP3   OH2 1018   7.528   5.532   6.084  0.6036  0.0144 -0.3040
  361TIP3    H1 1019   7.597   5.557   6.146 -0.4312  2.8262 -0.2012
  361TIP3    H2 1020   7.573   5.526   6.000  1.0633  1.5358 -0.1875
  362TIP3   OH2 1021   4.552   2.617   1.500 -0.4327  0.6080 -0.6016
  362TIP3    H1 1022   4.509   2.646   1.419 -2.4456  2.1398  0.9618
  362TIP3    H2 1023   4.480   2.587   1.555  0.8132  0.5102  0.9849
  363TIP3   OH2 1024   2.776   1.176   0.289 -0.0515 -0.3207 -0.8565
  363TIP3    H1 1025   2.832   1.106   0.323 -0.7681  0.2854  1.6485
  363TIP3    H2 1026   2.735   1.138   0.211 -0.3056 -2.6313  0.3635
  364TIP3   OH2 1027   0.253   7.799   1.635  0.0401 -0.1359  0.2713
  364TIP3    H1 1028   0.326   7.852   1.667  1.0108 -0.6355 -1.0698
  364TIP3    H2 1029   0.286   7.709   1.641 -0.5932 -0.3860 -0.0120
  365TIP3   OH2 1030   6.323   3.316   1.064 -0.1330  0.2510  0.1843
  365TIP3    H1 1031   6.242   3.339   1.017 -0.5578  0.1210  0.8477
  365TIP3    H2 1032   6.315   3.223   1.082 -0.0623  0.3392  0.6843
  366TIP3   OH2 1033   3.589   0.622   0.495 -0.0234 -0.3279  0.1538
  366TIP3    H1 1034   3.612   0.714   0.511 -1.0429  0.1175 -0.9222
  366TIP3    H2 1035   3.495   0.623   0.478  0.6133 -1.0142 -3.8491
  367TIP3   OH2 1036   3.928   1.667   2.326 -0.2857 -0.5893  0.1322
  367TIP3    H1 1037   4.001   1.726   2.308 -1.4199  1.3542  1.7426
  367TIP3    H2 1038   3.873   1.672   2.248 -0.4020  0.5571  0.2807
  368TIP3   OH2 1039   0.190   7.435   0.173 -0.3981  0.1626  0.6576
  368TIP3    H1 1040   0.143   7.359   0.206  0.7154 -0.7816  0.1162
  368TIP3    H2 1041   0.173   7.436   0.079 -1.5442  1.4116  0.8567
  369TIP3   OH2 1042   3.993   0.883   1.447  0.3214 -0.3535  0.2522
  369TIP3    H1 1043   4.046   0.949   1.402 -1.4601  0.1190 -1.1927
  369TIP3    H2 1044   4.016   0.801   1.404 -0.0698 -0.1569 -0.3395
  370TIP3   OH2 1045   6.061   1.975   2.079 -0.3967  0.1633  0.1508
  370TIP3    H1 1046   6.011   1.951   2.157 -0.1186  0.8574  0.5429
  370TIP3    H2 1047   6.003   1.952   2.006 -0.6982 -0.3859  0.5554
  371TIP3   OH2 1048   4.327   2.478   0.057  0.2433  0.3331  0.4012
  371TIP3    H1 1049   4.300   2.523  -0.022 -0.7580 -2.3205 -0.8202
  371TIP3    H2 1050   4.246   2.465   0.107  0.1301 -1.9850 -0.2988
  372TIP3   OH2 1051   3.039   3.938   1.883  0.2032 -0.5840  0.3960
  372TIP3    H1 1052   3.070   3.943   1.793 -0.5824 -1.1154  0.0959
  372TIP3    H2 1053   2.945   3.949   1.877  0.1254 -0.7961  1.1448
  373TIP3   OH2 1054   1.940   7.795   0.952 -0.8498  0.0998 -0.1375
  373TIP3    H1 1055   1.917   7.717   0.901  2.1786 -1.2279  0.4249
  373TIP3    H2 1056   1.933   7.767   1.043 -2.4813  1.3584  0.1641
  374TIP3   OH2 1057   6.297   6.036   6.616  0.1854  0.3358  0.1172
  374TIP3    H1 1058   6.390   6.016   6.617  0.0516 -0.2775 -0.0112
  374TIP3    H2 1059   6.257   5.968   6.669 -0.2928  0.1201 -0.5209
  375TIP3   OH2 1060   4.124   1.873   2.445 -0.4285  0.1643 -0.1430
  375TIP3    H1 1061   4.036   1.902   2.470 -0.9131 -0.0520 -1.5565
  375TIP3    H2 1062   4.176   1.953   2.442 -1.1010  0.5662 -1.3691
  376TIP3   OH2 1063   7.024   6.162   5.802 -0.2902  0.0684 -0.0844
  376TIP3    H1 1064   7.106   6.170   5.851 -0.3871 -0.9410  0.2561
  376TIP3    H2 1065   6.981   6.086   5.840 -0.8371 -0.1187 -1.0713
  377TIP3   OH2 1066   8.252   6.700   6.545  0.2124 -0.0571 -0.7400
  377TIP3    H1 1067   8.302   6.726   6.623  2.2899 -0.8077 -1.7698
  377TIP3    H2 1068   8.244   6.781   6.494 -0.8600  0.3631  0.0705
  378TIP3   OH2 1069   3.889   3.773   2.161 -0.5041 -0.0740 -0.3022
  378TIP3    H1 1070   3.855   3.862   2.148 -0.4158 -0.4499 -3.7777
  378TIP3    H2 1071   3.812   3.721   2.182 -0.4577  0.9206  2.4350
  379TIP3   OH2 1072   4.407   3.332   1.228 -0.4517  0.2494  0.0043
  379TIP3    H1 1073   4.376   3.369   1.311 -0.3334  1.4801 -0.4940
  379TIP3    H2 1074   4.480   3.275   1.254 -1.2461 -0.3954  0.8706
  380TIP3   OH2 1075   4.464   0.305   3.071  0.0543  1.1208  0.1401
  380TIP3    H1 1076   4.547   0.350   3.056  0.2555  0.5646 -0.4222
  380TIP3    H2 1077   4.402   0.349   3.012  0.7953 -0.9118 -2.2338
  381TIP3   OH2 1078   4.487   2.334   3.432  0.8157  0.5074 -0.0201
  381TIP3    H1 1079   4.572   2.303   3.464  1.0245  2.9764  2.0523
  381TIP3    H2 1080   4.510   2.403   3.369  0.3774  1.3771  0.7606
  382TIP3   OH2 1081   4.512   1.366   0.156  0.9922  0.3790  0.0561
  382TIP3    H1 1082   4.425   1.363   0.196  0.7333 -0.6910 -0.5650
  382TIP3    H2 1083   4.573   1.360   0.230  0.5726  2.8572  0.6408
  383TIP3   OH2 1084   7.475   6.324   5.895  0.3246  0.2335 -0.8477
  383TIP3    H1 1085   7.536   6.262   5.936 -0.9485 -0.9210 -0.6737
  383TIP3    H2 1086   7.469   6.296   5.804 -1.5579 -0.9443 -0.3711
  384TIP3   OH2 1087   3.972   0.293   2.633  0.8970 -0.1591  1.0645
  384TIP3    H1 1088   3.882   0.267   2.652  0.4133 -0.4752 -1.4991
  384TIP3    H2 1089   4.023   0.256   2.705 -0.6657 -2.3423  1.1114
  385TIP3   OH2 1090   2.544   1.312   1.410  0.0095  0.3049 -0.1974
  385TIP3    H1 1091   2.627   1.338   1.451  0.7646  1.1458 -2.2314
  385TIP3    H2 1092   2.478   1.368   1.451  0.9847  2.2548 -1.2481
  386TIP3   OH2 1093   4.876   0.627   0.068 -0.5402  0.0744 -0.0112
  386TIP3    H1 1094   4.965   0.595   0.051 -1.5138 -2.5926 -0.2423
  386TIP3    H2 1095   4.858   0.600   0.157 -0.9417  1.1124  0.2303
  387TIP3   OH2 1096   0.391   6.403   6.347 -0.8850 -0.0603 -0.5733
  387TIP3    H1 1097   0.380   6.314   6.313 -2.2633 -0.0836 -0.0768
  387TIP3    H2 1098   0.351   6.401   6.434 -1.7982  1.3044 -0.9478
  388TIP3   OH2 1099   1.951   7.874   0.264 -0.1711  0.1402  0.2022
  388TIP3    H1 1100   1.913   7.961   0.252 -0.8115 -0.1340  0.2651
  388TIP3    H2 1101   2.011   7.884   0.338  1.9549  1.2505 -1.6059
  389TIP3   OH2 1102   4.502   2.064   1.390 -0.8721 -0.3519 -0.1683
  389TIP3    H1 1103   4.413   2.043   1.420 -0.3561 -0.1083  1.6346
  389TIP3    H2 1104   4.556   1.994   1.426 -0.1288  0.2970 -0.0187
  390TIP3   OH2 1105   3.787   0.289   0.872 -0.2459  0.3617  0.4830
  390TIP3    H1 1106   3.728   0.345   0.821  0.5492 -0.6487 -1.6172
  390TIP3    H2 1107   3.789   0.207   0.823  1.6759 -0.1412  1.3817
  391TIP3   OH2 1108   4.705   1.665   1.961 -0.7383 -0.6338 -0.0905
  391TIP3    H1 1109   4.748   1.615   2.031 -2.2010  0.2365  1.4734
  391TIP3    H2 1110   4.776   1.716   1.921  0.0777 -0.9607  0.9110
  392TIP3   OH2 1111   3.702   3.226   1.955  0.0936 -0.0283 -0.0052
  392TIP3    H1 1112   3.651   3.146   1.947  0.2090  0.0793 -2.2043
  392TIP3    H2 1113   3.793   3.197   1.954  0.1336  0.0984 -0.6892
  393TIP3   OH2 1114   4.593   4.840   3.388  0.1907  0.1725  0.2854
  393TIP3    H1 1115   4.530   4.824   3.458  0.6784 -1.5797  0.3309
  393TIP3    H2 1116   4.667   4.883   3.431  0.0480  0.0475  0.6524
  394TIP3   OH2 1117   3.576   0.082   1.948  0.0360  0.7233  0.0969
  394TIP3    H1 1118   3.592  -0.007   1.980  2.0264  0.8121 -0.5211
  394TIP3    H2 1119   3.656   0.130   1.970 -0.0564  1.7410 -1.6424
  395TIP3   OH2 1120   4.930   1.611   1.241  0.0065  0.4982 -0.0863
  395TIP3    H1 1121   4.862   1.678   1.239 -1.6823 -1.1785 -1.3382
  395TIP3    H2 1122   4.950   1.600   1.334 -2.3277  0.1806  0.4157
  396TIP3   OH2 1123   3.818   1.726   1.843 -0.1342 -0.2274 -0.1801
  396TIP3    H1 1124   3.849   1.812   1.814 -1.6148  0.8099  1.2310
  396TIP3    H2 1125   3.892   1.667   1.825  0.6985  1.2094 -1.6905
  397TIP3   OH2 1126   3.341   6.949   2.300  0.2209 -0.0464 -0.3073
  397TIP3    H1 1127   3.397   6.968   2.375 -0.2338  1.0753 -0.2406
  397TIP3    H2 1128   3.400   6.907   2.237  0.7666 -0.3437  0.3941
  398TIP3   OH2 1129   7.323   7.811   2.518  0.4505 -0.4760 -0.6411
  398TIP3    H1 1130   7.250   7.872   2.530  1.7664  0.7837  1.2791
  398TIP3    H2 1131   7.399   7.867   2.502  1.1939 -1.7307 -1.6565
  399TIP3   OH2 1132   4.611   0.209   3.309  0.4739  0.2078 -0.1847
  399TIP3    H1 1133   4.517   0.193   3.298  0.6006 -1.1542  0.6398
  399TIP3    H2 1134   4.617   0.299   3.340 -0.8226 -0.9693  3.7351
  400TIP3   OH2 1135   3.132   1.250   2.228  0.0422  0.1944 -0.8341
  400TIP3    H1 1136   3.102   1.284   2.312 -1.2153 -0.4205 -1.0310
  400TIP3    H2 1137   3.198   1.314   2.199  1.0055  0.0126  0.9444
  401TIP3   OH2 1138   6.917   6.585   5.190  0.3980  0.0257  0.1820
  401TIP3    H1 1139   6.932   6.611   5.281  0.1508  0.3460  0.1322
  401TIP3    H2 1140   6.827   6.552   5.190  0.3783  0.0806  0.0424
  402TIP3   OH2 1141   1.921   1.387   0.629  0.5738  0.1373 -0.2568
  402TIP3    H1 1142   1.858   1.457   0.645 -0.6284 -0.7846 -0.8710
  402TIP3    H2 1143   1.983   1.394   0.701 -0.2257  1.0577  0.3654
  403TIP3   OH2 1144   3.147   2.931   0.069  0.1632 -0.0747 -0.1955
  403TIP3    H1 1145   3.130   2.957   0.160 -0.6442  0.6818 -0.5517
  403TIP3    H2 1146   3.184   3.010   0.029  0.0787 -0.2597 -0.6388
  404TIP3   OH2 1147   4.601   3.556   1.201 -0.3471  0.3814 -0.0813
  404TIP3    H1 1148   4.546   3.499   1.255 -0.7302  0.9261  0.1033
  404TIP3    H2 1149   4.659   3.600   1.263 -1.0468  1.2959 -0.0720
  405TIP3   OH2 1150   0.242   5.925   5.419  0.1382  0.2232  0.5201
  405TIP3    H1 1151   0.193   5.878   5.486  0.7725  0.1413  0.9293
  405TIP3    H2 1152   0.184   5.926   5.343 -0.5702  0.2766  1.0529
  406TIP3   OH2 1153   3.141   1.890   3.447  0.0367 -0.1867 -0.5623
  406TIP3    H1 1154   3.166   1.860   3.534 -0.3446  0.5563 -0.1915
  406TIP3    H2 1155   3.173   1.822   3.388 -0.6050 -1.2015  0.2451
  407TIP3   OH2 1156   4.037   2.608   1.060  0.5226 -0.3239  0.1985
  407TIP3    H1 1157   4.103   2.673   1.085  0.0148 -0.2243  1.2967
  407TIP3    H2 1158   3.967   2.619   1.125 -1.6396  1.1300 -2.2694
  408TIP3   OH2 1159   4.482   1.366   0.799 -0.5637 -0.1325 -0.4256
  408TIP3    H1 1160   4.428   1.423   0.745 -0.2242 -0.2350 -0.8819
  408TIP3    H2 1161   4.486   1.283   0.751  0.0805 -0.0912 -0.4541
  409TIP3   OH2 1162   5.361   3.317   1.338 -0.8448  0.6255 -0.0571
  409TIP3    H1 1163   5.449   3.302   1.372 -0.7927 -0.4797 -0.6740
  409TIP3    H2 1164   5.375   3.367   1.258 -0.8066  0.7398  0.0200
  410TIP3   OH2 1165   4.565   3.216   0.013  0.0125  0.1205 -0.0779
  410TIP3    H1 1166   4.511   3.178   0.081  1.7911 -0.4593  1.0532
  410TIP3    H2 1167   4.617   3.143  -0.021  0.9452  0.8666 -0.3060
  411TIP3   OH2 1168   7.899   4.704   5.636 -0.2150  0.0655  0.0919
  411TIP3    H1 1169   7.805   4.702   5.619  0.0998 -1.6811 -1.6011
  411TIP3    H2 1170   7.939   4.718   5.549  1.1346 -0.8086  0.5506
  412TIP3   OH2 1171   8.262   4.769   6.196 -0.9696 -0.2713 -0.7589
  412TIP3    H1 1172   8.243   4.774   6.290 -0.2850 -0.8443 -0.5923
  412TIP3    H2 1173   8.305   4.851   6.176  1.1105 -1.1696 -0.0672
  413TIP3   OH2 1174   7.968   1.001   6.437 -0.1285  0.8148 -0.0416
  413TIP3    H1 1175   8.045   1.051   6.463  1.5738 -1.0351 -1.4006
  413TIP3    H2 1176   7.972   0.921   6.489 -0.7951  0.4467 -0.5450
  414TIP3   OH2 1177   4.239   2.898   0.338  0.6850 -0.3888 -0.2665
  414TIP3    H1 1178   4.256   2.812   0.376 -1.8662 -0.7478  0.0933
  414TIP3    H2 1179   4.148   2.895   0.308 -0.7556  3.3921  3.2327
  415TIP3   OH2 1180   5.632   3.957   0.453 -0.4270 -0.7264  0.0969
  415TIP3    H1 1181   5.619   4.003   0.370 -0.5849  0.2474  0.6498
  415TIP3    H2 1182   5.713   3.993   0.487 -0.2359 -1.3040  0.2515
  416TIP3   OH2 1183   4.559   1.145   1.998  0.7791  0.0012 -0.8078
  416TIP3    H1 1184   4.628   1.204   1.968  0.6636  1.0628  0.9234
  416TIP3    H2 1185   4.548   1.166   2.091  1.4171 -3.4673  0.1310
  417TIP3   OH2 1186   2.352   7.593   1.664  0.1068 -0.0262  0.3688
  417TIP3    H1 1187   2.289   7.521   1.669  1.0565 -0.8469  0.6557
  417TIP3    H2 1188   2.430   7.554   1.624 -0.5549  1.6910 -2.7537
  418TIP3   OH2 1189   4.682   3.810   0.188  0.0766  0.4817 -0.1429
  418TIP3    H1 1190   4.613   3.874   0.172 -0.0680  0.4344  0.2960
  418TIP3    H2 1191   4.762   3.854   0.162 -0.2794 -0.0601 -2.3672
  419TIP3   OH2 1192   5.333   2.172   3.773 -0.1151  0.1726 -0.3057
  419TIP3    H1 1193   5.254   2.119   3.764  0.5233 -0.8130 -0.2397
  419TIP3    H2 1194   5.379   2.133   3.847  1.9408 -1.2537 -2.2609
  420TIP3   OH2 1195   0.130   7.002   6.709 -0.5468  0.1548  0.1067
  420TIP3    H1 1196   0.123   7.097   6.699 -1.0418  0.5546  3.6067
  420TIP3    H2 1197   0.196   6.976   6.644 -1.6966  2.5831 -2.1546
  421TIP3   OH2 1198   0.495   7.161   0.193  0.2050 -0.9364  0.1418
  421TIP3    H1 1199   0.586   7.155   0.224  0.4200 -1.6718 -0.6119
  421TIP3    H2 1200   0.454   7.226   0.251  0.4852 -2.5667  2.2168
  422TIP3   OH2 1201   4.543   3.452   6.030  0.0430  0.5232  0.0471
  422TIP3    H1 1202   4.573   3.512   5.961  1.9310  2.9331  2.8472
  422TIP3    H2 1203   4.453   3.478   6.046 -0.5944 -0.4302 -1.8781
  423TIP3   OH2 1204   3.666   1.045   0.255  0.0933 -0.4019 -0.0020
  423TIP3    H1 1205   3.627   1.133   0.252  2.2176  0.5343 -1.7608
  423TIP3    H2 1206   3.693   1.028   0.165  0.6366 -2.4491  0.5282
  424TIP3   OH2 1207   2.285   3.376   1.958  0.0741  0.1476  0.3080
  424TIP3    H1 1208   2.303   3.465   1.928  0.8718  0.0529  0.4766
  424TIP3    H2 1209   2.329   3.370   2.043 -0.0138 -0.3912  0.3174
  425TIP3   OH2 1210   2.221   0.871   1.501  0.1135 -0.3208  0.3272
  425TIP3    H1 1211   2.287   0.803   1.516 -1.0652 -1.3976  0.7343
  425TIP3    H2 1212   2.155   0.855   1.568 -1.0892  0.0540 -0.7547
  426TIP3   OH2 1213   4.460   3.943   3.336  0.3981  0.1368 -0.0771
  426TIP3    H1 1214   4.509   4.012   3.382 -0.2987  1.6418 -1.5389
  426TIP3    H2 1215   4.474   3.865   3.389  0.7739  1.5093  1.9300
  427TIP3   OH2 1216   2.932   2.714   0.082  0.3001 -0.9308  0.2211
  427TIP3    H1 1217   2.978   2.633   0.058  1.1681  0.4127 -2.8890
  427TIP3    H2 1218   2.989   2.784   0.052 -1.4751  0.8568  0.8782
  428TIP3   OH2 1219   6.193   7.877   6.778 -0.0762  0.0179  0.1682
  428TIP3    H1 1220   6.107   7.862   6.818  0.4165 -0.9711  0.8693
  428TIP3    H2 1221   6.173   7.910   6.690 -1.1627  0.8575  0.7281
  429TIP3   OH2 1222   6.429   7.920   6.941  0.0409  0.0229 -0.0134
  429TIP3    H1 1223   6.492   7.892   6.875  0.5678  1.6144 -0.1935
  429TIP3    H2 1224   6.345   7.922   6.894  0.3603  0.8336 -0.5544
  430TIP3   OH2 1225   4.561   6.807   1.888 -0.4015 -0.7496  0.1050
  430TIP3    H1 1226   4.605   6.733   1.930 -1.3530 -1.0877  0.5369
  430TIP3    H2 1227   4.558   6.784   1.795 -0.2653 -1.0351  0.1699
  431TIP3   OH2 1228   4.895   3.342   1.324 -0.1490 -0.4850 -0.3649
  431TIP3    H1 1229   4.930   3.253   1.315  1.7542  0.2799 -0.8219
  431TIP3    H2 1230   4.972   3.399   1.319 -1.0710  1.0934  2.0607
  432TIP3   OH2 1231   2.780   3.095   3.480 -0.4012  0.0425  0.0451
  432TIP3    H1 1232   2.747   3.118   3.393 -0.8812  0.3312  0.3002
  432TIP3    H2 1233   2.704   3.105   3.538  0.0225  0.2613  0.5660
  433TIP3   OH2 1234   4.252   2.839   0.761 -0.3105 -0.0494  0.3056
  433TIP3    H1 1235   4.305   2.762   0.784  1.1662  1.4788  2.0987
  433TIP3    H2 1236   4.303   2.884   0.694  0.2243  0.9199  1.3565
  434TIP3   OH2 1237   0.537   0.198   6.771  0.4928  0.3977  0.0834
  434TIP3    H1 1238   0.558   0.113   6.734  2.4303  1.8726 -2.3895
  434TIP3    H2 1239   0.445   0.192   6.795  0.0738 -1.7715 -1.8807
  435TIP3   OH2 1240   6.050   4.601   1.207  0.2996 -0.3945 -0.4328
  435TIP3    H1 1241   5.975   4.626   1.261  1.2478 -0.3314  0.8828
  435TIP3    H2 1242   6.063   4.676   1.149 -0.7364 -0.4697 -0.7756
  436TIP3   OH2 1243   3.797   1.894   1.136 -0.1980 -0.1024 -0.5763
  436TIP3    H1 1244   3.849   1.966   1.099 -1.6538  0.8244 -0.8820
  436TIP3    H2 1245   3.858   1.847   1.194  0.2929  2.5659  1.1816
  437TIP3   OH2 1246   6.736   6.616   5.598  0.1755 -0.0123  0.7573
  437TIP3    H1 1247   6.776   6.607   5.684  0.9053  2.6700  0.7203
  437TIP3    H2 1248   6.647   6.647   5.616 -0.4213 -1.5640  0.6101
  438TIP3   OH2 1249   5.581   2.032   1.690  0.6836  0.4513  0.3449
  438TIP3    H1 1250   5.505   2.071   1.648 -0.9399 -3.2724 -0.3234
  438TIP3    H2 1251   5.563   2.041   1.784 -0.6087 -0.4851  0.1880
  439TIP3   OH2 1252   1.326   7.486   2.506  0.4954  0.5163 -0.1441
  439TIP3    H1 1253   1.234   7.476   2.532  0.7497 -1.9081 -0.1317
  439TIP3    H2 1254   1.373   7.502   2.588  0.4098 -0.6825  0.1458
  440TIP3   OH2 1255   5.027   1.238   0.561 -0.0904 -0.1357 -0.1332
  440TIP3    H1 1256   4.955   1.299   0.577  0.2726  0.1249  0.5222
  440TIP3    H2 1257   4.994   1.153   0.589  0.2017  0.1508  1.1069
  441TIP3   OH2 1258   0.421   7.565   1.652  0.0235 -0.4791 -0.4720
  441TIP3    H1 1259   0.485   7.543   1.720 -0.6535 -2.5806 -0.4813
  441TIP3    H2 1260   0.465   7.545   1.570  0.1219  0.1483 -0.5742
  442TIP3   OH2 1261   1.213   7.152   1.604  0.0054 -0.1211 -0.2629
  442TIP3    H1 1262   1.266   7.126   1.529 -1.0460  0.8872 -1.3900
  442TIP3    H2 1263   1.154   7.078   1.618  0.7272 -0.6388  0.0768
  443TIP3   OH2 1264   4.757   3.189   0.224  0.4743  0.4225  0.7737
  443TIP3    H1 1265   4.717   3.272   0.199  0.7613  0.3598  0.0907
  443TIP3    H2 1266   4.704   3.158   0.297 -0.1580  0.7895  0.4753
  444TIP3   OH2 1267   2.168   3.893   0.427  0.1606  0.2969 -0.7324
  444TIP3    H1 1268   2.237   3.834   0.460 -1.0124 -1.0737 -0.6799
  444TIP3    H2 1269   2.187   3.902   0.334  0.0975 -0.5574 -0.8394
  445TIP3   OH2 1270   5.014   0.657   0.461  0.3193 -0.0374 -0.0672
  445TIP3    H1 1271   4.929   0.700   0.448  0.3929 -0.2445 -1.2450
  445TIP3    H2 1272   5.014   0.585   0.399  1.6376  0.3630 -0.5377
  446TIP3   OH2 1273   3.866   1.095   2.231 -0.4902 -0.2449 -0.1989
  446TIP3    H1 1274   3.784   1.050   2.209  0.7570 -2.7318  0.1407
  446TIP3    H2 1275   3.912   1.105   2.148 -0.0826 -1.0047 -0.0708
  447TIP3   OH2 1276   4.873   2.930   0.455  0.0245 -0.5506  0.1186
  447TIP3    H1 1277   4.780   2.941   0.435  0.1355  1.0730  0.4266
  447TIP3    H2 1278   4.918   2.943   0.372  0.0623 -0.1267  0.2065
  448TIP3   OH2 1279   5.513   2.565   1.365 -0.1402  0.0911  0.0526
  448TIP3    H1 1280   5.520   2.574   1.460 -0.2834 -0.5133  0.1205
  448TIP3    H2 1281   5.419   2.564   1.348 -0.1147  1.1929 -0.1941
  449TIP3   OH2 1282   7.109   1.799   0.303 -0.0989 -0.6607  0.0823
  449TIP3    H1 1283   7.153   1.869   0.352 -0.1870  1.0522 -2.1974
  449TIP3    H2 1284   7.144   1.718   0.341  0.8229  0.6059  2.0504
  450TIP3   OH2 1285   4.596   1.579   1.446 -0.1235 -0.0240  0.0671
  450TIP3    H1 1286   4.645   1.656   1.419 -0.5691 -0.4148 -1.9591
  450TIP3    H2 1287   4.567   1.599   1.535  0.3989  1.8223 -0.1525
  451TIP3   OH2 1288   6.702   2.078   1.457 -0.8450 -0.0643  0.1529
  451TIP3    H1 1289   6.756   2.016   1.506 -1.2935 -0.5102  0.0824
  451TIP3    H2 1290   6.614   2.066   1.493 -0.9005  0.6633  0.2712
  452TIP3   OH2 1291   0.161   4.417   6.663  0.5839  0.0636  0.2542
  452TIP3    H1 1292   0.231   4.476   6.689  0.2637  0.2601  0.6735
  452TIP3    H2 1293   0.206   4.340   6.627  1.0730 -1.0269  3.1121
  453TIP3   OH2 1294   1.758   7.423   1.597  0.1203  0.4790  0.4672
  453TIP3    H1 1295   1.693   7.390   1.659 -0.9438 -2.0934 -1.9222
  453TIP3    H2 1296   1.833   7.364   1.607 -0.3330 -0.3957 -1.1571
  454TIP3   OH2 1297   3.433   3.781   2.068  0.0764  0.6345 -0.0499
  454TIP3    H1 1298   3.424   3.876   2.074 -2.5361  0.3099  1.8895
  454TIP3    H2 1299   3.463   3.754   2.154 -1.6635 -0.5346  0.2092
  455TIP3   OH2 1300   2.095   4.959   6.022 -0.4277  0.1661  0.2528
  455TIP3    H1 1301   2.054   4.989   5.941  0.0205 -0.6946 -0.2975
  455TIP3    H2 1302   2.060   5.017   6.090 -1.6180  0.2021 -0.3905
  456TIP3   OH2 1303   5.673   2.176   0.799  0.2206  0.1912  0.8164
  456TIP3    H1 1304   5.666   2.108   0.733 -1.0643 -1.4622  2.5997
  456TIP3    H2 1305   5.715   2.133   0.874  0.9116  1.7993  1.3826
  457TIP3   OH2 1306   2.000   5.382   3.825  0.7926 -0.6546 -0.2834
  457TIP3    H1 1307   1.942   5.458   3.821  1.2116 -0.2096  1.5967
  457TIP3    H2 1308   1.940   5.307   3.831  0.3783 -0.5076 -2.2131
  458TIP3   OH2 1309   8.474   3.343   2.246 -0.2040  0.1538  0.0972
  458TIP3    H1 1310   8.497   3.433   2.267 -0.0432  0.2162 -0.3390
  458TIP3    H2 1311   8.436   3.348   2.158  2.7829 -0.6333 -1.2955
  459TIP3   OH2 1312   4.033   2.216   1.924  0.2260 -0.8627  0.1532
  459TIP3    H1 1313   4.071   2.198   2.010 -0.6724 -3.6031  0.0125
  459TIP3    H2 1314   4.107   2.211   1.863  1.2638  3.1357  0.9013
  460TIP3   OH2 1315   6.295   1.630   0.542 -0.1525 -0.3304 -0.4230
  460TIP3    H1 1316   6.206   1.650   0.513 -0.1496  1.4281  0.7132
  460TIP3    H2 1317   6.285   1.593   0.630  0.1835 -1.0474 -0.6772
  461TIP3   OH2 1318   5.250   2.934   1.972  0.5662 -0.3054  0.5277
  461TIP3    H1 1319   5.201   2.949   1.891  1.1030  1.7062  0.5282
  461TIP3    H2 1320   5.223   2.847   2.001 -0.1371 -0.7813 -1.4533
  462TIP3   OH2 1321   4.641   2.869   1.988  0.4238  0.1272 -0.0237
  462TIP3    H1 1322   4.595   2.787   1.973 -0.9719  0.8443  0.2911
  462TIP3    H2 1323   4.676   2.861   2.077  1.0234 -0.4583 -0.3045
  463TIP3   OH2 1324   6.725   1.943   0.721  0.1519  0.3707 -0.0679
  463TIP3    H1 1325   6.817   1.959   0.697 -0.0935 -1.4955 -2.3760
  463TIP3    H2 1326   6.675   1.997   0.660 -0.3558 -0.4939 -0.4136
  464TIP3   OH2 1327   0.079   5.019   6.812  0.0095 -0.1137 -0.1461
  464TIP3    H1 1328   0.157   4.993   6.762 -0.1719  0.4254 -0.7107
  464TIP3    H2 1329   0.100   5.106   6.846 -0.4835  0.1882 -0.6033
  465TIP3   OH2 1330   4.696   1.315   0.351  0.2332 -0.5911 -0.1544
  465TIP3    H1 1331   4.766   1.373   0.319  0.6929 -1.2491 -0.3381
  465TIP3    H2 1332   4.736   1.267   0.424 -0.4793  0.1063  0.7186
  466TIP3   OH2 1333   0.888   6.668   6.164  0.3384  0.7455  0.0835
  466TIP3    H1 1334   0.796   6.645   6.174  0.2126  1.5251  0.7139
  466TIP3    H2 1335   0.893   6.706   6.076 -0.4814  3.2896  1.1113
  467TIP3   OH2 1336   6.183   2.567   0.078 -0.1768  0.2160  0.5072
  467TIP3    H1 1337   6.232   2.498   0.124  0.6927  0.2217 -0.3924
  467TIP3    H2 1338   6.095   2.563   0.116 -0.4315 -2.0679 -0.2152
  468TIP3   OH2 1339   8.246   7.429   5.824 -0.1879 -0.1915  0.2058
  468TIP3    H1 1340   8.195   7.368   5.771 -0.8426  0.2910  0.2661
  468TIP3    H2 1341   8.336   7.400   5.815 -0.4941 -1.1825  0.2542
  469TIP3   OH2 1342   1.467   7.364   6.594  0.4345  0.2938  0.1775
  469TIP3    H1 1343   1.444   7.305   6.522  0.1546  1.4800 -0.7298
  469TIP3    H2 1344   1.500   7.443   6.550 -1.5433  1.7787  1.2584
  470TIP3   OH2 1345   6.352   3.526   0.742  0.1268  0.6254  0.2912
  470TIP3    H1 1346   6.293   3.583   0.791  2.8458  1.6253  2.5571
  470TIP3    H2 1347   6.341   3.552   0.651 -3.7159 -0.0051  0.5310
  471TIP3   OH2 1348   1.464   7.127   5.177  0.6322  0.1537  0.1990
  471TIP3    H1 1349   1.553   7.099   5.199  1.7354  1.4433 -2.3556
  471TIP3    H2 1350   1.424   7.050   5.136  1.4030  0.2841 -0.8113
  472TIP3   OH2 1351   0.305   7.628   6.382 -0.0745 -0.4059  0.4511
  472TIP3    H1 1352   0.318   7.570   6.456  2.3561 -0.0294  0.3619
  472TIP3    H2 1353   0.357   7.705   6.402  0.4437 -0.2046 -1.5273
  473TIP3   OH2 1354   7.289   5.635   6.036 -0.0982 -0.0338 -0.3061
  473TIP3    H1 1355   7.250   5.652   6.122  0.5624 -0.1358  0.0186
  473TIP3    H2 1356   7.379   5.610   6.056  1.0318  3.1342 -1.1984
  474TIP3   OH2 1357   7.666   1.546   2.185 -0.1965  0.0157  0.0401
  474TIP3    H1 1358   7.752   1.587   2.183 -0.0383 -0.2822  0.6170
  474TIP3    H2 1359   7.684   1.452   2.177 -0.5791  0.0727 -1.6506
  475TIP3   OH2 1360   5.442   1.487   2.118 -0.0940 -0.1523 -0.3744
  475TIP3    H1 1361   5.438   1.427   2.192 -0.6546 -0.5878 -0.7472
  475TIP3    H2 1362   5.523   1.537   2.131 -1.1590  1.1493  1.5734
  476TIP3   OH2 1363   5.714   3.091   0.418  0.6813  0.5098  0.5340
  476TIP3    H1 1364   5.749   3.178   0.398  0.0949  0.3480 -1.3558
  476TIP3    H2 1365   5.631   3.108   0.463 -0.0783  0.9634 -1.0008
  477TIP3   OH2 1366   0.800   6.141   6.215  0.1755 -0.2070 -0.1699
  477TIP3    H1 1367   0.773   6.180   6.132  0.5479 -0.2981 -0.3381
  477TIP3    H2 1368   0.729   6.160   6.275  0.3753  0.7622 -0.2359
  478TIP3   OH2 1369   0.322   4.344   1.807  0.0264 -0.0968 -0.2116
  478TIP3    H1 1370   0.389   4.401   1.844 -0.6240  1.2997 -1.1262
  478TIP3    H2 1371   0.305   4.380   1.719 -0.5450 -1.5768 -0.7258
  479TIP3   OH2 1372   5.110   1.339   1.947  0.5819 -0.2070  0.1929
  479TIP3    H1 1373   5.137   1.297   2.029 -2.5901  0.3032  1.5422
  479TIP3    H2 1374   5.117   1.433   1.965 -1.3327 -0.0751  0.3308
  480TIP3   OH2 1375   5.076   2.102   1.145  0.7254  0.4650  0.0493
  480TIP3    H1 1376   5.050   2.012   1.121 -0.4277  0.6042  0.7468
  480TIP3    H2 1377   5.136   2.128   1.075  0.5060 -0.5951 -0.5566
  481TIP3   OH2 1378   4.054   2.879   1.397 -0.0688  0.2479 -0.2514
  481TIP3    H1 1379   3.983   2.923   1.351 -0.4848 -0.8412 -0.6894
  481TIP3    H2 1380   4.069   2.932   1.475  1.0825  2.4672 -1.9565
  482TIP3   OH2 1381   7.738   5.568   6.262  0.6995  0.3385  0.2095
  482TIP3    H1 1382   7.830   5.592   6.264  0.4782  1.2527 -0.0288
  482TIP3    H2 1383   7.699   5.615   6.335  0.0204  1.7592 -1.0298
  483TIP3   OH2 1384   5.046   2.245   4.658  0.1149  0.3271  0.7117
  483TIP3    H1 1385   4.962   2.209   4.687  1.1191 -1.6354  1.2175
  483TIP3    H2 1386   5.106   2.226   4.729  1.0848  1.3809  0.1794
  484TIP3   OH2 1387   4.244   7.870   3.485  0.2787 -0.2560  0.1955
  484TIP3    H1 1388   4.166   7.875   3.541  1.3424  0.0922  1.6650
  484TIP3    H2 1389   4.217   7.813   3.413 -0.9640 -1.1155  1.3041
  485TIP3   OH2 1390   1.453   6.636   6.585  0.3243 -0.4640  0.5457
  485TIP3    H1 1391   1.451   6.719   6.634  2.6012 -0.8433  1.3404
  485TIP3    H2 1392   1.377   6.641   6.527 -0.6788  1.3412  1.9501
  486TIP3   OH2 1393   7.842   6.933   6.038  0.1348 -0.3925 -0.6427
  486TIP3    H1 1394   7.747   6.940   6.029  0.3386  1.0337 -1.9506
  486TIP3    H2 1395   7.876   6.994   5.972  1.9376  0.1090  0.7172
  487TIP3   OH2 1396   8.021   6.328   6.227 -0.4456 -0.0261  0.3940
  487TIP3    H1 1397   8.068   6.376   6.294 -2.2200  0.5585  1.2612
  487TIP3    H2 1398   7.984   6.395   6.170 -3.5699 -0.2509  2.0447
  488TIP3   OH2 1399   6.167   1.673   1.190  0.4005 -0.1776  0.3686
  488TIP3    H1 1400   6.118   1.591   1.189  1.0847 -0.5877 -1.6156
  488TIP3    H2 1401   6.243   1.654   1.246  0.8707 -1.1022 -0.5634
  489TIP3   OH2 1402   4.578   3.727   0.871  0.0693 -0.1577  0.4935
  489TIP3    H1 1403   4.594   3.765   0.785  0.4852 -1.2730  0.0677
  489TIP3    H2 1404   4.659   3.741   0.920  0.1632 -0.3477  0.3920
  490TIP3   OH2 1405   7.634   5.459   5.779 -0.5845 -0.0239 -0.1639
  490TIP3    H1 1406   7.544   5.488   5.766 -0.5533  0.7996  1.2587
  490TIP3    H2 1407   7.683   5.540   5.792  0.0724 -0.5431  0.6520
  491TIP3   OH2 1408   4.935   1.745   0.895 -0.4421 -0.6342  0.0764
  491TIP3    H1 1409   4.873   1.734   0.823 -1.0412 -1.8348  0.7565
  491TIP3    H2 1410   4.954   1.655   0.924  0.4086 -0.2009  0.8972
  492TIP3   OH2 1411   6.380   2.844   2.362  0.3246 -0.3475  0.5919
  492TIP3    H1 1412   6.462   2.803   2.336  0.4636 -0.0622  0.5846
  492TIP3    H2 1413   6.402   2.936   2.377 -0.1878 -0.0711 -0.3106
  493TIP3   OH2 1414   4.013   1.127   2.758 -0.2973  0.4578  0.0661
  493TIP3    H1 1415   3.962   1.196   2.801 -0.4054  1.1555 -1.1552
  493TIP3    H2 1416   3.974   1.118   2.672  0.6139 -0.1443 -0.2938
  494TIP3   OH2 1417   2.638   1.109   1.210 -0.3844 -0.3075  0.6957
  494TIP3    H1 1418   2.667   1.043   1.273 -1.5673 -0.8231  0.7092
  494TIP3    H2 1419   2.601   1.179   1.263  0.6492  0.2703  0.6687
  495TIP3   OH2 1420   6.201   2.491   1.474  0.1267  0.2300 -0.5369
  495TIP3    H1 1421   6.282   2.442   1.464 -0.0239  0.2628 -2.0383
  495TIP3    H2 1422   6.229   2.578   1.502  0.4774 -0.2954  0.7902
  496TIP3   OH2 1423   4.866   2.531   0.943 -0.1397  0.0695 -0.1176
  496TIP3    H1 1424   4.803   2.463   0.921 -0.5534 -0.1776  1.7567
  496TIP3    H2 1425   4.943   2.510   0.890 -0.4118 -1.6109  0.1290
  497TIP3   OH2 1426   6.164   6.237   6.753 -0.4426 -0.0879 -0.4548
  497TIP3    H1 1427   6.069   6.235   6.740 -0.3401 -0.5442 -1.1703
  497TIP3    H2 1428   6.198   6.171   6.693  0.1829 -1.2193  1.1006
  498TIP3   OH2 1429   7.867   5.466   6.599 -0.5274  0.2900 -0.1551
  498TIP3    H1 1430   7.789   5.447   6.546 -0.0691 -0.0032 -0.7326
  498TIP3    H2 1431   7.892   5.381   6.636  0.0072  0.2345 -0.6426
  499TIP3   OH2 1432   4.419   1.323   1.819  0.0756  0.4113 -0.5968
  499TIP3    H1 1433   4.423   1.397   1.879  2.2588  0.0750 -0.2772
  499TIP3    H2 1434   4.440   1.247   1.874  0.9988 -0.0301 -1.5470
  500TIP3   OH2 1435   5.297   1.660   1.040 -0.5428 -0.1490 -0.3471
  500TIP3    H1 1436   5.356   1.724   1.081  0.3871 -1.4837  0.4466
  500TIP3    H2 1437   5.344   1.577   1.047 -1.5303 -0.8453 -1.8038
  501TIP3   OH2 1438   3.674   2.805   1.444 -0.4574 -0.0938  0.3610
  501TIP3    H1 1439   3.701   2.831   1.532  1.8973 -1.9733  0.2237
  501TIP3    H2 1440   3.657   2.888   1.399  2.5531  1.0648  1.2758
  502TIP3   OH2 1441   0.227   5.733   5.878 -0.2384 -0.1599  0.0724
  502TIP3    H1 1442   0.189   5.645   5.882 -0.7500  0.0357 -0.3514
  502TIP3    H2 1443   0.169   5.786   5.932 -0.4377  0.0903 -0.3776
  503TIP3   OH2 1444   6.907   4.143   0.636  0.1741 -0.3511  0.0735
  503TIP3    H1 1445   6.818   4.126   0.668  0.9660 -3.4441  0.7698
  503TIP3    H2 1446   6.956   4.170   0.714  0.3287 -0.6089  0.0652
  504TIP3   OH2 1447   6.692   1.555   2.181 -0.3831  0.5578 -0.1662
  504TIP3    H1 1448   6.695   1.649   2.164  1.4571  0.9220  1.9753
  504TIP3    H2 1449   6.648   1.546   2.265  1.4514 -0.2989  0.7477
  505TIP3   OH2 1450   1.881   6.202   5.547 -0.0737  0.0510  0.0052
  505TIP3    H1 1451   1.804   6.245   5.509  0.0312 -1.1095 -1.5693
  505TIP3    H2 1452   1.845   6.137   5.607 -0.3346 -0.6185 -0.8707
  506TIP3   OH2 1453   6.187   2.075   1.814 -0.3413  0.6152 -0.1628
  506TIP3    H1 1454   6.104   2.032   1.835  0.6462 -1.1459  0.3404
  506TIP3    H2 1455   6.205   2.050   1.724  0.7433 -0.9788  0.4544
  507TIP3   OH2 1456   3.998   1.618   0.244 -0.2446 -0.1343  0.2188
  507TIP3    H1 1457   4.023   1.572   0.324 -0.4185 -0.8600 -0.1444
  507TIP3    H2 1458   3.984   1.709   0.272 -0.9894 -0.5329  1.1511
  508TIP3   OH2 1459   7.927   2.167   0.480  0.2983  0.0678 -0.0441
  508TIP3    H1 1460   8.020   2.179   0.462  0.0792  0.0991 -1.2258
  508TIP3    H2 1461   7.884   2.191   0.398 -0.8019  0.7933  0.7311
  509TIP3   OH2 1462   4.734   2.192   3.465 -0.3883  0.1466  0.0585
  509TIP3    H1 1463   4.826   2.211   3.444 -0.6957  0.5934 -0.9119
  509TIP3    H2 1464   4.721   2.102   3.435  0.0840 -0.3666  1.3760
  510TIP3   OH2 1465   4.663   7.867   1.263  0.4205 -0.0289  0.5055
  510TIP3    H1 1466   4.694   7.862   1.173  0.8088 -0.6021  0.6724
  510TIP3    H2 1467   4.741   7.887   1.314  0.0294  1.2955  0.6023
  511TIP3   OH2 1468   2.484   0.455   6.252 -0.2333 -0.1777 -0.7729
  511TIP3    H1 1469   2.535   0.415   6.322  0.4035  0.5625 -0.7971
  511TIP3    H2 1470   2.472   0.386   6.187 -0.2093 -0.6635 -0.2585
  512TIP3   OH2 1471   7.080   3.704   0.240 -0.0611  0.2243  0.0294
  512TIP3    H1 1472   7.094   3.743   0.327  1.1843  0.8143 -0.4200
  512TIP3    H2 1473   7.060   3.778   0.183 -1.0596 -0.1843 -0.1614
  513TIP3   OH2 1474   2.618   4.084   6.071 -0.2855 -0.0726  0.4934
  513TIP3    H1 1475   2.545   4.025   6.089 -0.9253  0.1146 -1.3491
  513TIP3    H2 1476   2.614   4.099   5.977  2.5583 -0.5743  0.2576
  514TIP3   OH2 1477   5.395   1.381   1.341  0.3972  0.2144 -0.0448
  514TIP3    H1 1478   5.442   1.298   1.351  2.0983  1.1401 -0.0866
  514TIP3    H2 1479   5.399   1.400   1.248 -0.9378 -0.1793 -0.1932
  515TIP3   OH2 1480   4.697   1.161   0.093  0.6348 -0.3331  0.0234
  515TIP3    H1 1481   4.657   1.145   0.179  0.1580  0.1458 -0.1096
  515TIP3    H2 1482   4.673   1.251   0.072  2.8429  0.4016  0.5148
  516TIP3   OH2 1483   6.290   2.304   0.501 -0.1029 -0.1736 -0.3134
  516TIP3    H1 1484   6.284   2.270   0.590  1.4939 -2.3409 -0.9931
  516TIP3    H2 1485   6.288   2.399   0.511 -1.6299 -0.3999  1.8807
  517TIP3   OH2 1486   7.427   5.180   5.990 -0.0727  0.1416 -0.6946
  517TIP3    H1 1487   7.398   5.089   5.997  0.4920 -0.0984 -1.3933
  517TIP3    H2 1488   7.371   5.218   5.921 -1.6822  0.8913  0.9846
  518TIP3   OH2 1489   1.555   7.396   6.869 -0.2089  0.5322 -0.1013
  518TIP3    H1 1490   1.510   7.346   6.937  0.1077  0.6051  0.1649
  518TIP3    H2 1491   1.519   7.364   6.787 -0.9011  0.7440  0.1203
  519TIP3   OH2 1492   8.173   6.927   5.241  0.2496 -0.1215 -0.2868
  519TIP3    H1 1493   8.134   6.881   5.317 -0.8811 -0.5892 -1.1341
  519TIP3    H2 1494   8.261   6.891   5.235 -0.0889 -1.0325  0.0294
  520TIP3   OH2 1495   7.775   5.697   6.737  0.2460 -0.3529  0.0267
  520TIP3    H1 1496   7.816   5.635   6.797 -1.7238 -1.3988  0.3137
  520TIP3    H2 1497   7.783   5.656   6.651  1.2326  0.2086 -0.1659
  521TIP3   OH2 1498   6.546   2.906   0.823 -0.1349 -0.1551 -0.5843
  521TIP3    H1 1499   6.456   2.917   0.792 -0.4885  1.4885  0.9858
  521TIP3    H2 1500   6.584   2.993   0.816  0.8485 -0.5165  0.2991
  522TIP3   OH2 1501   5.222   0.458   1.748  0.7560 -0.0121 -0.1782
  522TIP3    H1 1502   5.247   0.526   1.811 -0.7959 -0.7337  1.2748
  522TIP3    H2 1503   5.303   0.436   1.703  1.3072  2.6953 -0.5872
  523TIP3   OH2 1504   7.828   6.013   6.627 -0.0596  0.6947  0.4853
  523TIP3    H1 1505   7.877   6.087   6.590  0.5517  1.0610  2.0084
  523TIP3    H2 1506   7.852   5.939   6.571  0.1881  1.4043 -0.3734
  524TIP3   OH2 1507   3.216   0.479   0.663  0.0733 -0.9181  0.2143
  524TIP3    H1 1508   3.299   0.435   0.642  1.3566  1.7942 -0.5173
  524TIP3    H2 1509   3.233   0.526   0.745  0.0251  1.5831 -1.1778
  525TIP3   OH2 1510   6.293   2.345   0.205 -0.0963 -0.0160  0.0444
  525TIP3    H1 1511   6.312   2.327   0.296  0.1374 -0.0280 -0.0082
  525TIP3    H2 1512   6.325   2.269   0.157 -1.1557 -0.4873  0.0564
  526TIP3   OH2 1513   7.221   3.872   6.504 -0.2359 -0.5893  0.0865
  526TIP3    H1 1514   7.190   3.879   6.595  0.5698  1.9568  0.2206
  526TIP3    H2 1515   7.291   3.936   6.498 -1.2217  0.3170 -2.7337
  527TIP3   OH2 1516   4.378   1.838   0.103 -0.1194  0.4437  0.1193
  527TIP3    H1 1517   4.313   1.909   0.098  0.8434  1.3083 -0.2576
  527TIP3    H2 1518   4.368   1.791   0.021 -1.9433 -0.9305  1.0795
  528TIP3   OH2 1519   6.714   2.157   0.315 -0.0575  0.1141  0.4059
  528TIP3    H1 1520   6.800   2.183   0.280 -1.0474  3.0391  0.0167
  528TIP3    H2 1521   6.678   2.099   0.248  0.3848  1.2912 -0.8894
  529TIP3   OH2 1522   4.492   2.613   1.936  0.0242 -0.2551 -0.0598
  529TIP3    H1 1523   4.399   2.637   1.934 -0.6013 -2.6550 -1.5851
  529TIP3    H2 1524   4.495   2.534   1.988  1.5596  1.0204  1.8348
  530TIP3   OH2 1525   0.569   6.815   5.640  0.3487  0.2811  0.1617
  530TIP3    H1 1526   0.503   6.752   5.611  0.6241 -0.2118  0.5926
  530TIP3    H2 1527   0.575   6.878   5.569 -0.6194  0.3528  0.1336
  531TIP3   OH2 1528   5.562   1.951   0.503 -0.0637  0.0153  0.1673
  531TIP3    H1 1529   5.618   2.019   0.465 -0.6602  0.9826  1.0085
  531TIP3    H2 1530   5.617   1.908   0.567 -0.3357  1.1323  1.1750
  532TIP3   OH2 1531   6.393   5.696   5.252  0.3782 -0.1383  0.2418
  532TIP3    H1 1532   6.486   5.715   5.261  0.6169 -1.0989 -0.1512
  532TIP3    H2 1533   6.358   5.708   5.340  1.0182 -0.5397  0.5520
  533TIP3   OH2 1534   7.591   2.067   0.599  0.4868 -0.4171  0.1219
  533TIP3    H1 1535   7.558   2.039   0.513  1.5093 -0.9471 -0.1097
  533TIP3    H2 1536   7.630   2.153   0.582 -0.7768  0.2232  0.4020
  534TIP3   OH2 1537   7.954   7.412   4.774  0.1530  0.0502  0.0476
  534TIP3    H1 1538   8.005   7.432   4.852  1.6244  2.2120 -1.3987
  534TIP3    H2 1539   8.012   7.435   4.701 -2.0434  0.3656 -1.6518
  535TIP3   OH2 1540   2.176   5.075   6.787  0.0022  0.1283 -0.5428
  535TIP3    H1 1541   2.260   5.066   6.833 -0.7395 -2.3603  0.4185
  535TIP3    H2 1542   2.127   5.140   6.838  0.6936  0.3360 -0.1389
  536TIP3   OH2 1543   1.275   6.779   5.967 -0.6612 -0.4300 -0.1324
  536TIP3    H1 1544   1.359   6.820   5.989 -0.6247  0.3376 -1.6150
  536TIP3    H2 1545   1.294   6.686   5.959  0.0057 -0.2862 -0.2202
  537TIP3   OH2 1546   2.134   4.701   6.881  0.2747  0.2663 -0.0043
  537TIP3    H1 1547   2.157   4.626   6.825 -1.6509  1.3668 -2.3427
  537TIP3    H2 1548   2.041   4.690   6.899 -0.2605  2.5961 -1.1801
  538TIP3   OH2 1549   1.425   6.134   6.306 -0.2032 -0.1508 -0.0732
  538TIP3    H1 1550   1.487   6.182   6.252 -0.8131  0.2893 -0.3869
  538TIP3    H2 1551   1.344   6.133   6.255 -0.6481 -0.1307  0.6254
  539TIP3   OH2 1552   3.991   0.963   0.272  0.1348  0.3279  0.6769
  539TIP3    H1 1553   3.896   0.969   0.268  0.3010  1.9502 -2.4167
  539TIP3    H2 1554   4.009   0.870   0.280 -1.7211 -0.1482 -0.3331
  540TIP3   OH2 1555   6.847   5.520   5.732 -0.3957  0.2188 -0.6812
  540TIP3    H1 1556   6.868   5.434   5.769  0.0961  0.2299 -0.9341
  540TIP3    H2 1557   6.884   5.583   5.793 -2.0337  0.2909  0.2922
  541TIP3   OH2 1558   7.039   3.351   3.688 -0.4399  0.1642  0.2402
  541TIP3    H1 1559   7.061   3.434   3.646  0.7482  0.0603  0.6460
  541TIP3    H2 1560   6.965   3.371   3.744 -1.0803  0.6345 -0.7576
  542TIP3   OH2 1561   4.732   3.163   0.643  0.2395  0.2207  0.5474
  542TIP3    H1 1562   4.675   3.104   0.693  0.4389  0.6428  1.2837
  542TIP3    H2 1563   4.707   3.148   0.552 -0.1008 -0.5926  0.7646
  543TIP3   OH2 1564   8.285   5.768   5.448 -0.3799 -0.2028  0.1947
  543TIP3    H1 1565   8.333   5.814   5.380 -0.7602 -1.6851 -1.1024
  543TIP3    H2 1566   8.206   5.821   5.463  1.2332  1.8114  1.7763
  544TIP3   OH2 1567   4.624   2.199   0.708 -0.5580 -0.0763 -0.0816
  544TIP3    H1 1568   4.541   2.242   0.688  0.3293  1.6485 -0.1314
  544TIP3    H2 1569   4.679   2.216   0.631  0.7955  1.2761  1.1439
  545TIP3   OH2 1570   0.870   6.788   5.927  0.1196  0.7630  0.3276
  545TIP3    H1 1571   0.882   6.881   5.945 -1.5906  1.0162  0.2300
  545TIP3    H2 1572   0.782   6.782   5.889  0.1709 -0.9001  0.4365
  546TIP3   OH2 1573   8.285   1.164   0.569 -0.2063  0.1167 -0.1891
  546TIP3    H1 1574   8.255   1.161   0.478  0.8254  0.3039 -0.5365
  546TIP3    H2 1575   8.375   1.133   0.566  0.5650  2.2265  0.4599
  547TIP3   OH2 1576   5.007   1.896   0.559  0.7624 -0.2381 -0.1921
  547TIP3    H1 1577   4.983   1.987   0.572  0.7308 -0.5885  2.6941
  547TIP3    H2 1578   4.926   1.853   0.532  0.7729  0.5645 -1.5379
  548TIP3   OH2 1579   5.177   0.966   0.155 -0.2436  0.4690 -0.5121
  548TIP3    H1 1580   5.199   0.887   0.205 -1.1294 -0.2388 -1.2249
  548TIP3    H2 1581   5.107   1.008   0.205  0.4162  0.9606  0.0120
  549TIP3   OH2 1582   6.013   1.565   0.852  0.2312  0.3428  0.7042
  549TIP3    H1 1583   6.070   1.489   0.843  0.8372  0.5250  2.8317
  549TIP3    H2 1584   6.072   1.640   0.849 -0.1902  0.6610  0.2728
  550TIP3   OH2 1585   5.035   1.087   1.038  0.9228 -0.2525 -0.2432
  550TIP3    H1 1586   4.979   1.070   1.113 -0.2072 -0.0536 -1.0328
  550TIP3    H2 1587   5.033   1.005   0.988  3.3889 -1.1461  1.0091
  551TIP3   OH2 1588   4.212   2.095   1.514 -0.1858  0.2947  0.0984
  551TIP3    H1 1589   4.250   2.180   1.535  0.4993  1.3815 -4.7880
  551TIP3    H2 1590   4.118   2.107   1.525  0.0598  1.0962  1.3291
  552TIP3   OH2 1591   3.240   3.153   0.443  0.4003  0.0699  0.4320
  552TIP3    H1 1592   3.246   3.220   0.375 -0.7233 -0.4966 -0.2500
  552TIP3    H2 1593   3.154   3.168   0.483  0.6577 -0.2040  1.0947
  553TIP3   OH2 1594   6.557   0.926   2.041  0.5044  0.1436 -0.1785
  553TIP3    H1 1595   6.635   0.926   2.096  1.2668 -1.8859 -1.2101
  553TIP3    H2 1596   6.585   0.965   1.959 -0.1671  1.4982  0.2232
  554TIP3   OH2 1597   4.649   1.755   2.301  0.0905 -0.0051  0.3515
  554TIP3    H1 1598   4.642   1.804   2.383  1.1220  0.2180  0.3106
  554TIP3    H2 1599   4.738   1.772   2.270 -0.8470  1.2768 -1.6988
  555TIP3   OH2 1600   6.323   2.592   4.530 -0.2266  0.1196  0.7709
  555TIP3    H1 1601   6.356   2.527   4.468 -2.6778 -1.5696  1.1672
  555TIP3    H2 1602   6.240   2.622   4.492  0.7132  2.8205  0.7594
  556TIP3   OH2 1603   5.155   2.491   0.631  0.2871 -1.0971  0.3998
  556TIP3    H1 1604   5.244   2.522   0.615 -0.5751  1.0838 -0.2867
  556TIP3    H2 1605   5.117   2.480   0.544 -0.5548 -0.6903  0.7080
  557TIP3   OH2 1606   5.398   1.115   0.261 -0.2846  0.2751  0.2921
  557TIP3    H1 1607   5.489   1.105   0.235 -0.3021 -0.2335  0.4063
  557TIP3    H2 1608   5.349   1.067   0.193 -0.4538  0.3912  0.3307
  558TIP3   OH2 1609   4.443   1.389   1.231 -0.1067  0.1561 -0.2242
  558TIP3    H1 1610   4.358   1.399   1.189 -0.0674 -0.3441 -0.4375
  558TIP3    H2 1611   4.505   1.388   1.158 -0.1614 -2.0971 -0.2861
  559TIP3   OH2 1612   1.412   7.556   1.967 -0.2442 -0.0603 -0.0954
  559TIP3    H1 1613   1.480   7.623   1.959 -0.0094 -0.4468 -1.4450
  559TIP3    H2 1614   1.340   7.589   1.913 -1.0106  0.1759  1.0424
  560TIP3   OH2 1615   3.917   2.352   4.119  0.8508 -0.3218 -0.6748
  560TIP3    H1 1616   3.880   2.289   4.057 -0.7101  0.5162 -0.6256
  560TIP3    H2 1617   3.873   2.333   4.202  2.1007 -0.7015 -0.1038
  561TIP3   OH2 1618   6.326   1.786   4.528  0.2474  0.0936 -0.2399
  561TIP3    H1 1619   6.287   1.765   4.444 -0.4927 -2.0043  0.5864
  561TIP3    H2 1620   6.351   1.878   4.521 -1.0746  0.3266 -2.2378
  562TIP3   OH2 1621   4.421   1.602   0.274 -0.2352 -0.2885  0.0651
  562TIP3    H1 1622   4.421   1.545   0.197 -0.6442 -0.2960  0.0711
  562TIP3    H2 1623   4.441   1.689   0.239  0.7317 -0.4904  0.0992
  563TIP3   OH2 1624   4.086   2.470   0.262  0.4985  0.7314  0.0957
  563TIP3    H1 1625   4.030   2.414   0.316  1.7029 -0.1360  0.4729
  563TIP3    H2 1626   4.145   2.512   0.325  2.7636 -1.2807 -0.6445
  564TIP3   OH2 1627   6.112   2.887   0.229  0.2645 -0.3988  0.0496
  564TIP3    H1 1628   6.132   2.824   0.160  0.7253  0.8665 -0.9970
  564TIP3    H2 1629   6.106   2.971   0.183 -0.5165  0.2902  1.3958
  565TIP3   OH2 1630   5.658   4.105   1.237  0.0311 -0.9852 -0.5645
  565TIP3    H1 1631   5.713   4.122   1.314 -0.3058  2.1104 -0.9292
  565TIP3    H2 1632   5.621   4.019   1.253  1.6659 -1.3267  1.7178
  566TIP3   OH2 1633   4.625   2.009   0.170  0.1885 -0.0256 -0.1285
  566TIP3    H1 1634   4.577   1.928   0.187 -1.5971  1.4181  2.0602
  566TIP3    H2 1635   4.616   2.022   0.076 -0.5402 -1.7404 -0.3208
  567TIP3   OH2 1636   6.002   4.143   1.093  0.3040 -0.3140  0.2969
  567TIP3    H1 1637   6.084   4.175   1.131 -0.6464  0.3865  1.7563
  567TIP3    H2 1638   5.990   4.056   1.132  0.4048 -0.4612  0.0005
  568TIP3   OH2 1639   7.749   2.681   1.287 -0.3687  0.0307  0.0864
  568TIP3    H1 1640   7.661   2.657   1.257 -0.6628  2.0107 -0.6648
  568TIP3    H2 1641   7.745   2.668   1.382 -2.0641  1.7830  0.3013
  569TIP3   OH2 1642   5.975   2.865   2.485  0.3954  0.3068  0.0624
  569TIP3    H1 1643   5.890   2.897   2.513  1.0898  0.7126  1.7982
  569TIP3    H2 1644   5.988   2.903   2.398 -2.2755 -1.8305 -1.3667
  570TIP3   OH2 1645   1.201   7.567   6.719 -0.0193 -0.6588  0.2138
  570TIP3    H1 1646   1.255   7.546   6.643  0.5989  0.7084  0.2521
  570TIP3    H2 1647   1.252   7.631   6.767 -0.9459 -0.6090  1.1428
  571TIP3   OH2 1648   5.923   2.239   1.246  0.1762 -0.4016  0.8031
  571TIP3    H1 1649   5.859   2.188   1.196  0.4595 -0.0315  0.0576
  571TIP3    H2 1650   6.004   2.188   1.241  0.4117  0.0292  0.2083
  572TIP3   OH2 1651   5.354   0.798   3.130 -0.3242  0.0796 -0.0692
  572TIP3    H1 1652   5.339   0.714   3.172  2.3013 -0.0814  0.6403
  572TIP3    H2 1653   5.420   0.779   3.063  0.0133  1.4918 -0.1465
  573TIP3   OH2 1654   5.298   1.349   0.579  0.7398 -0.1299  0.3984
  573TIP3    H1 1655   5.333   1.368   0.492  1.0130  0.9918  0.7409
  573TIP3    H2 1656   5.219   1.297   0.562  1.2531 -0.6435 -0.4772
  574TIP3   OH2 1657   5.114   0.493   0.254  0.0617 -0.6699  0.7667
  574TIP3    H1 1658   5.159   0.575   0.233  0.0870 -0.4066  1.8506
  574TIP3    H2 1659   5.165   0.426   0.209 -0.9850  0.0644 -1.6303
  575TIP3   OH2 1660   5.683   1.260   3.025 -0.2734  0.1364 -0.2276
  575TIP3    H1 1661   5.646   1.345   3.047 -1.4570  0.3595 -2.8829
  575TIP3    H2 1662   5.610   1.199   3.032  0.0552 -0.2921 -0.4637
  576TIP3   OH2 1663   5.127   0.912   2.991  0.0288  0.2914 -0.3702
  576TIP3    H1 1664   5.068   0.843   2.961  0.2706 -0.0558 -0.0497
  576TIP3    H2 1665   5.190   0.867   3.047 -0.9186  1.0548  1.3711
  577TIP3   OH2 1666   5.801   0.877   3.113  0.6380  0.5022  0.0497
  577TIP3    H1 1667   5.817   0.932   3.190 -1.0825 -1.1523  1.6616
  577TIP3    H2 1668   5.856   0.800   3.128 -0.9416 -0.5709  0.5012
  578TIP3   OH2 1669   6.970   2.070   1.803 -0.3925 -0.1613 -0.2456
  578TIP3    H1 1670   7.041   2.011   1.828 -0.3530 -0.2640 -0.6011
  578TIP3    H2 1671   6.966   2.065   1.708  1.8160  2.9529 -0.5911
  579TIP3   OH2 1672   7.289   2.777   0.207 -0.4020 -0.3222  0.8218
  579TIP3    H1 1673   7.267   2.693   0.168  0.4790  0.1233 -0.6658
  579TIP3    H2 1674   7.211   2.831   0.195 -0.0736 -0.1344 -0.4901
  580TIP3   OH2 1675   5.186   1.340   0.264  0.3029  0.8639 -0.2436
  580TIP3    H1 1676   5.228   1.255   0.254  1.4655  1.5459 -1.3245
  580TIP3    H2 1677   5.100   1.329   0.224  0.6452  0.3419 -0.8504
  581TIP3   OH2 1678   6.159   2.021   1.202 -0.4382 -0.3249 -0.3322
  581TIP3    H1 1679   6.247   2.005   1.235 -0.7554 -1.4520 -0.0158
  581TIP3    H2 1680   6.159   1.984   1.114 -0.6203 -0.4063 -0.2984
  582TIP3   OH2 1681   1.175   6.523   1.920 -0.1098 -0.8639 -0.0064
  582TIP3    H1 1682   1.097   6.473   1.944 -2.2904  2.7736  0.9179
  582TIP3    H2 1683   1.179   6.517   1.824 -2.6888  0.4769 -0.2290
  583TIP3   OH2 1684   2.120   6.405   6.286  0.0205  0.1412  0.0476
  583TIP3    H1 1685   2.114   6.414   6.381  0.8979  1.6982 -0.0278
  583TIP3    H2 1686   2.115   6.311   6.270  2.2712 -0.3354  1.8428
  584TIP3   OH2 1687   7.837   4.078   6.717  0.5856  0.3557 -0.9307
  584TIP3    H1 1688   7.793   4.074   6.802  0.8393  2.8078 -0.6678
  584TIP3    H2 1689   7.930   4.063   6.738  0.6231  0.7632 -0.8046
  585TIP3   OH2 1690   4.081   1.402   0.839 -0.0627  0.3978 -0.0285
  585TIP3    H1 1691   4.084   1.336   0.908 -0.0926 -0.5173 -0.8772
  585TIP3    H2 1692   4.064   1.484   0.884  1.5489  0.0690  1.2024
  586TIP3   OH2 1693   5.383   3.368   1.899 -0.3264 -0.6021 -0.0638
  586TIP3    H1 1694   5.464   3.321   1.920 -0.9045 -1.6029 -0.0280
  586TIP3    H2 1695   5.315   3.319   1.946 -0.6227  1.8909  2.2519
  587TIP3   OH2 1696   4.717   3.797   3.442  0.1061  0.2779 -0.7874
  587TIP3    H1 1697   4.671   3.823   3.522 -2.5944  0.1071 -2.1990
  587TIP3    H2 1698   4.798   3.757   3.472 -0.1031  1.6803  1.7874
  588TIP3   OH2 1699   4.952   2.158   0.562 -0.5721  0.3195 -0.0631
  588TIP3    H1 1700   4.893   2.137   0.489  0.9494  0.5536 -1.3817
  588TIP3    H2 1701   4.974   2.250   0.549  0.7711 -0.0012 -0.0713
  589TIP3   OH2 1702   5.851   4.710   0.159  0.6170  0.1881 -0.0719
  589TIP3    H1 1703   5.792   4.636   0.175 -0.7795  1.1083 -0.8140
  589TIP3    H2 1704   5.796   4.774   0.113  2.4746  0.6566 -1.6684
  590TIP3   OH2 1705   4.962   1.709   0.295  0.0953 -0.4031  0.0194
  590TIP3    H1 1706   5.050   1.673   0.295 -0.1053 -1.0631  2.9045
  590TIP3    H2 1707   4.908   1.644   0.249  0.8077 -0.8064 -0.2443
  591TIP3   OH2 1708   1.192   6.544   6.908 -0.1818  0.1214  0.1563
  591TIP3    H1 1709   1.162   6.627   6.873 -0.9923 -0.5334 -0.7302
  591TIP3    H2 1710   1.152   6.539   6.995 -1.1305  0.1239 -0.2657
  592TIP3   OH2 1711   6.653   2.162   1.203 -0.2194 -0.0312 -0.4627
  592TIP3    H1 1712   6.685   2.124   1.286 -0.7674  2.4253  0.9164
  592TIP3    H2 1713   6.692   2.107   1.135  0.0233 -2.2820  1.4206
  593TIP3   OH2 1714   4.678   0.034   6.319  0.0689  0.6375  0.7806
  593TIP3    H1 1715   4.655  -0.057   6.342  2.3603  0.4360  2.4857
  593TIP3    H2 1716   4.597   0.083   6.332 -0.6529 -0.8280  1.9841
  594TIP3   OH2 1717   5.729   4.524   1.805  0.2440  0.0135  0.2844
  594TIP3    H1 1718   5.682   4.531   1.888  0.3251  0.7902  0.2697
  594TIP3    H2 1719   5.771   4.609   1.794 -1.5598  0.7058 -1.6280
  595TIP3   OH2 1720   0.723   5.900   6.460 -0.3067 -0.0865  0.5048
  595TIP3    H1 1721   0.815   5.923   6.470 -0.2313  0.7106 -1.6158
  595TIP3    H2 1722   0.678   5.983   6.445 -0.9106 -0.7187 -1.3963
  596TIP3   OH2 1723   4.608   3.037   0.404  0.0137 -0.4510  0.6631
  596TIP3    H1 1724   4.531   3.093   0.395  0.1018 -0.3859  0.2970
  596TIP3    H2 1725   4.577   2.949   0.385  0.3191 -0.2410 -0.9346
  597TIP3   OH2 1726   7.829   5.231   6.812  0.1474 -0.0418 -0.1662
  597TIP3    H1 1727   7.908   5.177   6.819  0.1068 -0.5651 -3.1205
  597TIP3    H2 1728   7.758   5.168   6.797 -0.2221  0.6763 -1.5011
  598TIP3   OH2 1729   5.992   1.985   1.598  0.5687  0.1140 -0.0793
  598TIP3    H1 1730   6.068   1.987   1.539 -0.3779  1.3197 -1.2997
  598TIP3    H2 1731   5.931   2.049   1.560 -1.4435 -1.4886  0.3470
  599TIP3   OH2 1732   6.219   0.647   3.087 -1.0212 -0.4521 -0.0024
  599TIP3    H1 1733   6.276   0.668   3.161 -1.9558  2.4209 -0.0555
  599TIP3    H2 1734   6.267   0.580   3.038  1.7883  1.0981  0.5593
  600TIP3   OH2 1735   2.573   0.344   6.538 -0.1720 -0.3448 -0.0255
  600TIP3    H1 1736   2.571   0.394   6.620 -1.1112 -0.2070 -0.1208
  600TIP3    H2 1737   2.525   0.264   6.558 -1.2779  0.1286 -0.7139
  601TIP3   OH2 1738   5.063   1.510   1.026 -0.2029  0.4676  0.6402
  601TIP3    H1 1739   5.052   1.531   1.118  2.3778 -0.6972  1.2711
  601TIP3    H2 1740   5.134   1.567   0.996  0.3398 -0.5395 -0.0743
  602TIP3   OH2 1741   5.271   2.689   1.768  0.0318  0.1255  0.1443
  602TIP3    H1 1742   5.234   2.615   1.719 -0.8268  1.1979 -0.8331
  602TIP3    H2 1743   5.220   2.765   1.741  2.1670  1.4346 -0.3173
  603TIP3   OH2 1744   3.613   0.758   0.774 -0.0622 -0.1377 -0.0548
  603TIP3    H1 1745   3.613   0.773   0.679  0.0835 -1.1487 -0.2141
  603TIP3    H2 1746   3.634   0.844   0.811 -1.2330  0.5261 -0.8958
  604TIP3   OH2 1747   1.793   7.953   4.419 -0.1910 -0.1112 -0.0205
  604TIP3    H1 1748   1.828   7.940   4.331 -0.3439 -2.3365  0.2379
  604TIP3    H2 1749   1.806   7.869   4.463 -0.4906  0.8585  1.9565
  605TIP3   OH2 1750   6.972   1.207   1.703 -0.4756 -0.0464  0.0846
  605TIP3    H1 1751   7.003   1.290   1.739 -1.9283  0.7210 -0.4007
  605TIP3    H2 1752   6.928   1.230   1.621 -3.7738 -0.8384  1.5245
  606TIP3   OH2 1753   0.297   7.121   6.261 -0.4385  0.1611 -0.3854
  606TIP3    H1 1754   0.297   7.096   6.168  0.2927 -2.0618  0.2010
  606TIP3    H2 1755   0.390   7.134   6.282 -0.5795  0.3451  0.1264
  607TIP3   OH2 1756   2.305   7.507   6.004 -0.8147 -0.6166 -0.6661
  607TIP3    H1 1757   2.392   7.509   6.044 -0.5048  0.5456 -1.3679
  607TIP3    H2 1758   2.286   7.599   5.984 -1.5832 -1.0158 -1.8396
  608TIP3   OH2 1759   6.421   1.040   3.231  0.0361  0.1698 -0.5761
  608TIP3    H1 1760   6.432   1.131   3.258  1.1802  0.2664 -1.2922
  608TIP3    H2 1761   6.510   1.012   3.209 -0.4243 -0.8821 -1.0952
  609TIP3   OH2 1762   1.717   5.658   6.900 -0.2118  0.1524 -0.1737
  609TIP3    H1 1763   1.736   5.684   6.810 -0.1677 -1.3681 -0.6182
  609TIP3    H2 1764   1.683   5.737   6.942  0.8475  1.1757 -1.2042
  610TIP3   OH2 1765   7.534   3.362   0.596  0.8443  0.4775  0.3534
  610TIP3    H1 1766   7.452   3.412   0.595  0.5405 -0.0172 -0.0114
  610TIP3    H2 1767   7.581   3.394   0.673  1.3914  2.4582 -0.7821
  611TIP3   OH2 1768   2.862   6.578   5.817  0.6506  0.5569  0.2479
  611TIP3    H1 1769   2.767   6.567   5.809  0.5608  0.8667  0.8402
  611TIP3    H2 1770   2.883   6.650   5.757  0.7850 -0.6976 -1.2499
  612TIP3   OH2 1771   6.922   2.297   1.453  0.2386 -0.3177  0.1489
  612TIP3    H1 1772   6.910   2.285   1.358  0.5583 -2.1676  0.3146
  612TIP3    H2 1773   6.882   2.219   1.492  3.1976 -1.3358  1.2935
  613TIP3   OH2 1774   7.689   0.925   1.199  0.3060 -0.2655 -0.1596
  613TIP3    H1 1775   7.779   0.943   1.172 -0.1817 -0.1919 -1.7911
  613TIP3    H2 1776   7.676   0.832   1.180 -0.8587  0.3671 -2.6693
  614TIP3   OH2 1777   5.312   1.586   2.896 -0.1293  0.4260  0.1370
  614TIP3    H1 1778   5.395   1.561   2.856 -0.3466  0.0891 -0.1025
  614TIP3    H2 1779   5.257   1.612   2.823 -0.2853  0.5125  0.2847
  615TIP3   OH2 1780   1.046   2.660   1.231  0.1530 -1.0260  0.3198
  615TIP3    H1 1781   1.001   2.582   1.262 -1.9084 -0.9964 -2.3999
  615TIP3    H2 1782   1.012   2.731   1.285 -0.0231 -1.6049  0.9678
  616TIP3   OH2 1783   7.439   2.700   2.240 -0.1055 -0.5655  0.2816
  616TIP3    H1 1784   7.521   2.658   2.216  0.1971  0.0400  0.2611
  616TIP3    H2 1785   7.372   2.649   2.193  0.2109 -1.3330  0.6584
  617TIP3   OH2 1786   7.216   2.287   0.643  0.4060 -0.2201 -0.1026
  617TIP3    H1 1787   7.284   2.317   0.582  0.1261  1.0478  0.1970
  617TIP3    H2 1788   7.134   2.319   0.604  0.1643 -0.0392  0.5545
  618TIP3   OH2 1789   7.742   4.067   1.312 -0.1780  0.7187  0.4103
  618TIP3    H1 1790   7.738   4.111   1.397  2.7902  2.0343 -0.0599
  618TIP3    H2 1791   7.770   4.136   1.251  1.4385 -1.0509 -0.9052
  619TIP3   OH2 1792   1.819   7.741   6.173 -0.1306  0.3409  1.0204
  619TIP3    H1 1793   1.770   7.780   6.246 -1.9079  0.2643 -0.1121
  619TIP3    H2 1794   1.760   7.675   6.136  1.3279 -0.6643  0.4276
  620TIP3   OH2 1795   4.455   2.875   1.589  0.1373 -0.0389 -0.0031
  620TIP3    H1 1796   4.440   2.792   1.634  0.3634  0.2738  0.6493
  620TIP3    H2 1797   4.502   2.850   1.509 -0.2949 -0.5957 -0.0904
  621TIP3   OH2 1798   0.844   4.178   3.337 -0.5361 -0.3989 -0.7387
  621TIP3    H1 1799   0.915   4.113   3.344  0.1628  0.4052 -0.1728
  621TIP3    H2 1800   0.843   4.221   3.423 -0.5887  0.7445 -1.3079
  622TIP3   OH2 1801   5.174   2.375   2.746  0.2106 -0.7278  0.8581
  622TIP3    H1 1802   5.081   2.391   2.758  0.5910  1.2673  1.3706
  622TIP3    H2 1803   5.194   2.302   2.804 -1.2095 -1.8027  0.0179
  623TIP3   OH2 1804   5.141   1.545   3.465 -0.5905 -0.2097 -0.6434
  623TIP3    H1 1805   5.100   1.547   3.378 -0.0996  0.5457 -0.8668
  623TIP3    H2 1806   5.166   1.454   3.477 -0.3003 -0.2506 -1.4762
  624TIP3   OH2 1807   0.062   2.466   0.947 -0.7685  0.3209 -0.1373
  624TIP3    H1 1808   0.035   2.554   0.921  0.1674  0.5294 -0.4286
  624TIP3    H2 1809   0.151   2.477   0.983 -0.5245 -0.5410 -0.4489
  625TIP3   OH2 1810   5.440   4.111   2.301  0.7254  0.5767  0.0369
  625TIP3    H1 1811   5.391   4.148   2.375  2.7067  1.5822  0.8787
  625TIP3    H2 1812   5.477   4.030   2.336 -0.1819 -0.0873 -0.5395
  626TIP3   OH2 1813   7.056   2.767   1.616 -0.2039  0.2699  0.3308
  626TIP3    H1 1814   6.986   2.719   1.571 -1.2409  1.4530  0.6613
  626TIP3    H2 1815   7.023   2.779   1.705  0.9943 -0.3162  0.8699
  627TIP3   OH2 1816   8.329   7.931   6.006 -0.0473  0.1604  0.1771
  627TIP3    H1 1817   8.340   8.003   5.944 -0.9332 -0.9484 -1.3056
  627TIP3    H2 1818   8.343   7.852   5.954  1.4962 -0.7349  1.9171
  628TIP3   OH2 1819   1.414   6.289   5.938  0.5274  0.4966 -0.3903
  628TIP3    H1 1820   1.487   6.295   5.998  0.2528 -0.1321  0.0110
  628TIP3    H2 1821   1.438   6.218   5.877 -0.0136 -0.1420  0.1259
  629TIP3   OH2 1822   7.222   1.399   1.465 -0.3313 -0.1131  0.9009
  629TIP3    H1 1823   7.299   1.342   1.472  0.1453  0.5216  0.8182
  629TIP3    H2 1824   7.156   1.344   1.421  1.1590  0.4153 -2.1053
  630TIP3   OH2 1825   7.268   2.475   1.217  0.4523 -0.9433  0.0423
  630TIP3    H1 1826   7.303   2.548   1.166  0.7683 -1.3112 -0.2713
  630TIP3    H2 1827   7.178   2.465   1.186 -0.0988  0.3109  1.1836
  631TIP3   OH2 1828   6.744   3.396   0.462 -0.2754 -0.2477  0.1290
  631TIP3    H1 1829   6.836   3.421   0.457 -0.3752  0.3861  1.3397
  631TIP3    H2 1830   6.734   3.356   0.548 -1.2410  0.1111  0.1974
  632TIP3   OH2 1831   5.336   2.808   1.276 -0.6155  0.1205 -0.1276
  632TIP3    H1 1832   5.417   2.829   1.323 -0.2767 -1.8453  0.1895
  632TIP3    H2 1833   5.304   2.728   1.317 -2.4893  0.6244 -0.5600
  633TIP3   OH2 1834   6.419   3.813   1.084 -0.4874 -0.5578 -0.1730
  633TIP3    H1 1835   6.463   3.729   1.097  2.1692  0.9996  1.4013
  633TIP3    H2 1836   6.480   3.864   1.030 -2.3292  0.1816 -1.6299
  634TIP3   OH2 1837   2.638   0.132   6.714 -0.0146  0.4097  0.3476
  634TIP3    H1 1838   2.680   0.071   6.775  0.0293  0.7051  0.6176
  634TIP3    H2 1839   2.662   0.219   6.747 -1.8592  0.6014  1.2401
  635TIP3   OH2 1840   7.762   2.254   0.291 -0.0377  0.4128 -0.5162
  635TIP3    H1 1841   7.767   2.222   0.201  1.2450 -1.8300  0.3100
  635TIP3    H2 1842   7.688   2.208   0.329  0.2764  0.3115 -0.0231
  636TIP3   OH2 1843   1.813   6.768   6.412 -0.0108  0.2785 -0.2016
  636TIP3    H1 1844   1.870   6.824   6.464 -0.0882  0.6790 -0.5457
  636TIP3    H2 1845   1.872   6.708   6.367  0.1422  0.7160 -0.5851
  637TIP3   OH2 1846   1.823   2.885   1.103  0.1832 -0.1618 -0.4444
  637TIP3    H1 1847   1.759   2.873   1.033 -0.9559  0.2578  0.5056
  637TIP3    H2 1848   1.822   2.803   1.152 -0.2594  0.1343  0.0619
  638TIP3   OH2 1849   1.126   3.649   1.142 -0.2020 -0.4842 -0.3954
  638TIP3    H1 1850   1.106   3.666   1.050 -1.0463 -0.4164 -0.2020
  638TIP3    H2 1851   1.110   3.555   1.152 -4.0427  0.2186  0.6445
  639TIP3   OH2 1852   0.074   2.992   1.733 -0.1297 -0.4202 -0.3707
  639TIP3    H1 1853   0.032   2.905   1.730  0.9340 -0.9194 -1.1561
  639TIP3    H2 1854   0.001   3.053   1.739 -0.9094 -1.3661 -0.0405
  640TIP3   OH2 1855   1.099   5.218   3.199  0.5124  0.0345  0.1775
  640TIP3    H1 1856   1.091   5.256   3.111 -1.1743 -3.0308 -1.1154
  640TIP3    H2 1857   1.189   5.185   3.203  0.2323 -0.9408 -0.9566
  641TIP3   OH2 1858   2.288   3.912   4.339  0.5449 -0.2761 -0.2571
  641TIP3    H1 1859   2.258   3.830   4.378  1.2015  0.2928  1.4948
  641TIP3    H2 1860   2.208   3.957   4.312  0.0217 -0.2600  1.3028
  642TIP3   OH2 1861   1.329   2.227   1.657 -0.2548 -0.7423  0.0861
  642TIP3    H1 1862   1.378   2.232   1.575  0.9957 -0.7197  0.8306
  642TIP3    H2 1863   1.360   2.147   1.699 -0.8608 -0.7334  0.5691
  643TIP3   OH2 1864   7.602   2.671   3.463 -0.3505  0.7265  0.0641
  643TIP3    H1 1865   7.537   2.627   3.408  0.6382  0.8921 -1.2668
  643TIP3    H2 1866   7.610   2.615   3.540 -0.0477 -0.7646 -1.0262
  644TIP3   OH2 1867   8.396   4.912   4.459 -0.4297 -0.2324  0.3287
  644TIP3    H1 1868   8.306   4.943   4.465 -0.3644 -0.3364  1.8599
  644TIP3    H2 1869   8.388   4.817   4.455 -0.4392 -0.1951 -0.8755
  645TIP3   OH2 1870   2.291   3.185   2.661  0.6983 -0.5372 -0.3837
  645TIP3    H1 1871   2.251   3.124   2.598  1.4731  0.5518 -1.9794
  645TIP3    H2 1872   2.385   3.168   2.654  0.9689  1.1896 -1.2488
  646TIP3   OH2 1873   7.509   3.299   1.478 -0.3352  0.2473 -0.1043
  646TIP3    H1 1874   7.522   3.388   1.445  0.8767  0.2612  0.4032
  646TIP3    H2 1875   7.525   3.243   1.401 -0.2468  0.4167 -0.2095
  647TIP3   OH2 1876   1.020   2.916   1.580  0.1461  0.0247  0.1478
  647TIP3    H1 1877   1.028   2.880   1.668 -0.8473  1.2992  0.7743
  647TIP3    H2 1878   1.027   3.011   1.592  2.6434  0.0900 -1.4489
  648TIP3   OH2 1879   0.330   4.529   1.158 -0.5033 -0.0324 -0.2972
  648TIP3    H1 1880   0.320   4.463   1.227  0.4520 -0.0101 -0.1251
  648TIP3    H2 1881   0.301   4.611   1.199  0.8967  0.1408  0.3802
  649TIP3   OH2 1882   1.715   2.751   0.678  0.0750 -0.0839  0.1286
  649TIP3    H1 1883   1.731   2.836   0.719  0.8270 -0.7027  1.1678
  649TIP3    H2 1884   1.699   2.692   0.752 -3.1933 -0.3095 -0.7124
  650TIP3   OH2 1885   6.639   1.700   0.845 -0.1204 -0.6534 -0.4766
  650TIP3    H1 1886   6.611   1.648   0.770 -0.5018  0.4623 -1.1103
  650TIP3    H2 1887   6.663   1.785   0.809  0.5218 -0.3805  0.5535
  651TIP3   OH2 1888   5.825   2.242   6.578 -0.3862  0.7249  0.5952
  651TIP3    H1 1889   5.770   2.170   6.547  0.4906  0.5937 -0.7020
  651TIP3    H2 1890   5.797   2.256   6.668 -0.4307 -1.3878  0.9359
  652TIP3   OH2 1891   7.880   5.146   1.212  0.7409 -0.4874 -0.9874
  652TIP3    H1 1892   7.791   5.166   1.239  1.1947 -0.1143  0.3081
  652TIP3    H2 1893   7.896   5.201   1.135 -0.3408 -1.0225 -1.6034
  653TIP3   OH2 1894   2.678   2.414   3.051  0.0057  0.4243 -0.1297
  653TIP3    H1 1895   2.674   2.417   2.956  0.7933  1.4239 -0.1358
  653TIP3    H2 1896   2.595   2.452   3.080 -0.9363 -1.3455 -0.4101
  654TIP3   OH2 1897   8.385   5.606   2.412 -0.1523 -0.1432 -0.2982
  654TIP3    H1 1898   8.408   5.697   2.393  0.4317 -0.6074 -1.9139
  654TIP3    H2 1899   8.448   5.579   2.479 -0.8150  0.8634  0.7425
  655TIP3   OH2 1900   6.835   1.654   2.828  0.3818  0.1239 -0.6048
  655TIP3    H1 1901   6.872   1.569   2.805  1.7960  0.5984 -0.1433
  655TIP3    H2 1902   6.840   1.658   2.923  1.2322  1.1173 -0.6824
  656TIP3   OH2 1903   0.280   4.749   1.676  0.0937 -0.2045  0.2864
  656TIP3    H1 1904   0.305   4.666   1.636  0.9959  0.8605 -1.4314
  656TIP3    H2 1905   0.363   4.787   1.706 -0.1557  0.6463 -0.0834
  657TIP3   OH2 1906   1.939   3.282   3.320  1.0601 -0.2524  0.1655
  657TIP3    H1 1907   1.896   3.324   3.394  1.3576  2.4596 -1.1665
  657TIP3    H2 1908   2.019   3.245   3.356  0.1994 -0.7664  1.5980
  658TIP3   OH2 1909   1.274   1.527   1.691 -0.0813 -0.2999 -0.3979
  658TIP3    H1 1910   1.214   1.470   1.642 -1.2823  0.8216 -0.2839
  658TIP3    H2 1911   1.260   1.504   1.782 -1.1709  0.7068 -0.2920
  659TIP3   OH2 1912   7.732   3.353   1.638 -0.0377  0.0910  0.2910
  659TIP3    H1 1913   7.642   3.342   1.605 -0.7907 -0.3657  2.3764
  659TIP3    H2 1914   7.748   3.273   1.688 -0.0194  1.9575  3.3651
  660TIP3   OH2 1915   1.703   4.020   0.700 -0.8493 -0.3131  0.2466
  660TIP3    H1 1916   1.649   3.945   0.725  1.1695 -0.8384  3.3982
  660TIP3    H2 1917   1.640   4.089   0.678 -2.7319 -2.4230 -1.2190
  661TIP3   OH2 1918   0.527   4.559   3.778 -0.6301  0.0698 -0.2617
  661TIP3    H1 1919   0.610   4.590   3.742 -0.0084 -1.9386 -0.6572
  661TIP3    H2 1920   0.461   4.616   3.739  0.4820  1.0685 -0.7081
  662TIP3   OH2 1921   0.769   2.597   1.651  0.1722  0.1837  0.5843
  662TIP3    H1 1922   0.713   2.520   1.661 -0.5781  0.9634  2.6631
  662TIP3    H2 1923   0.709   2.670   1.636  0.7810  0.6260  0.2684
  663TIP3   OH2 1924   1.583   3.072   3.079  0.0631 -0.1174 -0.6000
  663TIP3    H1 1925   1.666   3.120   3.088  0.2332 -0.6066  0.4808
  663TIP3    H2 1926   1.604   2.998   3.023 -0.2497  1.1672 -2.4593
  664TIP3   OH2 1927   0.382   2.065   1.334  0.1869  0.1417 -0.6370
  664TIP3    H1 1928   0.312   2.083   1.397  2.0190 -0.0506  1.5252
  664TIP3    H2 1929   0.354   1.985   1.289 -1.4746  0.6604 -0.5457
  665TIP3   OH2 1930   0.569   3.588   3.370 -0.1895  0.1324 -0.3790
  665TIP3    H1 1931   0.504   3.523   3.345  0.9920 -1.6708  1.0809
  665TIP3    H2 1932   0.652   3.540   3.371  0.8633  1.8911 -0.2376
  666TIP3   OH2 1933   7.655   4.402   1.560  0.2996 -0.3657  0.0179
  666TIP3    H1 1934   7.593   4.435   1.495  0.0644 -0.5117  0.1679
  666TIP3    H2 1935   7.608   4.407   1.643  0.1982 -1.2426  0.0211
  667TIP3   OH2 1936   0.421   3.345   4.521  0.0124 -0.5773  0.4612
  667TIP3    H1 1937   0.383   3.258   4.529  0.3286 -0.9155 -1.3980
  667TIP3    H2 1938   0.346   3.403   4.511 -0.1620 -0.7556  0.7389
  668TIP3   OH2 1939   1.553   2.941   2.225 -0.2096 -0.1534 -0.0910
  668TIP3    H1 1940   1.570   2.969   2.135  0.5818 -0.0628  0.0839
  668TIP3    H2 1941   1.479   2.995   2.253 -0.5314 -0.2586 -0.7220
  669TIP3   OH2 1942   7.783   4.006   0.593 -0.0406  0.4241  0.1485
  669TIP3    H1 1943   7.704   3.975   0.551 -0.9369 -0.0980  2.1513
  669TIP3    H2 1944   7.783   3.963   0.679  2.2212  0.6830  0.3193
  670TIP3   OH2 1945   7.361   4.503   2.972  0.6015  0.0561 -0.3035
  670TIP3    H1 1946   7.434   4.446   2.999  0.9305  0.3735 -0.5178
  670TIP3    H2 1947   7.329   4.541   3.053 -0.0401 -0.9336 -0.0808
  671TIP3   OH2 1948   7.501   3.026   1.719  0.9656  0.2456 -0.1179
  671TIP3    H1 1949   7.469   3.113   1.695  1.8859  0.7201  0.3490
  671TIP3    H2 1950   7.432   2.989   1.773  0.9386  1.0251  0.3812
  672TIP3   OH2 1951   0.163   4.588   1.909  0.0523  0.0158  0.0474
  672TIP3    H1 1952   0.256   4.583   1.930  0.0028 -0.1443  0.2226
  672TIP3    H2 1953   0.125   4.510   1.948  0.1509 -0.8888 -1.5990
  673TIP3   OH2 1954   0.840   1.410   0.970  0.1438  0.3732  0.6618
  673TIP3    H1 1955   0.909   1.366   1.020 -0.3045  0.6738  1.5441
  673TIP3    H2 1956   0.883   1.488   0.934 -0.1247  1.4101  2.5178
  674TIP3   OH2 1957   4.629   1.532   6.069  0.7404  0.2107 -0.0214
  674TIP3    H1 1958   4.633   1.462   6.134  1.6382 -0.2010 -0.5170
  674TIP3    H2 1959   4.691   1.506   6.001  0.2327  0.9220 -0.7700
  675TIP3   OH2 1960   0.504   0.677   0.968  0.6793  0.4399 -0.1663
  675TIP3    H1 1961   0.570   0.744   0.986  2.4047 -1.1763 -0.4466
  675TIP3    H2 1962   0.514   0.657   0.875  1.0021 -1.0773  0.1804
  676TIP3   OH2 1963   0.648   2.452   1.372 -0.1233 -0.0588  0.6815
  676TIP3    H1 1964   0.656   2.524   1.434  1.0845 -1.2645  1.9287
  676TIP3    H2 1965   0.574   2.400   1.404  0.5581 -0.7320  1.1765
  677TIP3   OH2 1966   1.806   3.350   2.061  0.3856 -0.2110 -0.1808
  677TIP3    H1 1967   1.731   3.368   2.004  0.8404 -1.8471 -1.3300
  677TIP3    H2 1968   1.868   3.420   2.041  0.5526 -0.7835 -1.7301
  678TIP3   OH2 1969   4.467   5.961   6.391  0.3544 -0.0751  0.3844
  678TIP3    H1 1970   4.508   5.875   6.385  1.7371  0.7392 -3.3548
  678TIP3    H2 1971   4.532   6.015   6.437  0.8097 -0.3145  0.0281
  679TIP3   OH2 1972   0.618   3.202   2.343 -0.3343 -0.5704  0.2277
  679TIP3    H1 1973   0.554   3.137   2.314 -1.4341  0.7243 -0.2756
  679TIP3    H2 1974   0.689   3.195   2.279  0.0692 -2.0262  0.8042
  680TIP3   OH2 1975   3.023   6.389   5.315 -0.2735 -0.0404  0.4637
  680TIP3    H1 1976   3.104   6.365   5.359  0.7718  1.3241 -0.6579
  680TIP3    H2 1977   3.008   6.480   5.340 -0.1152  0.4908 -1.3081
  681TIP3   OH2 1978   2.141   2.701   2.683 -0.1378 -0.3372  0.8417
  681TIP3    H1 1979   2.233   2.722   2.694 -0.5387  0.3909  3.1899
  681TIP3    H2 1980   2.096   2.786   2.689 -0.9775 -0.6860 -0.2073
  682TIP3   OH2 1981   2.367   3.445   0.724 -0.0786  0.1741 -0.1022
  682TIP3    H1 1982   2.345   3.538   0.733  0.6917  0.2786  0.7453
  682TIP3    H2 1983   2.318   3.402   0.794 -1.2442 -0.2093 -1.1243
  683TIP3   OH2 1984   3.559   1.286   0.468 -1.0295  0.0871  0.7431
  683TIP3    H1 1985   3.578   1.372   0.504 -0.0996  0.8203 -1.3882
  683TIP3    H2 1986   3.532   1.303   0.377  0.4618 -1.9407 -0.1263
  684TIP3   OH2 1987   1.350   4.545   0.682 -0.4437 -0.2856 -0.4598
  684TIP3    H1 1988   1.409   4.517   0.751  1.5590  0.2560 -1.9005
  684TIP3    H2 1989   1.313   4.464   0.647  0.8430 -0.7506 -0.7448
  685TIP3   OH2 1990   1.718   0.986   1.846  0.5839  0.4345 -0.0833
  685TIP3    H1 1991   1.740   1.071   1.808 -0.9853  1.0285  0.3004
  685TIP3    H2 1992   1.645   0.954   1.793  0.5588 -0.2528  0.3548
  686TIP3   OH2 1993   5.782   5.224   6.821  0.2356 -0.1449  0.4978
  686TIP3    H1 1994   5.724   5.298   6.836 -2.0677 -2.2443  2.2551
  686TIP3    H2 1995   5.730   5.163   6.768  0.8266 -2.0195  2.0167
  687TIP3   OH2 1996   0.928   3.784   5.342  0.2340 -0.3420  0.0166
  687TIP3    H1 1997   0.926   3.689   5.354  0.5450  0.0001  3.2189
  687TIP3    H2 1998   0.838   3.812   5.356  0.0915 -0.1708 -1.1820
  688TIP3   OH2 1999   2.830   6.894   6.122  0.3070 -0.9881  0.6576
  688TIP3    H1 2000   2.802   6.918   6.033 -0.6282 -1.5684  0.7927
  688TIP3    H2 2001   2.866   6.975   6.158  0.5219 -0.7041 -0.1880
  689TIP3   OH2 2002   0.985   4.401   3.181  0.0092  0.4773  0.4195
  689TIP3    H1 2003   1.078   4.380   3.197  0.1448  1.1914  0.6087
  689TIP3    H2 2004   0.960   4.346   3.107  0.7610  0.7358 -0.0331
  690TIP3   OH2 2005   4.758   2.264   0.953 -0.1587 -0.3230 -0.0909
  690TIP3    H1 2006   4.708   2.257   0.872 -1.3920 -1.7367  0.7762
  690TIP3    H2 2007   4.838   2.214   0.936 -0.4051 -0.6043 -0.4238
  691TIP3   OH2 2008   4.281   0.696   1.856  0.6965  0.1029 -0.4240
  691TIP3    H1 2009   4.318   0.779   1.825  0.2324  0.7011  0.6002
  691TIP3    H2 2010   4.263   0.647   1.776  2.7406  0.2150 -0.9794
  692TIP3   OH2 2011   0.240   3.619   5.077  0.4447 -0.1125  0.2978
  692TIP3    H1 2012   0.288   3.566   5.013  0.2217 -0.2379  0.2339
  692TIP3    H2 2013   0.296   3.620   5.154  1.0028  0.5561 -0.1139
  693TIP3   OH2 2014   4.624   3.368   1.456 -0.3678 -0.1482  0.0933
  693TIP3    H1 2015   4.713   3.381   1.423 -0.5477 -0.5132 -0.5436
  693TIP3    H2 2016   4.624   3.278   1.488  0.4825  0.9209  3.2449
  694TIP3   OH2 2017   2.733   1.923   0.674  0.2699 -0.5479 -0.2283
  694TIP3    H1 2018   2.807   1.962   0.627  0.5737 -1.0666 -0.1854
  694TIP3    H2 2019   2.715   1.842   0.628 -1.7334  0.6350 -1.6113
  695TIP3   OH2 2020   4.101   7.546   4.851 -0.5071 -0.8207 -0.6100
  695TIP3    H1 2021   4.146   7.563   4.767  0.5113  0.0051  0.0927
  695TIP3    H2 2022   4.139   7.463   4.881  1.1988  0.2827  0.3841
  696TIP3   OH2 2023   1.597   3.249   0.955 -0.3562  0.0522 -0.4348
  696TIP3    H1 2024   1.519   3.300   0.977 -1.3412 -1.4804 -0.3040
  696TIP3    H2 2025   1.596   3.245   0.859  0.7715  1.8410 -0.5577
  697TIP3   OH2 2026   4.481   4.693   1.133 -0.4962  0.1052  1.1242
  697TIP3    H1 2027   4.548   4.639   1.092 -0.1275 -0.1487  2.0411
  697TIP3    H2 2028   4.401   4.673   1.084  0.0735  0.3598  0.0790
  698TIP3   OH2 2029   3.984   2.370   1.593  0.1535 -0.0851  0.0274
  698TIP3    H1 2030   3.993   2.356   1.687  2.5073  2.2376  0.2166
  698TIP3    H2 2031   4.042   2.444   1.574 -3.0238  1.8534 -2.6749
  699TIP3   OH2 2032   3.532   6.431   6.753  0.3419 -0.1536  0.1187
  699TIP3    H1 2033   3.465   6.402   6.691  0.7197 -1.0411  0.1113
  699TIP3    H2 2034   3.608   6.376   6.734  0.8353  0.3478  0.6059
  700TIP3   OH2 2035   2.044   3.551   2.867 -0.3255  0.6113 -0.1502
  700TIP3    H1 2036   2.105   3.615   2.904 -1.1995  1.4449 -0.1202
  700TIP3    H2 2037   2.093   3.509   2.797  1.0679 -0.3979  1.3942
  701TIP3   OH2 2038   1.222   2.415   3.176 -0.5397  0.2104 -0.3447
  701TIP3    H1 2039   1.291   2.356   3.205 -0.5832  0.6882  0.7249
  701TIP3    H2 2040   1.169   2.431   3.254 -1.9976 -0.3265 -1.1937
  702TIP3   OH2 2041   6.091   2.286   6.706 -0.0589 -1.0436  1.2490
  702TIP3    H1 2042   6.171   2.295   6.654 -0.1417  0.7990  1.4000
  702TIP3    H2 2043   6.026   2.252   6.646  0.2111 -0.2398  0.4904
  703TIP3   OH2 2044   1.288   3.503   0.134  0.0017  0.0911  0.8100
  703TIP3    H1 2045   1.294   3.464   0.047  0.4320 -0.6174  1.1567
  703TIP3    H2 2046   1.376   3.539   0.150 -0.1272  0.3808  0.8814
  704TIP3   OH2 2047   0.111   3.799   4.593  0.0905  0.1643 -0.2668
  704TIP3    H1 2048   0.060   3.876   4.571  1.5481  1.3941  0.5385
  704TIP3    H2 2049   0.128   3.757   4.509 -1.0955  0.4698 -0.6634
  705TIP3   OH2 2050   1.026   3.653   2.056  0.1248 -0.0657  0.1167
  705TIP3    H1 2051   1.013   3.656   2.151  0.2507 -1.0520  0.1629
  705TIP3    H2 2052   1.107   3.603   2.045  0.1424  0.1048 -0.5163
  706TIP3   OH2 2053   3.839   7.239   5.253 -0.2286  0.1493 -0.4885
  706TIP3    H1 2054   3.809   7.320   5.293  1.3344  0.3923  0.2139
  706TIP3    H2 2055   3.876   7.266   5.169  1.7255  0.3836  0.4285
  707TIP3   OH2 2056   0.047   4.875   2.345  0.8656  0.5102  0.3451
  707TIP3    H1 2057   0.132   4.893   2.304  0.6826 -0.7595 -0.6481
  707TIP3    H2 2058   0.069   4.825   2.423  0.9567 -1.5477 -0.9510
  708TIP3   OH2 2059   8.410   1.236   6.595 -0.3673 -0.4878  0.4664
  708TIP3    H1 2060   8.425   1.329   6.611 -0.6677 -0.0453 -1.6028
  708TIP3    H2 2061   8.497   1.197   6.591 -0.2404 -0.2854  1.2687
  709TIP3   OH2 2062   2.265   3.981   1.527 -0.0512 -0.1131  0.1670
  709TIP3    H1 2063   2.353   3.946   1.511 -0.4038 -0.5039 -0.9842
  709TIP3    H2 2064   2.216   3.959   1.448 -1.0651  0.5026  0.6146
  710TIP3   OH2 2065   0.918   2.424   1.364  0.3065  0.1603 -0.3807
  710TIP3    H1 2066   0.969   2.343   1.364  0.0649 -0.0853  3.3138
  710TIP3    H2 2067   0.827   2.395   1.364  0.2194  0.4041  0.5912
  711TIP3   OH2 2068   2.057   5.233   1.162  0.3759  0.2997  0.5266
  711TIP3    H1 2069   2.024   5.205   1.077 -0.9615  0.1738  1.0729
  711TIP3    H2 2070   2.030   5.163   1.222  3.0080 -0.5863  0.7350
  712TIP3   OH2 2071   0.403   5.339   1.729 -0.3125 -0.3817 -0.2822
  712TIP3    H1 2072   0.346   5.291   1.669  1.8336 -1.2966 -1.6578
  712TIP3    H2 2073   0.420   5.278   1.800  0.5007 -0.8247 -0.8475
  713TIP3   OH2 2074   8.446   4.712   0.331  0.2286 -0.2762  0.1618
  713TIP3    H1 2075   8.449   4.776   0.402  2.0033 -0.0902 -0.0561
  713TIP3    H2 2076   8.505   4.641   0.359 -0.3274 -0.9688 -0.3922
  714TIP3   OH2 2077   3.445   3.183   1.371  0.3495  0.0024  0.8505
  714TIP3    H1 2078   3.391   3.259   1.350  0.3839 -0.1821  0.0721
  714TIP3    H2 2079   3.385   3.124   1.417 -0.6987 -1.0506 -1.7253
  715TIP3   OH2 2080   2.448   3.922   1.150  0.5404  0.4365 -0.3634
  715TIP3    H1 2081   2.423   3.995   1.094  0.0849  0.2810 -0.3657
  715TIP3    H2 2082   2.416   3.844   1.103  3.7388 -0.0400 -1.9245
  716TIP3   OH2 2083   5.656   6.227   6.257  0.1550 -0.7226 -0.2632
  716TIP3    H1 2084   5.745   6.222   6.291  0.4639 -0.5589 -1.0507
  716TIP3    H2 2085   5.614   6.295   6.310  1.4722  1.5755 -2.0520
  717TIP3   OH2 2086   3.757   1.810   1.528 -0.0955  0.0384 -0.3607
  717TIP3    H1 2087   3.708   1.819   1.447 -1.2036 -0.3370  0.2536
  717TIP3    H2 2088   3.808   1.729   1.517 -1.1566 -0.6564 -0.2211
  718TIP3   OH2 2089   0.846   3.642   3.052 -0.4763 -0.0669 -0.0079
  718TIP3    H1 2090   0.782   3.627   2.982 -1.0930  0.4327  0.4419
  718TIP3    H2 2091   0.812   3.718   3.099  1.6265  1.6553 -1.1465
  719TIP3   OH2 2092   2.916   2.094   2.123 -0.4126  0.0627  0.0306
  719TIP3    H1 2093   2.886   2.069   2.211 -1.0278 -0.8211 -0.4299
  719TIP3    H2 2094   2.855   2.162   2.095  0.8766  1.6444  1.0240
  720TIP3   OH2 2095   2.404   3.644   1.609 -0.5562 -0.7820 -0.2790
  720TIP3    H1 2096   2.477   3.601   1.655  1.5864  0.1250 -2.7006
  720TIP3    H2 2097   2.399   3.731   1.650  1.2683 -0.0202 -1.5772
  721TIP3   OH2 2098   0.973   3.148   0.875  0.1850 -0.4139 -0.2374
  721TIP3    H1 2099   1.057   3.163   0.918  0.2567 -1.4415 -0.0154
  721TIP3    H2 2100   0.990   3.166   0.782 -0.2500  2.9612  0.2545
  722TIP3   OH2 2101   4.753   5.728   5.956  0.3004  0.0716  0.4102
  722TIP3    H1 2102   4.762   5.738   6.051 -0.3315  1.6972  0.3172
  722TIP3    H2 2103   4.682   5.665   5.945 -1.0568  1.4794  1.0040
  723TIP3   OH2 2104   5.622   6.377   6.021  0.3487 -0.0730 -0.2360
  723TIP3    H1 2105   5.636   6.326   6.100  0.2246 -0.4104 -0.4324
  723TIP3    H2 2106   5.543   6.428   6.038  0.8749  0.5992  0.2403
  724TIP3   OH2 2107   1.688   3.021   2.707 -0.3904  0.1729 -0.1259
  724TIP3    H1 2108   1.604   3.040   2.665  0.0618 -1.2763 -1.7363
  724TIP3    H2 2109   1.727   3.107   2.723 -1.3617  0.7959 -1.0444
  725TIP3   OH2 2110   1.048   2.395   2.730  0.3829 -0.1289  0.6077
  725TIP3    H1 2111   1.131   2.363   2.697  0.2660 -2.2886  2.3081
  725TIP3    H2 2112   0.985   2.326   2.710 -0.8694  1.1067  0.1098
  726TIP3   OH2 2113   5.313   5.218   6.499  0.7085 -0.6245  0.1510
  726TIP3    H1 2114   5.396   5.197   6.458  0.5651 -1.1859  0.1458
  726TIP3    H2 2115   5.335   5.283   6.566  0.9300  0.3499 -0.8416
  727TIP3   OH2 2116   3.174   1.000   2.122  0.0671 -0.7716  0.1500
  727TIP3    H1 2117   3.175   1.079   2.176  0.3317 -0.1923 -0.6927
  727TIP3    H2 2118   3.258   0.958   2.140 -0.7343 -1.6995  1.8117
  728TIP3   OH2 2119   0.603   3.838   2.371  0.0876  0.1879 -0.4577
  728TIP3    H1 2120   0.601   3.863   2.463  0.6370  2.1673 -0.9608
  728TIP3    H2 2121   0.542   3.898   2.328  0.7570  0.0810 -1.5848
  729TIP3   OH2 2122   0.363   4.313   5.155 -0.1560  0.2094  0.3482
  729TIP3    H1 2123   0.269   4.322   5.171  0.0206 -0.0138  1.5321
  729TIP3    H2 2124   0.404   4.341   5.236  0.8436  1.0594 -0.4359
  730TIP3   OH2 2125   5.105   7.117   5.608  0.0663 -0.0448 -0.1991
  730TIP3    H1 2126   5.111   7.106   5.513  0.0055  0.0755 -0.2166
  730TIP3    H2 2127   5.030   7.175   5.621 -0.1103 -0.3028 -0.0609
  731TIP3   OH2 2128   1.530   0.633   1.980 -0.1813  0.0091 -0.4473
  731TIP3    H1 2129   1.621   0.656   1.966  0.1139 -0.9642 -0.2026
  731TIP3    H2 2130   1.482   0.716   1.974  0.9264  0.8097  1.2861
  732TIP3   OH2 2131   4.269   4.272   2.110 -0.7448  0.5648 -0.2070
  732TIP3    H1 2132   4.252   4.210   2.039  2.3290 -1.0320  0.3610
  732TIP3    H2 2133   4.281   4.357   2.067  0.2338 -0.2353 -1.5279
  733TIP3   OH2 2134   1.315   5.189   1.891  0.5368 -0.8156 -0.0738
  733TIP3    H1 2135   1.386   5.151   1.839  0.0416 -2.1009  0.1729
  733TIP3    H2 2136   1.272   5.114   1.931  0.0353  0.0733  1.0770
  734TIP3   OH2 2137   0.613   3.879   2.695 -0.4265 -0.0614  0.5914
  734TIP3    H1 2138   0.606   3.886   2.790  1.6429  0.9119  0.7078
  734TIP3    H2 2139   0.577   3.793   2.675 -0.0087 -0.6787  2.3610
  735TIP3   OH2 2140   7.722   3.253   2.301 -0.0566  0.2008 -0.1840
  735TIP3    H1 2141   7.676   3.227   2.380  1.0867 -1.6751 -0.0889
  735TIP3    H2 2142   7.689   3.194   2.233  1.2995 -0.3660 -0.3719
  736TIP3   OH2 2143   2.183   3.440   2.669 -0.0363 -0.6603  1.1546
  736TIP3    H1 2144   2.242   3.366   2.679  1.6923  0.0401 -2.8301
  736TIP3    H2 2145   2.140   3.426   2.584  0.1752  2.7237  0.4074
  737TIP3   OH2 2146   1.486   4.514   2.436 -0.4434 -0.4373  0.5211
  737TIP3    H1 2147   1.392   4.493   2.435 -0.5611 -0.0236  2.0298
  737TIP3    H2 2148   1.516   4.488   2.523  0.9215 -0.8772 -0.0670
  738TIP3   OH2 2149   3.096   3.875   2.132  0.0364 -0.3376 -0.5753
  738TIP3    H1 2150   3.005   3.889   2.160  0.3360  0.4100  0.0283
  738TIP3    H2 2151   3.093   3.885   2.037 -0.8096 -1.9600 -0.7358
  739TIP3   OH2 2152   3.776   3.510   2.569  0.0748 -0.1739 -0.6200
  739TIP3    H1 2153   3.863   3.514   2.529 -0.1557 -0.1974 -1.1231
  739TIP3    H2 2154   3.765   3.595   2.612 -0.3077  0.4491 -1.9180
  740TIP3   OH2 2155   1.254   3.057   1.962 -0.3453  0.1804  0.1697
  740TIP3    H1 2156   1.346   3.084   1.961 -0.7223  1.4311 -1.0427
  740TIP3    H2 2157   1.257   2.962   1.955  0.8915  0.1225  1.3060
  741TIP3   OH2 2158   1.535   2.810   1.775 -0.0994  0.0176 -0.2585
  741TIP3    H1 2159   1.442   2.794   1.755 -0.2076  0.8108 -0.4192
  741TIP3    H2 2160   1.581   2.790   1.693 -0.5413  3.2449 -1.3784
  742TIP3   OH2 2161   1.329   1.149   0.073  0.3891  1.0083 -0.3650
  742TIP3    H1 2162   1.236   1.163   0.094  0.8925  2.1805  1.1746
  742TIP3    H2 2163   1.353   1.070   0.122  1.1089  2.7482  2.1660
  743TIP3   OH2 2164   0.505   4.150   0.279  0.4858  0.4474  0.4090
  743TIP3    H1 2165   0.428   4.114   0.236 -0.3640  1.9758  0.6292
  743TIP3    H2 2166   0.524   4.230   0.230  1.5705  0.4073  0.7465
  744TIP3   OH2 2167   3.537   6.439   1.886 -0.0706  0.3233 -0.2001
  744TIP3    H1 2168   3.633   6.439   1.891 -0.1345  1.8678  1.8414
  744TIP3    H2 2169   3.514   6.529   1.862 -1.0149 -0.0785 -0.8262
  745TIP3   OH2 2170   2.671   3.593   0.563 -0.0980  0.3431 -0.5172
  745TIP3    H1 2171   2.685   3.501   0.538  0.7071  0.5158 -0.6973
  745TIP3    H2 2172   2.758   3.632   0.563 -0.5835  1.5177 -2.0590
  746TIP3   OH2 2173   2.353   3.138   1.108  0.7910 -0.2091  0.1736
  746TIP3    H1 2174   2.329   3.178   1.024 -0.2311 -0.5567  0.2887
  746TIP3    H2 2175   2.301   3.057   1.111 -1.0119  0.9760  2.2275
  747TIP3   OH2 2176   3.122   5.096   0.392 -0.1809 -0.2920 -0.2847
  747TIP3    H1 2177   3.195   5.112   0.331 -0.1563 -0.7640 -0.3777
  747TIP3    H2 2178   3.081   5.016   0.359 -0.1895 -0.5264  0.3064
  748TIP3   OH2 2179   2.840   3.930   1.443  0.2947  0.2115 -0.0960
  748TIP3    H1 2180   2.811   3.891   1.361 -0.3672  0.8014 -0.1475
  748TIP3    H2 2181   2.911   3.990   1.418  0.9380 -0.5359 -0.0814
  749TIP3   OH2 2182   3.815   3.857   1.679  0.1044  0.3907 -0.7225
  749TIP3    H1 2183   3.754   3.912   1.630  0.9290  0.6852 -1.4228
  749TIP3    H2 2184   3.868   3.815   1.612 -1.7856 -2.7995 -0.3402
  750TIP3   OH2 2185   1.346   1.758   0.851 -0.2483 -0.2057 -0.2074
  750TIP3    H1 2186   1.438   1.769   0.825 -0.7768  1.9341 -1.3124
  750TIP3    H2 2187   1.320   1.673   0.816  1.3675 -0.9361  0.3213
  751TIP3   OH2 2188   3.999   7.903   4.357  0.1667 -0.1372 -0.6070
  751TIP3    H1 2189   4.020   7.942   4.273  0.7399  2.4921  0.7058
  751TIP3    H2 2190   3.923   7.953   4.389  0.0636 -0.9733  0.5333
  752TIP3   OH2 2191   1.490   5.006   1.252 -0.1922  0.3937  0.1237
  752TIP3    H1 2192   1.441   4.926   1.232 -0.0531  0.6463 -1.2658
  752TIP3    H2 2193   1.496   5.052   1.169  1.0053  1.1610  0.6227
  753TIP3   OH2 2194   1.242   3.601   0.823 -0.6690 -0.1060  0.1822
  753TIP3    H1 2195   1.184   3.529   0.797 -0.0575 -0.4724 -0.1696
  753TIP3    H2 2196   1.259   3.648   0.742  0.7688 -0.9038  0.0002
  754TIP3   OH2 2197   1.760   4.151   1.420  0.4878 -0.3905  0.8170
  754TIP3    H1 2198   1.797   4.093   1.487  2.6341  0.3752  0.3517
  754TIP3    H2 2199   1.720   4.222   1.469  3.4842  1.0191  1.3124
  755TIP3   OH2 2200   2.091   1.429   0.194  0.0440 -0.7251 -0.1170
  755TIP3    H1 2201   2.143   1.383   0.261 -2.1796 -1.1280  1.3917
  755TIP3    H2 2202   2.082   1.517   0.229  0.0662 -0.5412 -0.5820
  756TIP3   OH2 2203   3.179   2.913   1.030 -0.0915 -0.4123 -0.2849
  756TIP3    H1 2204   3.243   2.984   1.021  1.4978 -1.8546 -0.6579
  756TIP3    H2 2205   3.182   2.867   0.946 -2.3582  0.0769 -0.6667
  757TIP3   OH2 2206   2.227   4.210   0.706 -0.0819 -0.4287 -0.2461
  757TIP3    H1 2207   2.303   4.266   0.691  2.0772 -3.1756  0.0775
  757TIP3    H2 2208   2.227   4.193   0.801 -0.5397 -1.1809 -0.3705
  758TIP3   OH2 2209   1.011   3.800   0.852  0.2333 -0.2839 -0.0786
  758TIP3    H1 2210   1.078   3.864   0.826 -1.3255  0.6636 -1.9744
  758TIP3    H2 2211   1.045   3.716   0.821  1.7147 -0.2206  1.2997
  759TIP3   OH2 2212   7.388   5.739   3.137 -0.3909  0.8243  0.0381
  759TIP3    H1 2213   7.305   5.770   3.173 -0.1050  0.8591  0.6742
  759TIP3    H2 2214   7.412   5.665   3.192 -0.8769 -0.3151 -1.2318
  760TIP3   OH2 2215   2.040   4.078   2.413  0.4470  0.9354 -0.2871
  760TIP3    H1 2216   1.994   4.118   2.339 -0.6767 -0.3791 -0.3309
  760TIP3    H2 2217   1.977   4.016   2.449  1.5499  0.4302  0.8093
  761TIP3   OH2 2218   5.427   3.682   1.462 -0.4066 -0.0727 -0.7930
  761TIP3    H1 2219   5.493   3.637   1.410 -1.0258 -1.2388 -0.5851
  761TIP3    H2 2220   5.399   3.618   1.527 -2.4783  0.0356 -1.5282
  762TIP3   OH2 2221   5.854   5.846   4.894  0.2569 -0.8009  0.1718
  762TIP3    H1 2222   5.764   5.876   4.881 -0.1855 -1.8821  0.7297
  762TIP3    H2 2223   5.855   5.757   4.860  0.7627 -1.2955  1.4497
  763TIP3   OH2 2224   8.321   2.933   3.694 -0.6907  0.1296 -0.5161
  763TIP3    H1 2225   8.342   2.978   3.776  0.3409 -0.0875 -0.6491
  763TIP3    H2 2226   8.230   2.906   3.703  0.0368 -1.7617  1.4327
  764TIP3   OH2 2227   0.433   5.779   2.119  0.1208 -0.2003  0.4104
  764TIP3    H1 2228   0.447   5.855   2.177 -0.2862 -0.5482  0.9797
  764TIP3    H2 2229   0.501   5.786   2.053  0.9979 -0.1449  1.3041
  765TIP3   OH2 2230   3.846   0.364   2.916  0.4653 -0.5990 -0.5553
  765TIP3    H1 2231   3.911   0.379   2.985 -0.8179  1.9678  0.1346
  765TIP3    H2 2232   3.830   0.269   2.919  0.6734 -0.5842  2.4632
  766TIP3   OH2 2233   0.904   3.011   1.996 -0.4851  0.0609 -0.2092
  766TIP3    H1 2234   0.829   2.959   1.969 -0.6601  0.8586 -1.3208
  766TIP3    H2 2235   0.978   2.973   1.950 -0.3687 -0.1100  0.1168
  767TIP3   OH2 2236   1.954   1.789   1.134 -0.2354 -0.7055 -0.2139
  767TIP3    H1 2237   2.016   1.810   1.064  0.7961  1.5083  1.2807
  767TIP3    H2 2238   1.871   1.826   1.106  0.1049 -0.1001 -0.4397
  768TIP3   OH2 2239   3.566   1.714   0.366 -0.2228  0.4164  0.5206
  768TIP3    H1 2240   3.597   1.676   0.448  1.9282  1.6059  0.2779
  768TIP3    H2 2241   3.580   1.644   0.301 -0.7543 -0.0716  0.9235
  769TIP3   OH2 2242   2.490   1.491   1.131  0.6411 -0.6982  0.0511
  769TIP3    H1 2243   2.445   1.428   1.076 -3.5474  1.0243  1.3381
  769TIP3    H2 2244   2.512   1.442   1.210 -1.3292 -0.9253  0.4732
  770TIP3   OH2 2245   1.652   2.232   1.355 -0.3820 -0.2221  0.5114
  770TIP3    H1 2246   1.616   2.172   1.420 -2.8889  1.1536  0.4641
  770TIP3    H2 2247   1.588   2.230   1.283  1.5354 -0.5214 -1.2443
  771TIP3   OH2 2248   1.924   2.000   3.425  0.5070 -0.2280 -0.5031
  771TIP3    H1 2249   1.890   1.980   3.513  0.4736  2.8583  0.2202
  771TIP3    H2 2250   1.863   1.957   3.366 -1.1362  0.0737  0.9210
  772TIP3   OH2 2251   5.153   3.655   1.755  0.1359  0.0647  0.1141
  772TIP3    H1 2252   5.098   3.671   1.679 -1.4355  1.7204  1.5501
  772TIP3    H2 2253   5.213   3.729   1.758  1.2414 -0.7994 -0.3967
  773TIP3   OH2 2254   5.297   4.897   0.898  0.6633 -0.1991  0.2335
  773TIP3    H1 2255   5.348   4.928   0.974 -0.0166 -0.5338  0.8334
  773TIP3    H2 2256   5.361   4.890   0.828  2.0832 -3.3984  1.7265
  774TIP3   OH2 2257   3.356   1.216   3.656  0.1166  0.5161  0.1461
  774TIP3    H1 2258   3.366   1.162   3.578  0.6621  0.5143  0.2112
  774TIP3    H2 2259   3.287   1.278   3.634  0.5964  0.8265 -0.5164
  775TIP3   OH2 2260   0.975   5.925   2.818 -0.2462 -0.2996 -0.2809
  775TIP3    H1 2261   0.956   5.918   2.911  2.1603 -0.9845  0.1753
  775TIP3    H2 2262   0.962   6.018   2.798  1.8134  0.3741  1.3415
  776TIP3   OH2 2263   2.086   1.651   0.354 -0.3361  0.7290  0.3456
  776TIP3    H1 2264   2.103   1.636   0.446  0.7524  1.3455  0.2561
  776TIP3    H2 2265   2.013   1.713   0.352  0.0877  1.2462  0.8051
  777TIP3   OH2 2266   1.387   2.122   4.257  0.2984  0.1621  0.1940
  777TIP3    H1 2267   1.349   2.193   4.309 -0.9202  1.0071 -1.8214
  777TIP3    H2 2268   1.391   2.156   4.168 -0.4642 -2.3452 -0.8435
  778TIP3   OH2 2269   2.034   3.578   3.507  0.1707 -0.0639 -0.1715
  778TIP3    H1 2270   1.980   3.499   3.502 -0.8136  0.6632 -1.0284
  778TIP3    H2 2271   2.120   3.550   3.475 -0.7342 -0.2887 -2.4838
  779TIP3   OH2 2272   0.787   1.086   1.396  0.1330 -0.0844  0.7500
  779TIP3    H1 2273   0.691   1.084   1.391  0.1845  0.4401 -0.7908
  779TIP3    H2 2274   0.816   1.007   1.351  0.4416 -0.0999  0.9688
  780TIP3   OH2 2275   1.570   3.595   3.426 -0.2254  0.0938  0.6211
  780TIP3    H1 2276   1.559   3.542   3.505 -1.1337  1.6814  1.6099
  780TIP3    H2 2277   1.649   3.647   3.444 -0.9046  1.0595  0.8634
  781TIP3   OH2 2278   0.435   2.062   0.922 -0.3534  0.2581 -0.0589
  781TIP3    H1 2279   0.354   2.092   0.882  0.7879  1.5828 -1.4287
  781TIP3    H2 2280   0.466   1.992   0.864 -0.2087  0.1494  0.1457
  782TIP3   OH2 2281   1.458   5.168   1.022 -0.4946  0.6139 -0.5479
  782TIP3    H1 2282   1.381   5.135   0.975  0.5867 -0.6311 -1.4969
  782TIP3    H2 2283   1.512   5.209   0.954 -0.4183  1.6931  0.1498
  783TIP3   OH2 2284   2.219   4.600   2.167 -0.1232  0.8038 -0.5115
  783TIP3    H1 2285   2.220   4.683   2.119 -0.3490  1.5711  0.7975
  783TIP3    H2 2286   2.137   4.602   2.217  0.3369  0.2221  0.2794
  784TIP3   OH2 2287   2.284   3.508   0.470  0.3363 -0.1752 -0.0471
  784TIP3    H1 2288   2.323   3.595   0.480  1.8279 -0.9453  1.0393
  784TIP3    H2 2289   2.333   3.453   0.531 -1.1386 -1.6121 -0.1401
  785TIP3   OH2 2290   2.829   2.918   0.227  0.2540  0.1906 -0.4345
  785TIP3    H1 2291   2.879   2.848   0.186 -0.3222 -0.5313  0.0801
  785TIP3    H2 2292   2.879   2.998   0.208  0.6701 -0.2969 -1.4135
  786TIP3   OH2 2293   4.378   3.886   1.465 -0.0292  0.0686 -0.1393
  786TIP3    H1 2294   4.284   3.892   1.482 -0.1910 -0.8791 -0.6870
  786TIP3    H2 2295   4.411   3.975   1.483 -1.0678  0.4785 -0.2221
  787TIP3   OH2 2296   3.281   3.904   2.333 -0.2508 -0.1416 -0.5007
  787TIP3    H1 2297   3.214   3.907   2.264 -0.6544  1.1492 -0.0725
  787TIP3    H2 2298   3.344   3.971   2.307 -0.1697  0.0377  0.1500
  788TIP3   OH2 2299   2.384   5.138   1.324  0.4835 -0.5734 -0.3122
  788TIP3    H1 2300   2.471   5.118   1.359  0.8246 -1.1648 -1.4775
  788TIP3    H2 2301   2.325   5.124   1.398  1.2285 -1.5120  0.1215
  789TIP3   OH2 2302   3.410   3.922   0.548 -0.2772 -0.5782 -0.4103
  789TIP3    H1 2303   3.461   3.860   0.497 -0.3156  0.7738 -2.1775
  789TIP3    H2 2304   3.475   3.973   0.597 -0.0776 -0.4305 -0.8256
  790TIP3   OH2 2305   1.004   1.653   1.421  0.2619 -0.0544 -0.2604
  790TIP3    H1 2306   1.000   1.558   1.408 -0.3631  0.3605 -3.4132
  790TIP3    H2 2307   0.919   1.676   1.458  0.3068 -0.6468  0.2281
  791TIP3   OH2 2308   0.746   3.087   0.545  0.2625  0.5139  0.0294
  791TIP3    H1 2309   0.688   3.114   0.616 -0.1495 -1.5546  0.4822
  791TIP3    H2 2310   0.831   3.124   0.569 -0.1846  1.0342  0.8583
  792TIP3   OH2 2311   2.227   3.295   0.897 -0.6144 -0.3202 -0.2440
  792TIP3    H1 2312   2.204   3.358   0.964  0.5036 -0.1640 -0.0043
  792TIP3    H2 2313   2.157   3.302   0.832 -1.1259  0.2899  0.3735
  793TIP3   OH2 2314   5.063   3.498   0.964  0.4483 -0.0622 -0.1990
  793TIP3    H1 2315   5.018   3.549   0.897 -1.2298  3.3424  3.3221
  793TIP3    H2 2316   5.152   3.533   0.966 -0.3766  2.0418  1.4081
  794TIP3   OH2 2317   2.486   4.263   1.094  0.4899  0.4774 -0.1075
  794TIP3    H1 2318   2.472   4.357   1.079  0.9206  0.6737  0.6813
  794TIP3    H2 2319   2.578   4.249   1.073  0.1746  0.0181 -1.2282
  795TIP3   OH2 2320   1.627   3.454   1.841  0.0797  0.1666 -0.2590
  795TIP3    H1 2321   1.567   3.477   1.770 -0.4700  0.5904  0.3293
  795TIP3    H2 2322   1.654   3.364   1.822 -2.5449 -0.8914  0.6735
  796TIP3   OH2 2323   4.819   5.942   6.654  0.1772 -0.2796 -0.1723
  796TIP3    H1 2324   4.795   5.866   6.601 -0.2164 -0.3867  0.1516
  796TIP3    H2 2325   4.901   5.916   6.697 -0.2140 -0.7217  0.3236
  797TIP3   OH2 2326   1.078   3.535   3.081 -0.0149 -0.3092 -0.0267
  797TIP3    H1 2327   1.124   3.533   2.997 -0.0989 -0.1736 -0.0764
  797TIP3    H2 2328   0.992   3.572   3.060 -0.4899 -1.4422 -0.0975
  798TIP3   OH2 2329   3.630   3.201   0.769  0.5510 -0.0738 -0.3890
  798TIP3    H1 2330   3.705   3.260   0.780 -0.3699  0.9724  0.4743
  798TIP3    H2 2331   3.654   3.122   0.817  0.3797  0.9402  1.4260
  799TIP3   OH2 2332   5.617   6.226   6.908 -0.0411 -0.5764 -0.3613
  799TIP3    H1 2333   5.589   6.148   6.859 -1.8647 -0.5634  0.6398
  799TIP3    H2 2334   5.700   6.200   6.948 -0.2069 -1.7149 -0.7295
  800TIP3   OH2 2335   2.005   3.091   1.884 -0.1558  0.0388  0.1815
  800TIP3    H1 2336   1.999   3.108   1.791  0.3087 -0.3428  0.0788
  800TIP3    H2 2337   2.091   3.050   1.896 -1.0987 -1.9616  0.4434
  801TIP3   OH2 2338   1.148   3.345   0.336 -0.0371  0.3368  0.3008
  801TIP3    H1 2339   1.071   3.350   0.280  1.0592 -0.1320 -1.3021
  801TIP3    H2 2340   1.211   3.404   0.294  0.4553  0.7786  1.6365
  802TIP3   OH2 2341   1.847   3.497   3.154  0.2088 -0.0821  0.0094
  802TIP3    H1 2342   1.915   3.546   3.200 -0.1977  0.7316 -0.2625
  802TIP3    H2 2343   1.840   3.415   3.203  0.4738  0.3709  0.8127
  803TIP3   OH2 2344   1.554   4.312   1.554 -0.0121 -0.0195  0.3128
  803TIP3    H1 2345   1.507   4.377   1.606  0.2042  0.8203 -0.5167
  803TIP3    H2 2346   1.488   4.247   1.530 -0.2379 -0.0952  1.1304
  804TIP3   OH2 2347   7.197   4.915   0.597 -0.4288 -0.9819 -0.0532
  804TIP3    H1 2348   7.291   4.934   0.596 -0.6141  0.0390  1.0031
  804TIP3    H2 2349   7.166   4.938   0.510 -0.2397  1.5313  0.5286
  805TIP3   OH2 2350   0.656   5.454   1.689  0.2850 -0.2846 -0.2368
  805TIP3    H1 2351   0.566   5.432   1.712  0.1398 -1.3004 -1.7589
  805TIP3    H2 2352   0.652   5.484   1.598  1.1142  2.1216  0.4772
  806TIP3   OH2 2353   2.509   2.883   3.275  0.2152  0.0438  0.4937
  806TIP3    H1 2354   2.452   2.847   3.207  0.0044 -0.4875  0.9481
  806TIP3    H2 2355   2.494   2.978   3.271 -0.8962 -0.1149  0.7859
  807TIP3   OH2 2356   8.435   4.272   1.699  0.0286 -0.2213  0.3345
  807TIP3    H1 2357   8.452   4.356   1.657 -1.6831  0.0349  0.1114
  807TIP3    H2 2358   8.380   4.294   1.774  1.3434 -0.9139  1.5386
  808TIP3   OH2 2359   1.705   5.452   2.004  0.6876 -0.3716 -0.0423
  808TIP3    H1 2360   1.660   5.535   2.021  1.0928  0.2841 -2.0871
  808TIP3    H2 2361   1.798   5.473   2.008  0.8540 -1.4552  2.8205
  809TIP3   OH2 2362   1.570   3.228   0.684 -0.4097 -0.1462  0.5599
  809TIP3    H1 2363   1.506   3.198   0.620  1.1011 -1.2447 -0.4614
  809TIP3    H2 2364   1.644   3.169   0.674  1.2486  1.8117  0.9413
  810TIP3   OH2 2365   2.772   5.006   0.998 -0.6112  0.0551 -0.4286
  810TIP3    H1 2366   2.688   5.052   1.000 -0.5259  0.2357 -1.1857
  810TIP3    H2 2367   2.834   5.069   1.036 -0.5952  0.3680 -0.9679
  811TIP3   OH2 2368   5.491   1.516   6.711 -0.5602  0.2102 -0.0616
  811TIP3    H1 2369   5.420   1.513   6.647 -0.3745 -0.4163 -0.2378
  811TIP3    H2 2370   5.568   1.543   6.661 -0.3606 -0.5219 -0.1521
  812TIP3   OH2 2371   0.971   2.841   0.689  0.1280  0.3555 -0.1359
  812TIP3    H1 2372   0.900   2.866   0.629  1.0899  1.1746 -0.9704
  812TIP3    H2 2373   1.048   2.885   0.653  1.0179 -0.3662  0.8704
  813TIP3   OH2 2374   6.001   0.812   6.949 -0.1219  0.1631 -0.1796
  813TIP3    H1 2375   5.973   0.889   6.899 -0.9540  0.1810  0.2951
  813TIP3    H2 2376   6.096   0.820   6.956  0.0765 -0.1459 -2.2659
  814TIP3   OH2 2377   1.469   3.210   2.546  0.0676  0.7662 -0.2462
  814TIP3    H1 2378   1.480   3.254   2.461  1.3737 -0.8768 -0.9630
  814TIP3    H2 2379   1.387   3.245   2.580  1.0476  3.7938 -0.7438
  815TIP3   OH2 2380   1.285   3.432   2.400 -0.1305 -0.1993  0.3003
  815TIP3    H1 2381   1.241   3.368   2.457 -1.1339 -2.4196 -2.8251
  815TIP3    H2 2382   1.223   3.504   2.392  0.1951  0.3418  2.2926
  816TIP3   OH2 2383   8.352   3.623   0.908  0.8764 -0.2987 -0.4376
  816TIP3    H1 2384   8.426   3.676   0.938 -0.2754  0.3265  1.4072
  816TIP3    H2 2385   8.333   3.566   0.983 -1.4513  0.5892 -0.3295
  817TIP3   OH2 2386   1.736   1.835   3.258  0.0295 -0.0097  0.9860
  817TIP3    H1 2387   1.707   1.785   3.334 -0.9287  0.0710  0.6701
  817TIP3    H2 2388   1.682   1.803   3.186  2.4854 -1.7641 -0.1913
  818TIP3   OH2 2389   3.066   0.626   1.429 -0.2658 -0.1570 -0.1403
  818TIP3    H1 2390   3.115   0.544   1.418  1.9906  0.9373  1.2918
  818TIP3    H2 2391   3.101   0.663   1.510 -0.7818  2.5396 -1.1125
  819TIP3   OH2 2392   6.734   6.408   6.329  0.0500  0.1948 -0.3151
  819TIP3    H1 2393   6.651   6.444   6.359  0.0275 -0.0735 -0.0480
  819TIP3    H2 2394   6.798   6.477   6.348 -0.1911  0.6131 -1.0145
  820TIP3   OH2 2395   2.008   3.632   0.795  0.6846 -0.1423  0.7170
  820TIP3    H1 2396   2.084   3.686   0.774  0.5450 -0.2569 -0.0983
  820TIP3    H2 2397   1.940   3.695   0.819  0.8663 -0.0153  0.9052
  821TIP3   OH2 2398   0.913   0.971   1.088  0.0008 -0.1402 -0.7170
  821TIP3    H1 2399   0.887   0.926   1.169  0.4571  0.7245 -0.0831
  821TIP3    H2 2400   0.998   0.934   1.066  2.0517  2.8447  1.7457
  822TIP3   OH2 2401   2.205   1.702   1.954  0.0246  0.2957 -0.6640
  822TIP3    H1 2402   2.278   1.754   1.920 -0.3730  0.9035 -0.5956
  822TIP3    H2 2403   2.187   1.739   2.040 -0.0738 -0.1461 -0.4933
  823TIP3   OH2 2404   2.127   2.518   3.502 -0.6235  0.5944 -0.6152
  823TIP3    H1 2405   2.179   2.595   3.524 -1.0083  0.4460  0.8522
  823TIP3    H2 2406   2.101   2.532   3.411  1.3708  1.0106 -1.1486
  824TIP3   OH2 2407   6.363   6.440   4.662  0.3975 -0.2064 -0.2856
  824TIP3    H1 2408   6.411   6.520   4.682  1.2247 -1.0614  1.2532
  824TIP3    H2 2409   6.400   6.375   4.722  0.2982 -1.9251 -2.0423
  825TIP3   OH2 2410   1.915   3.215   0.355  0.4453  1.1149 -0.3062
  825TIP3    H1 2411   1.951   3.129   0.334 -0.7461  0.2497  1.0514
  825TIP3    H2 2412   1.825   3.212   0.322  0.3932  1.8369 -0.2389
  826TIP3   OH2 2413   1.423   5.254   1.352  0.2532 -0.1586 -0.4705
  826TIP3    H1 2414   1.440   5.160   1.363  0.8519 -0.0818 -0.6690
  826TIP3    H2 2415   1.329   5.263   1.361  0.3647 -0.5655  1.1129
  827TIP3   OH2 2416   3.700   2.946   1.696 -0.1790 -0.5169  0.3232
  827TIP3    H1 2417   3.628   2.965   1.757  0.3456  1.0915  0.4597
  827TIP3    H2 2418   3.779   2.953   1.750  0.2421  0.2675 -0.3862
  828TIP3   OH2 2419   0.841   0.284   5.368 -0.4049  0.0653 -0.1962
  828TIP3    H1 2420   0.935   0.271   5.353 -0.4685 -1.5269  0.6532
  828TIP3    H2 2421   0.802   0.275   5.281  0.2524  0.9590 -0.5872
  829TIP3   OH2 2422   0.439   0.389   6.566  0.2315  0.3885  0.0617
  829TIP3    H1 2423   0.491   0.359   6.641 -0.2958  1.5252  0.8963
  829TIP3    H2 2424   0.459   0.326   6.497  1.7598  0.0866  0.7455
  830TIP3   OH2 2425   3.932   4.800   2.021  0.5072 -0.4046 -0.2564
  830TIP3    H1 2426   3.877   4.807   1.943  0.5747  0.5720 -0.2230
  830TIP3    H2 2427   3.893   4.728   2.071 -0.9031  0.4325 -0.1148
  831TIP3   OH2 2428   1.770   5.212   1.352  0.1300  0.4396  0.2498
  831TIP3    H1 2429   1.725   5.238   1.272  0.0994  0.8845  0.4124
  831TIP3    H2 2430   1.738   5.273   1.419  2.2832  1.8724  0.0088
  832TIP3   OH2 2431   1.422   0.366   6.772 -0.3703  0.7632 -0.2037
  832TIP3    H1 2432   1.347   0.308   6.779 -0.4850  0.9410  0.0487
  832TIP3    H2 2433   1.459   0.348   6.685  0.4040 -0.6660  0.4086
  833TIP3   OH2 2434   6.154   3.374   1.286 -0.0159 -0.0600 -0.0124
  833TIP3    H1 2435   6.158   3.365   1.191  2.2669 -1.0699  0.1297
  833TIP3    H2 2436   6.225   3.434   1.308  0.6823 -1.2993  1.1983
  834TIP3   OH2 2437   5.376   2.194   2.292 -0.1284  0.0409 -0.4427
  834TIP3    H1 2438   5.363   2.273   2.344 -2.6242 -0.5085 -0.1873
  834TIP3    H2 2439   5.381   2.123   2.356 -1.5635 -0.4303 -0.8286
  835TIP3   OH2 2440   5.673   5.520   6.119 -0.2862 -0.0993 -0.1134
  835TIP3    H1 2441   5.728   5.596   6.134  1.5267 -1.0561 -1.7088
  835TIP3    H2 2442   5.600   5.553   6.065 -0.8857  0.9994  1.3441
  836TIP3   OH2 2443   7.306   5.683   6.744 -0.4667  0.4544  0.2438
  836TIP3    H1 2444   7.259   5.723   6.671  1.4950  1.8557 -0.2970
  836TIP3    H2 2445   7.357   5.612   6.703 -0.8775 -0.0227  0.5634
  837TIP3   OH2 2446   2.135   1.127   2.586 -0.6329  0.3532 -0.2600
  837TIP3    H1 2447   2.201   1.064   2.614 -1.4724 -0.3859  0.0742
  837TIP3    H2 2448   2.162   1.154   2.498 -0.3370 -0.5726 -0.4550
  838TIP3   OH2 2449   1.554   1.555   6.859  0.4247  0.0794 -0.1581
  838TIP3    H1 2450   1.459   1.548   6.846  0.6418 -2.8398 -0.4205
  838TIP3    H2 2451   1.579   1.471   6.897  2.8088  1.1133  0.6443
  839TIP3   OH2 2452   4.242   4.556   1.043  0.4215  0.5852  0.4824
  839TIP3    H1 2453   4.262   4.466   1.018 -1.0393  0.2966  0.3208
  839TIP3    H2 2454   4.232   4.603   0.960 -0.7719  0.4510  0.5477
  840TIP3   OH2 2455   3.992   2.773   0.467  0.1677 -0.2315  0.0398
  840TIP3    H1 2456   3.941   2.779   0.386 -0.9217 -0.6034  0.6779
  840TIP3    H2 2457   4.007   2.679   0.479  1.1430 -0.1082 -0.2280
  841TIP3   OH2 2458   3.021   4.070   2.617 -0.2087  0.0293  0.4438
  841TIP3    H1 2459   2.998   4.135   2.684 -1.9732 -0.0460 -0.0490
  841TIP3    H2 2460   3.049   3.993   2.667  1.3518  0.9582  1.0381
  842TIP3   OH2 2461   2.677   5.769   0.461 -0.7133 -0.6028  0.6631
  842TIP3    H1 2462   2.618   5.712   0.510  1.4344 -2.7652  0.8248
  842TIP3    H2 2463   2.718   5.825   0.527 -1.8664  0.2730  0.6532
  843TIP3   OH2 2464   5.154   1.707   1.775 -0.2457  0.6438  0.5559
  843TIP3    H1 2465   5.192   1.622   1.753 -1.5108  0.1640  0.1887
  843TIP3    H2 2466   5.160   1.758   1.694 -3.0831 -0.4537 -0.4372
  844TIP3   OH2 2467   3.924   2.546   0.059 -0.4964  0.2563 -0.0642
  844TIP3    H1 2468   3.994   2.520   0.119 -1.9075 -2.2050  0.5760
  844TIP3    H2 2469   3.970   2.572  -0.021  1.1820 -0.4131  0.6617
  845TIP3   OH2 2470   5.467   2.901   0.983  0.7877 -0.4225 -0.3026
  845TIP3    H1 2471   5.513   2.880   1.065  1.2069  2.1814  0.1672
  845TIP3    H2 2472   5.384   2.939   1.012  1.0891  0.8350 -1.0617
  846TIP3   OH2 2473   3.189   2.338   0.831  0.0504 -0.0123 -0.0448
  846TIP3    H1 2474   3.124   2.373   0.771  0.5146 -0.9872 -1.1450
  846TIP3    H2 2475   3.148   2.260   0.868 -0.1250  0.4270  0.6930
  847TIP3   OH2 2476   2.175   4.571   0.320  0.1194  0.1063  0.0729
  847TIP3    H1 2477   2.127   4.552   0.401  1.7309  0.4036  1.1040
  847TIP3    H2 2478   2.266   4.580   0.347  1.0708 -2.2971 -2.1575
  848TIP3   OH2 2479   5.022   2.774   1.097 -0.0737  0.0303 -0.0858
  848TIP3    H1 2480   5.055   2.863   1.085 -0.8010  0.2055 -0.8132
  848TIP3    H2 2481   4.988   2.749   1.011  1.2586 -1.4245 -0.1951
  849TIP3   OH2 2482   1.403   4.030   2.248 -0.2597 -0.0022  0.1917
  849TIP3    H1 2483   1.353   3.954   2.218 -0.1941 -0.6324  1.6503
  849TIP3    H2 2484   1.354   4.062   2.324  0.2279  0.8512  0.1556
  850TIP3   OH2 2485   7.274   7.669   6.093 -0.0610 -0.7781  0.2000
  850TIP3    H1 2486   7.211   7.662   6.164  0.0858 -0.2829  0.3857
  850TIP3    H2 2487   7.272   7.584   6.050  0.9383 -1.5850  1.7219
  851TIP3   OH2 2488   5.408   5.973   5.382  0.1938  0.6957  0.4212
  851TIP3    H1 2489   5.333   6.027   5.356  0.5752  1.0974  0.1402
  851TIP3    H2 2490   5.476   6.036   5.404  0.5836  0.3272  0.2738
  852TIP3   OH2 2491   4.404   3.636   1.409  0.1494  0.1202 -0.2119
  852TIP3    H1 2492   4.439   3.581   1.479 -4.1432 -1.9442  0.4726
  852TIP3    H2 2493   4.405   3.725   1.445 -2.5743 -0.9730  2.8379
  853TIP3   OH2 2494   6.072   6.178   6.239 -0.0567 -0.2885 -0.2823
  853TIP3    H1 2495   6.009   6.168   6.311  1.1723  0.6640  0.9724
  853TIP3    H2 2496   6.083   6.273   6.230  0.7458 -0.4326 -0.8776
  854TIP3   OH2 2497   6.318   4.029   0.835  0.2245  0.6185  0.5052
  854TIP3    H1 2498   6.394   3.982   0.867 -0.4733 -1.0104 -0.1852
  854TIP3    H2 2499   6.343   4.058   0.747  0.3094  0.7353  0.5673
  855TIP3   OH2 2500   5.122   5.689   0.550  0.0477  0.0597  0.1607
  855TIP3    H1 2501   5.123   5.595   0.534  2.5801  0.0024  0.4170
  855TIP3    H2 2502   5.043   5.720   0.506  0.4410 -1.8466 -2.0017
  856TIP3   OH2 2503   7.617   5.919   6.241 -0.0471 -0.8116 -0.0849
  856TIP3    H1 2504   7.657   6.005   6.253 -1.3094 -0.2632  0.2966
  856TIP3    H2 2505   7.669   5.878   6.173  0.1612  0.5240 -0.7499
  857TIP3   OH2 2506   3.987   3.844   1.887 -0.1767  0.0692 -0.3765
  857TIP3    H1 2507   3.918   3.853   1.822 -0.3768  0.9920 -0.0486
  857TIP3    H2 2508   3.941   3.828   1.969 -0.1295  2.7820  0.2237
  858TIP3   OH2 2509   4.566   4.116   0.802  0.3537  0.1395  0.2661
  858TIP3    H1 2510   4.661   4.110   0.791  0.3035  0.1687 -0.1718
  858TIP3    H2 2511   4.551   4.086   0.892  0.8445  0.7855  0.5751
  859TIP3   OH2 2512   3.105   3.868   2.779 -0.2776 -0.1199 -0.1344
  859TIP3    H1 2513   3.022   3.834   2.813  0.7985 -2.5598  0.1509
  859TIP3    H2 2514   3.169   3.848   2.848  0.7661  0.7574 -0.8306
  860TIP3   OH2 2515   6.348   6.033   5.789 -0.3845 -0.4734 -0.4222
  860TIP3    H1 2516   6.425   5.986   5.821 -0.5013 -1.1524 -1.1233
  860TIP3    H2 2517   6.296   5.967   5.744 -3.2316 -0.8845  3.1942
  861TIP3   OH2 2518   3.424   4.044   2.123  0.2369 -0.4338  0.4900
  861TIP3    H1 2519   3.449   4.103   2.194  0.4822  0.5588 -0.4069
  861TIP3    H2 2520   3.482   4.067   2.051 -0.6558 -0.7589 -0.3484
  862TIP3   OH2 2521   6.356   7.624   5.589 -0.0720 -0.1366  0.2881
  862TIP3    H1 2522   6.389   7.586   5.670 -0.1707  1.8485  1.2873
  862TIP3    H2 2523   6.427   7.679   5.557 -0.5108  0.0922 -0.3052
  863TIP3   OH2 2524   1.306   5.031   1.538 -0.7428 -0.2160  0.2089
  863TIP3    H1 2525   1.271   4.941   1.532 -1.5445  0.1881 -1.6967
  863TIP3    H2 2526   1.237   5.085   1.500  2.0405  0.5913 -4.0130
  864TIP3   OH2 2527   4.794   6.289   2.132 -0.3161  0.6216 -1.0271
  864TIP3    H1 2528   4.804   6.289   2.037 -1.5941  1.6410 -1.1862
  864TIP3    H2 2529   4.837   6.369   2.161  2.0839 -0.8324 -0.4840
  865TIP3   OH2 2530   2.540   5.152   1.055  0.5903 -0.2559  0.1970
  865TIP3    H1 2531   2.451   5.152   1.021  1.0883  1.1307 -1.1763
  865TIP3    H2 2532   2.530   5.133   1.148 -1.0508 -1.0625 -0.1141
  866TIP3   OH2 2533   6.681   5.372   2.227  0.1738 -0.1134  0.0426
  866TIP3    H1 2534   6.661   5.315   2.153  1.0455 -1.5053  0.8646
  866TIP3    H2 2535   6.599   5.378   2.276  0.4570 -1.9216  0.7837
  867TIP3   OH2 2536   4.073   5.243   1.237  0.4163  0.0163  0.3568
  867TIP3    H1 2537   4.124   5.179   1.288 -1.6234 -0.7763  1.4665
  867TIP3    H2 2538   4.081   5.213   1.147  1.4759 -0.4074  0.5808
  868TIP3   OH2 2539   2.558   3.132   2.641  0.4789  0.2803 -0.5835
  868TIP3    H1 2540   2.604   3.120   2.723 -1.4109 -0.7183  0.3572
  868TIP3    H2 2541   2.613   3.193   2.591  2.8594 -1.0129  0.4123
  869TIP3   OH2 2542   5.473   6.177   4.809  0.4851  0.2530  0.2291
  869TIP3    H1 2543   5.383   6.206   4.795  1.0536  1.0100 -2.1659
  869TIP3    H2 2544   5.526   6.235   4.754  2.4745  0.0152  1.8297
  870TIP3   OH2 2545   5.514   3.899   0.708  0.2864 -0.0595 -0.2907
  870TIP3    H1 2546   5.563   3.925   0.630  0.7476  0.7434  0.2567
  870TIP3    H2 2547   5.502   3.980   0.757  0.1275 -0.5797  0.5455
  871TIP3   OH2 2548   0.174   0.432   5.011  0.3407  0.1463 -0.0069
  871TIP3    H1 2549   0.241   0.381   4.967 -1.7334 -0.5369 -2.5178
  871TIP3    H2 2550   0.149   0.379   5.087  1.0140 -0.6595 -0.3408
  872TIP3   OH2 2551   6.122   6.697   6.282  0.0606 -0.6758 -0.5621
  872TIP3    H1 2552   6.042   6.749   6.286  0.0193 -0.7215 -0.7704
  872TIP3    H2 2553   6.092   6.606   6.278  0.1650 -0.8444  1.8436
  873TIP3   OH2 2554   4.492   7.654   6.496 -0.1239  0.2669 -0.1022
  873TIP3    H1 2555   4.486   7.745   6.469 -1.2467 -0.2915 -1.8795
  873TIP3    H2 2556   4.449   7.605   6.425 -1.1467 -1.4852  1.6542
  874TIP3   OH2 2557   7.840   7.393   6.458 -0.1566  0.0947 -0.6018
  874TIP3    H1 2558   7.858   7.339   6.535 -1.0527  0.0818 -0.3931
  874TIP3    H2 2559   7.900   7.361   6.391  0.2232 -0.2840 -0.0794
  875TIP3   OH2 2560   3.138   3.519   1.501  0.3886  0.5629  0.4112
  875TIP3    H1 2561   3.136   3.612   1.477  0.3016  1.0013  2.0026
  875TIP3    H2 2562   3.197   3.516   1.577 -0.7730 -0.4323  1.2922
  876TIP3   OH2 2563   5.258   2.545   1.405  0.1475  0.1520 -0.6049
  876TIP3    H1 2564   5.218   2.579   1.485  0.7639  0.4138 -0.4025
  876TIP3    H2 2565   5.243   2.450   1.408  0.0763  0.1770 -0.2331
  877TIP3   OH2 2566   2.329   2.821   1.096  0.3569 -0.0944 -0.6121
  877TIP3    H1 2567   2.326   2.726   1.102 -1.3301 -0.1517 -1.8003
  877TIP3    H2 2568   2.404   2.839   1.039 -0.7137 -0.8450 -2.3042
  878TIP3   OH2 2569   8.412   0.538   6.841 -0.7427  0.3324  0.8309
  878TIP3    H1 2570   8.480   0.588   6.798  0.0457  0.0009  1.6779
  878TIP3    H2 2571   8.420   0.450   6.806 -0.5531  0.2286  1.1304
  879TIP3   OH2 2572   4.260   2.562   0.445 -0.4581 -0.6871 -0.2398
  879TIP3    H1 2573   4.267   2.547   0.539  0.8126 -0.7470 -0.3348
  879TIP3    H2 2574   4.340   2.523   0.409  0.1231  1.2471 -1.0991
  880TIP3   OH2 2575   4.176   0.086   0.670 -0.4792 -0.1168  0.3042
  880TIP3    H1 2576   4.217   0.039   0.598  1.0398 -0.3889  1.3496
  880TIP3    H2 2577   4.220   0.171   0.671 -0.1266 -0.3132  1.2631
  881TIP3   OH2 2578   1.830   3.501   0.647 -1.1750  0.9248 -0.2319
  881TIP3    H1 2579   1.897   3.525   0.711 -1.0382 -1.9428  0.7852
  881TIP3    H2 2580   1.876   3.502   0.563  0.2963 -1.2404  0.4788
  882TIP3   OH2 2581   6.814   6.551   6.716  0.1869  0.4607  0.3235
  882TIP3    H1 2582   6.718   6.553   6.713  0.1902 -1.6154 -3.4182
  882TIP3    H2 2583   6.842   6.625   6.663  0.6312 -0.1034 -0.2433
  883TIP3   OH2 2584   4.381   7.388   5.963 -0.5329 -0.1359 -0.3388
  883TIP3    H1 2585   4.447   7.416   6.026 -0.1532 -0.9504 -0.3638
  883TIP3    H2 2586   4.300   7.380   6.014 -0.0308 -1.6847  0.2602
  884TIP3   OH2 2587  -0.004   0.236   5.897 -0.3667  0.4053 -0.4208
  884TIP3    H1 2588   0.017   0.142   5.900  1.2926  0.7872  2.8282
  884TIP3    H2 2589   0.001   0.259   5.805  0.3921 -2.4409 -1.1506
  885TIP3   OH2 2590   3.617   4.549   2.543  0.1432  0.3836  0.6556
  885TIP3    H1 2591   3.537   4.602   2.541 -1.2244 -1.6322  0.3278
  885TIP3    H2 2592   3.625   4.522   2.634 -0.6077 -0.9445  0.3413
  886TIP3   OH2 2593   4.182   3.899   1.667  0.1758  0.3104  0.4848
  886TIP3    H1 2594   4.111   3.913   1.605  1.3052  2.0700 -0.4547
  886TIP3    H2 2595   4.141   3.853   1.741 -1.7219  0.4964 -0.4289
  887TIP3   OH2 2596   7.604   7.198   6.531  0.1627  0.1745 -0.2154
  887TIP3    H1 2597   7.569   7.255   6.463 -0.4342  0.7927  0.6048
  887TIP3    H2 2598   7.608   7.253   6.610  1.4219 -0.3554  0.1077
  888TIP3   OH2 2599   1.208   3.362   1.801  0.7337  0.1960  0.0396
  888TIP3    H1 2600   1.208   3.275   1.841 -1.0874  1.0898  2.1219
  888TIP3    H2 2601   1.264   3.415   1.858  0.8879  0.6697 -0.5451
  889TIP3   OH2 2602   2.749   4.322   1.049  0.2182 -0.4219  0.1139
  889TIP3    H1 2603   2.777   4.289   1.135  2.7456 -1.7029 -1.1347
  889TIP3    H2 2604   2.820   4.381   1.022 -1.9142  2.2279  0.1187
  890TIP3   OH2 2605   1.951   3.073   2.386  0.3986  0.0195 -0.0968
  890TIP3    H1 2606   1.904   3.156   2.383 -0.2696 -0.3467  0.1782
  890TIP3    H2 2607   1.942   3.036   2.298  0.4859  0.1178 -0.1476
  891TIP3   OH2 2608   4.000   4.038   0.454 -0.7843  0.3068  0.0783
  891TIP3    H1 2609   4.091   4.008   0.453 -1.0855 -0.6614 -1.5817
  891TIP3    H2 2610   4.005   4.129   0.482  0.8285  0.6321 -1.1580
  892TIP3   OH2 2611   3.390   3.594   0.655  0.5245  0.2292  0.7552
  892TIP3    H1 2612   3.355   3.505   0.657  1.6914 -0.2961 -0.6872
  892TIP3    H2 2613   3.473   3.585   0.609 -0.2490  2.3617 -1.1419
  893TIP3   OH2 2614   3.303   2.517   1.001 -0.2352 -0.4210 -0.3964
  893TIP3    H1 2615   3.250   2.452   0.955 -2.5955  0.6889  0.6834
  893TIP3    H2 2616   3.246   2.551   1.069  2.3501 -0.1991  1.7628
  894TIP3   OH2 2617   5.241   1.250   0.904 -0.3408  0.2931 -0.4228
  894TIP3    H1 2618   5.262   1.333   0.947  1.6118 -0.3122 -0.1469
  894TIP3    H2 2619   5.174   1.210   0.959  1.1639  0.1425  1.3293
  895TIP3   OH2 2620   3.295   2.690   0.088 -0.2220  0.1326  0.1201
  895TIP3    H1 2621   3.281   2.624   0.020  1.9582  1.4736 -1.7045
  895TIP3    H2 2622   3.235   2.760   0.065 -1.8160 -0.7482  1.4851
  896TIP3   OH2 2623   3.297   2.872   0.623  0.2930 -0.3081  0.7481
  896TIP3    H1 2624   3.328   2.786   0.651 -1.2870 -1.0951  0.1496
  896TIP3    H2 2625   3.214   2.884   0.670 -1.0391 -0.4817 -1.4627
  897TIP3   OH2 2626   5.376   6.551   4.095 -0.3259  0.6276  0.1855
  897TIP3    H1 2627   5.330   6.558   4.011 -0.2219  1.7735  0.2181
  897TIP3    H2 2628   5.313   6.509   4.153  0.5350 -2.6564 -1.1457
  898TIP3   OH2 2629   3.135   3.483   0.342 -0.4264 -0.1701  0.9027
  898TIP3    H1 2630   3.099   3.504   0.256 -0.9391 -1.1127  0.8720
  898TIP3    H2 2631   3.228   3.469   0.327 -0.7901 -2.0444  0.1538
  899TIP3   OH2 2632   3.810   6.028   0.757 -0.2639 -0.3593 -0.9883
  899TIP3    H1 2633   3.842   6.020   0.847 -0.1476  0.5805 -0.9482
  899TIP3    H2 2634   3.739   5.964   0.752 -0.3175 -0.3660 -0.2038
  900TIP3   OH2 2635   6.256   7.339   6.628 -0.2701  0.3851 -0.4696
  900TIP3    H1 2636   6.246   7.387   6.711 -1.2136  3.0231 -2.0556
  900TIP3    H2 2637   6.176   7.287   6.621  0.0727 -0.3009  0.5444
  901TIP3   OH2 2638   6.099   7.490   5.318  0.0733  0.1611 -0.0837
  901TIP3    H1 2639   6.080   7.427   5.250  1.1963 -1.4589  1.0670
  901TIP3    H2 2640   6.192   7.479   5.337  0.0715  1.4662  0.8219
  902TIP3   OH2 2641   3.457   2.778   1.179  0.5816 -0.0667 -0.5371
  902TIP3    H1 2642   3.524   2.710   1.168  0.3917 -0.1755 -1.0168
  902TIP3    H2 2643   3.383   2.748   1.126  0.9834  1.1709 -1.8119
  903TIP3   OH2 2644   0.564   1.482   5.728 -0.3437 -0.2268  0.7341
  903TIP3    H1 2645   0.516   1.491   5.810  1.5807  0.3233  1.8416
  903TIP3    H2 2646   0.525   1.546   5.669  0.0017  1.2360  2.0809
  904TIP3   OH2 2647   3.695   4.682   1.279  0.2483 -0.0871 -0.1750
  904TIP3    H1 2648   3.773   4.709   1.328  0.3422 -2.2178  0.8859
  904TIP3    H2 2649   3.671   4.760   1.228  1.8329  1.2565  1.0730
  905TIP3   OH2 2650   7.605   6.227   5.681  0.2203  0.0155  0.2638
  905TIP3    H1 2651   7.690   6.233   5.723 -0.9725  1.8393  2.5629
  905TIP3    H2 2652   7.621   6.253   5.590  2.2394 -0.5909  0.4204
  906TIP3   OH2 2653   2.881   4.659   0.665 -0.6612  0.3251  0.1936
  906TIP3    H1 2654   2.959   4.605   0.654 -0.8200  0.4318 -1.6834
  906TIP3    H2 2655   2.871   4.703   0.581 -2.5643  0.5462  0.5152
  907TIP3   OH2 2656   4.760   2.642   0.141  0.0207 -0.0412  0.6119
  907TIP3    H1 2657   4.737   2.568   0.084 -0.1438  0.9635 -0.6702
  907TIP3    H2 2658   4.800   2.705   0.082 -0.6334  1.2520  1.5342
  908TIP3   OH2 2659   2.306   2.798   2.091  0.4762 -0.5306  0.3873
  908TIP3    H1 2660   2.246   2.795   2.165  2.1307 -1.7636  1.7081
  908TIP3    H2 2661   2.293   2.713   2.047  2.5586 -1.6005  1.7657
  909TIP3   OH2 2662   1.727   0.413   6.232  0.0938  0.2079 -0.2004
  909TIP3    H1 2663   1.637   0.442   6.249  0.5379  1.1020  0.6874
  909TIP3    H2 2664   1.759   0.383   6.316  0.7453  0.2237 -0.4401
  910TIP3   OH2 2665   2.502   2.801   1.854 -0.5658  0.5045  0.3269
  910TIP3    H1 2666   2.427   2.848   1.818  0.6576  2.2593 -0.0328
  910TIP3    H2 2667   2.494   2.812   1.948 -0.6055  0.9749  0.2730
  911TIP3   OH2 2668   8.357   7.474   6.753 -0.1910 -0.2484  0.4710
  911TIP3    H1 2669   8.386   7.531   6.824 -0.0083 -0.4858  0.5890
  911TIP3    H2 2670   8.380   7.521   6.673  0.5922 -0.4683  0.5640
  912TIP3   OH2 2671   3.056   4.605   0.180 -0.2281 -0.1087  0.0212
  912TIP3    H1 2672   3.080   4.556   0.101 -0.1343  0.8640 -0.5633
  912TIP3    H2 2673   3.037   4.538   0.245 -2.0611 -0.9571 -1.3447
  913TIP3   OH2 2674   5.586   3.255   1.576  0.2404 -0.0409  0.4898
  913TIP3    H1 2675   5.628   3.285   1.657  0.2256 -1.7598  1.1406
  913TIP3    H2 2676   5.652   3.269   1.508  0.3725  1.0985  0.8432
  914TIP3   OH2 2677   5.689   3.150   1.329  0.1544 -0.0187  0.2122
  914TIP3    H1 2678   5.771   3.199   1.345 -0.7512  1.8535 -0.7037
  914TIP3    H2 2679   5.679   3.151   1.234  0.4671 -2.6588  0.1085
  915TIP3   OH2 2680   1.514   1.045   6.617 -0.0144  0.1266  0.5568
  915TIP3    H1 2681   1.500   0.950   6.611  2.0605 -0.2644  1.2860
  915TIP3    H2 2682   1.572   1.055   6.692  0.2578  1.9264  0.1207
  916TIP3   OH2 2683   6.726   6.958   6.827 -0.2481 -0.4905  0.0867
  916TIP3    H1 2684   6.687   6.925   6.745 -0.9786 -0.0457  0.2459
  916TIP3    H2 2685   6.651   6.989   6.878  0.1787 -0.9752  1.0282
  917TIP3   OH2 2686   2.300   3.691   0.800  0.2360  0.1949  0.0780
  917TIP3    H1 2687   2.271   3.757   0.863  0.5807  0.9530 -0.5463
  917TIP3    H2 2688   2.367   3.735   0.748 -0.6230 -0.1578 -1.3509
  918TIP3   OH2 2689   5.233   6.323   4.839 -0.0485  0.0244  0.0686
  918TIP3    H1 2690   5.197   6.385   4.775  1.1664  1.7780  1.0424
  918TIP3    H2 2691   5.159   6.305   4.898 -0.8007 -0.5813 -1.0305
  919TIP3   OH2 2692   5.692   7.313   5.725  0.2360  0.7330 -0.3220
  919TIP3    H1 2693   5.613   7.286   5.679  0.3957 -1.2097  0.4817
  919TIP3    H2 2694   5.755   7.333   5.655 -1.2714  3.3641 -0.9799
  920TIP3   OH2 2695   4.084   4.626   1.249  0.1304 -0.1963  0.6319
  920TIP3    H1 2696   4.163   4.640   1.198  0.1032 -0.8065  0.4189
  920TIP3    H2 2697   4.046   4.546   1.214 -1.1891  0.6868 -0.0251
  921TIP3   OH2 2698   0.569   0.270   6.315  0.7096 -0.3344 -0.3450
  921TIP3    H1 2699   0.483   0.253   6.277 -0.1325  2.5875  0.1333
  921TIP3    H2 2700   0.625   0.200   6.280 -0.8771  0.0890 -3.9997
  922TIP3   OH2 2701   1.591   2.286   5.082 -0.0261 -0.2781  0.0570
  922TIP3    H1 2702   1.500   2.306   5.104 -0.2699  0.3235 -1.4495
  922TIP3    H2 2703   1.584   2.220   5.013  0.6630  0.3819 -0.6435
  923TIP3   OH2 2704   2.416   3.653   1.068  0.1685 -1.1775 -0.2202
  923TIP3    H1 2705   2.473   3.576   1.068  1.3777 -0.2934 -0.0520
  923TIP3    H2 2706   2.328   3.617   1.077  0.8392 -2.4751  1.5904
  924TIP3   OH2 2707   4.532   6.646   6.857  0.3685 -0.0682 -0.5710
  924TIP3    H1 2708   4.549   6.554   6.880 -0.6531  0.0291  0.5813
  924TIP3    H2 2709   4.577   6.697   6.924  0.5466  0.2817 -0.9502
  925TIP3   OH2 2710   3.583   3.992   0.753  0.2409  0.3659 -0.3382
  925TIP3    H1 2711   3.541   3.928   0.812 -0.5969  0.2968 -0.9979
  925TIP3    H2 2712   3.676   3.972   0.759  0.0535 -0.4655  0.0075
  926TIP3   OH2 2713   1.157   3.689   2.507 -0.1289 -0.6505  0.2336
  926TIP3    H1 2714   1.206   3.771   2.511 -2.5881  0.8318  1.3147
  926TIP3    H2 2715   1.150   3.661   2.599 -1.7081 -0.5572  0.1591
  927TIP3   OH2 2716   5.838   7.087   5.363  0.1637  0.6207  0.5064
  927TIP3    H1 2717   5.912   7.123   5.315 -0.1120 -1.0526 -1.2203
  927TIP3    H2 2718   5.879   7.029   5.428  0.3717 -2.5159 -2.2720
  928TIP3   OH2 2719   0.211   2.093   6.175 -0.8394 -0.2939  0.6876
  928TIP3    H1 2720   0.287   2.036   6.165 -0.3823  0.2167  1.1863
  928TIP3    H2 2721   0.159   2.051   6.244  0.3466  0.7629  2.2767
  929TIP3   OH2 2722   8.165   1.114   6.566  0.2971  1.0245 -0.2318
  929TIP3    H1 2723   8.254   1.145   6.585 -0.1292  1.2959  1.3817
  929TIP3    H2 2724   8.110   1.158   6.631 -0.6653 -1.1308  0.4661
  930TIP3   OH2 2725   2.957   4.296   2.223 -0.9578  0.1357 -0.1772
  930TIP3    H1 2726   3.026   4.234   2.199 -1.9000 -1.0589  0.1064
  930TIP3    H2 2727   2.912   4.253   2.297 -3.7131 -0.3874 -2.0903
  931TIP3   OH2 2728   4.431   0.160   6.308 -0.3907  0.5076  0.5642
  931TIP3    H1 2729   4.396   0.132   6.223 -0.0995 -0.3354  0.7203
  931TIP3    H2 2730   4.449   0.254   6.296 -0.3749  0.4044 -0.2977
  932TIP3   OH2 2731   6.088   7.203   6.961 -0.0363  0.0079 -0.3784
  932TIP3    H1 2732   6.009   7.250   6.935  0.7264  0.6739 -1.5862
  932TIP3    H2 2733   6.158   7.245   6.910  1.0862 -0.5694  0.6670
  933TIP3   OH2 2734   6.900   6.787   6.575 -0.2072  0.4151  0.0708
  933TIP3    H1 2735   6.867   6.768   6.487 -0.2354  0.9847 -0.0488
  933TIP3    H2 2736   6.952   6.867   6.564 -0.7448  0.8569  0.6900
  934TIP3   OH2 2737   2.118   2.902   0.741  0.1019  0.4621  0.4938
  934TIP3    H1 2738   2.194   2.886   0.684  0.3505 -0.1994  1.0028
  934TIP3    H2 2739   2.121   2.996   0.759 -0.3316  0.7843 -1.0716
  935TIP3   OH2 2740   5.081   5.499   5.669 -0.0049 -0.7043  0.9719
  935TIP3    H1 2741   5.063   5.495   5.575  1.6929  2.2030  0.4802
  935TIP3    H2 2742   5.139   5.425   5.686 -0.6763 -1.4958 -0.1753
  936TIP3   OH2 2743   4.787   6.737   5.684  0.4167  0.1778  0.2312
  936TIP3    H1 2744   4.878   6.764   5.694  1.0282 -2.3509  2.1002
  936TIP3    H2 2745   4.789   6.666   5.621 -0.5626  1.4128 -1.2306
  937TIP3   OH2 2746   5.830   4.379   0.050  0.4356 -0.5747 -0.0776
  937TIP3    H1 2747   5.861   4.360  -0.039 -0.1705  0.8263 -0.5989
  937TIP3    H2 2748   5.735   4.376   0.043  0.3726  0.4440  0.3279
  938TIP3   OH2 2749   5.715   2.423   1.779  0.4138  0.3194  0.0278
  938TIP3    H1 2750   5.747   2.484   1.713  0.7352  0.0447 -0.0717
  938TIP3    H2 2751   5.794   2.378   1.810  0.0464 -0.8397 -0.7041
  939TIP3   OH2 2752   4.434   3.455   0.054  0.0390  0.1752  0.3522
  939TIP3    H1 2753   4.400   3.419   0.136 -1.8149 -0.2620 -0.5747
  939TIP3    H2 2754   4.478   3.382   0.012 -1.2594 -0.2897 -0.2216
  940TIP3   OH2 2755   7.312   6.322   6.145 -0.0512 -0.3518 -0.0823
  940TIP3    H1 2756   7.303   6.248   6.204 -0.5023  0.0246  0.3210
  940TIP3    H2 2757   7.341   6.283   6.062 -0.3463 -0.9809  0.1092
  941TIP3   OH2 2758   1.818   1.134   0.179 -0.4380  0.5379  0.6383
  941TIP3    H1 2759   1.746   1.190   0.149  0.3599  0.4710 -1.4782
  941TIP3    H2 2760   1.780   1.046   0.181 -0.7038  0.6485  0.5159
  942TIP3   OH2 2761   2.804   4.977   0.214 -0.0867 -0.0213 -0.1263
  942TIP3    H1 2762   2.739   5.044   0.236 -0.2886 -0.1756 -0.2535
  942TIP3    H2 2763   2.753   4.897   0.202  0.1312 -0.1500 -0.1945
  943TIP3   OH2 2764   7.558   6.115   6.610  0.0256 -0.0351 -0.0540
  943TIP3    H1 2765   7.519   6.063   6.680  0.7011  0.9399  1.0680
  943TIP3    H2 2766   7.650   6.088   6.608  0.3906  1.1260  0.5659
  944TIP3   OH2 2767   2.562   3.627   0.106  0.1313 -0.3176 -0.1591
  944TIP3    H1 2768   2.517   3.632   0.190  1.1219  2.2723  0.2791
  944TIP3    H2 2769   2.522   3.697   0.053  1.0857 -0.4122 -1.0323
  945TIP3   OH2 2770   4.673   3.849   1.595 -0.2560  0.1302 -0.3298
  945TIP3    H1 2771   4.751   3.902   1.581  0.9959 -1.7012 -0.4087
  945TIP3    H2 2772   4.695   3.793   1.669 -1.6653 -0.0657 -0.0540
  946TIP3   OH2 2773   3.106   4.507   0.633  0.1905 -0.1406 -0.2067
  946TIP3    H1 2774   3.182   4.526   0.577  0.2120 -2.2520 -0.9294
  946TIP3    H2 2775   3.063   4.433   0.590 -1.2941 -0.0826  1.1577
  947TIP3   OH2 2776   2.746   5.183   0.707 -0.2156  0.5518 -0.2464
  947TIP3    H1 2777   2.713   5.243   0.774  1.8358  1.6758 -0.1987
  947TIP3    H2 2778   2.680   5.185   0.638 -1.2113  1.1856  0.7049
  948TIP3   OH2 2779   4.883   6.972   1.848  0.3734 -0.1215 -0.4287
  948TIP3    H1 2780   4.844   6.977   1.761  0.3239 -0.7429 -0.4446
  948TIP3    H2 2781   4.945   6.899   1.842  1.7026  0.9739 -0.4683
  949TIP3   OH2 2782   2.609   5.956   0.719 -0.5997 -0.0287 -0.4605
  949TIP3    H1 2783   2.522   5.916   0.714 -1.3626  1.2795  1.7401
  949TIP3    H2 2784   2.660   5.896   0.773 -0.0440 -0.9152 -1.9459
  950TIP3   OH2 2785   5.495   6.478   6.643  0.4921 -0.3569  0.2953
  950TIP3    H1 2786   5.413   6.447   6.681  0.1679  1.0949  0.8283
  950TIP3    H2 2787   5.487   6.460   6.550 -0.4422 -0.1917  0.3389
  951TIP3   OH2 2788   5.162   4.769   1.139 -0.0696  0.0499 -0.4576
  951TIP3    H1 2789   5.194   4.805   1.056 -0.0435  0.6947 -0.1745
  951TIP3    H2 2790   5.075   4.808   1.150 -0.1549 -0.1937 -0.2853
  952TIP3   OH2 2791   0.179   1.248   6.508 -0.1868  0.8902 -0.4318
  952TIP3    H1 2792   0.134   1.269   6.426 -0.6243 -0.7387 -0.6239
  952TIP3    H2 2793   0.207   1.157   6.497 -2.3161 -0.1545  2.1256
  953TIP3   OH2 2794   2.963   3.871   0.379  0.2427  0.8346  0.2113
  953TIP3    H1 2795   2.951   3.891   0.286  0.6972  0.3291  0.0418
  953TIP3    H2 2796   3.037   3.925   0.406  0.3652  0.6845  0.1790
  954TIP3   OH2 2797   2.206   2.700   4.088  0.3473 -0.1399 -0.0854
  954TIP3    H1 2798   2.222   2.664   4.000  0.4136 -0.3749  0.0209
  954TIP3    H2 2799   2.116   2.673   4.108  0.3448 -0.1174 -0.0666
  955TIP3   OH2 2800   3.676   5.039   1.612  0.2419 -0.1045  0.2944
  955TIP3    H1 2801   3.642   5.073   1.529  0.8334  1.1407  0.5390
  955TIP3    H2 2802   3.737   4.969   1.586  0.3274  0.1916 -0.3220
  956TIP3   OH2 2803   3.465   4.535   1.252 -0.5917 -0.0278 -0.1140
  956TIP3    H1 2804   3.547   4.583   1.262 -0.4626 -0.0640 -1.0010
  956TIP3    H2 2805   3.418   4.581   1.183  0.1655 -2.0271 -2.0116
  957TIP3   OH2 2806   4.787   1.539   0.190  0.4078 -0.4996  0.0678
  957TIP3    H1 2807   4.694   1.529   0.210  0.2983  1.5297  0.7017
  957TIP3    H2 2808   4.801   1.485   0.112 -1.3608 -0.5837 -0.2113
  958TIP3   OH2 2809   2.752   4.971   1.848 -0.1116 -0.1795  0.2553
  958TIP3    H1 2810   2.700   5.022   1.910  0.7423 -0.2875  1.0691
  958TIP3    H2 2811   2.802   4.910   1.902  1.4945  0.4915 -0.4372
  959TIP3   OH2 2812   4.678   2.721   1.026 -0.5171  0.2829  0.0604
  959TIP3    H1 2813   4.758   2.720   0.974  0.2751 -0.0858  1.2614
  959TIP3    H2 2814   4.686   2.645   1.083 -1.8355  0.1168  0.0243
  960TIP3   OH2 2815   2.899   2.631   1.078 -0.2148 -0.2275 -0.1116
  960TIP3    H1 2816   2.805   2.611   1.081 -0.6064  1.5614 -0.0712
  960TIP3    H2 2817   2.917   2.649   0.986  0.0016 -0.1991 -0.0634
  961TIP3   OH2 2818   0.891   3.899   2.271  0.1756  0.5006  0.0932
  961TIP3    H1 2819   0.885   3.809   2.303 -0.4789  1.0003  1.4417
  961TIP3    H2 2820   0.812   3.912   2.219  0.9372 -0.1212 -1.2397
  962TIP3   OH2 2821   2.631   3.468   1.690  0.3825 -0.0871 -0.1538
  962TIP3    H1 2822   2.726   3.458   1.688  0.4114  0.1912 -0.2421
  962TIP3    H2 2823   2.601   3.426   1.609  0.5433  0.9302 -0.7584
  963TIP3   OH2 2824   5.169   4.230   1.278  0.0997 -0.0539  0.1823
  963TIP3    H1 2825   5.199   4.201   1.364  0.2212 -0.8363 -0.1206
  963TIP3    H2 2826   5.249   4.242   1.227 -0.0405 -1.5593 -0.4379
  964TIP3   OH2 2827   4.922   4.064   2.489  0.6766 -0.2648 -0.3199
  964TIP3    H1 2828   4.862   4.008   2.441 -0.1680  0.1309  0.2540
  964TIP3    H2 2829   4.911   4.151   2.451  0.0280  0.0446  0.5457
  965TIP3   OH2 2830   3.195   3.289   2.745  0.3213  0.1237 -0.2863
  965TIP3    H1 2831   3.208   3.340   2.665  0.7209  0.6127  0.0845
  965TIP3    H2 2832   3.281   3.286   2.786  0.6609 -2.1811 -1.0656
  966TIP3   OH2 2833   2.913   3.426   1.248 -0.6816 -0.3494  0.1257
  966TIP3    H1 2834   2.946   3.478   1.175 -0.4370 -0.6366  0.0321
  966TIP3    H2 2835   2.847   3.368   1.209 -0.9772 -0.0886  0.2353
  967TIP3   OH2 2836   6.717   6.314   6.070 -0.0872  0.3185 -0.4028
  967TIP3    H1 2837   6.703   6.220   6.062  2.1799 -0.0751 -0.1733
  967TIP3    H2 2838   6.700   6.333   6.163 -2.3272  0.4909 -0.8184
  968TIP3   OH2 2839   4.591   3.379   2.285 -0.1461  0.6469  0.2249
  968TIP3    H1 2840   4.523   3.329   2.240  0.6606 -0.9748  0.7669
  968TIP3    H2 2841   4.603   3.457   2.231 -1.3732  0.2391 -0.6731
  969TIP3   OH2 2842   5.658   3.205   2.277  0.3971  0.1955 -0.3219
  969TIP3    H1 2843   5.617   3.208   2.191  1.5412 -1.9923 -0.9662
  969TIP3    H2 2844   5.719   3.279   2.277  0.9908 -0.2745 -1.7198
  970TIP3   OH2 2845   4.157   2.124   0.328 -0.0717  0.3241 -0.5888
  970TIP3    H1 2846   4.093   2.191   0.351 -0.3205  0.1435 -0.7508
  970TIP3    H2 2847   4.162   2.127   0.232 -1.4210 -1.1160 -0.7248
  971TIP3   OH2 2848   6.500   3.557   1.139 -0.5910 -0.1440  0.3796
  971TIP3    H1 2849   6.588   3.525   1.119  0.5114  1.1387  2.9272
  971TIP3    H2 2850   6.442   3.486   1.115  1.2807 -1.6127  0.0864
  972TIP3   OH2 2851   3.490   2.469   0.074  0.7541  0.8941  0.1075
  972TIP3    H1 2852   3.443   2.483   0.156  0.6008  0.8043  0.0347
  972TIP3    H2 2853   3.565   2.528   0.079  0.7765  0.8449  0.3373
  973TIP3   OH2 2854   1.830   3.893   0.474  0.4271 -0.0253 -0.2134
  973TIP3    H1 2855   1.812   3.943   0.553  1.8518  0.8034 -0.3847
  973TIP3    H2 2856   1.923   3.909   0.456  1.0329 -3.1201 -0.0297
  974TIP3   OH2 2857   2.298   5.099   0.127  0.0782  0.7775 -0.0344
  974TIP3    H1 2858   2.266   5.114   0.216  0.8290  1.0302  0.2011
  974TIP3    H2 2859   2.232   5.044   0.086 -0.4197  0.9068  0.5888
  975TIP3   OH2 2860   0.031   0.978   6.640  0.2150  0.1814  0.0133
  975TIP3    H1 2861   0.113   0.962   6.686 -0.4132  0.1041  1.1181
  975TIP3    H2 2862  -0.037   0.945   6.699 -0.5557 -0.5992 -1.2938
  976TIP3   OH2 2863   5.069   5.183   0.314  0.1678 -0.4969  0.2997
  976TIP3    H1 2864   5.040   5.133   0.237 -0.9717 -1.7978  1.5355
  976TIP3    H2 2865   5.027   5.268   0.304  1.3744 -0.0840 -1.3644
  977TIP3   OH2 2866   1.806   5.651   1.373 -0.5364  0.4542  0.1857
  977TIP3    H1 2867   1.795   5.663   1.279  2.1395  2.3267  0.0554
  977TIP3    H2 2868   1.762   5.726   1.413  0.5401  1.0658  0.2612
  978TIP3   OH2 2869   5.460   5.271   3.218  0.3697  0.0334  1.0559
  978TIP3    H1 2870   5.531   5.208   3.212  1.4642  1.2336  1.1334
  978TIP3    H2 2871   5.461   5.300   3.309 -1.1142 -0.9382  1.4058
  979TIP3   OH2 2872   4.614   2.921   1.337  0.2448 -0.6912  0.0987
  979TIP3    H1 2873   4.710   2.919   1.332  0.2874  0.9472  0.1999
  979TIP3    H2 2874   4.587   2.832   1.314  1.7073 -0.6933 -1.6512
  980TIP3   OH2 2875   5.307   4.298   0.487 -0.2046  0.9754 -0.1828
  980TIP3    H1 2876   5.391   4.302   0.533 -0.1239  0.8878 -0.3220
  980TIP3    H2 2877   5.300   4.382   0.442  0.3790  0.4998 -1.1695
  981TIP3   OH2 2878   7.227   7.640   5.433 -0.1051 -0.1475  0.3749
  981TIP3    H1 2879   7.168   7.582   5.384 -0.2860 -0.1392  0.5784
  981TIP3    H2 2880   7.168   7.704   5.474  0.1111  0.2843  0.0095
  982TIP3   OH2 2881   4.125   4.126   2.349 -0.2476 -0.0013 -0.1532
  982TIP3    H1 2882   4.149   4.176   2.272  1.5399  0.1053  0.4472
  982TIP3    H2 2883   4.053   4.175   2.389 -0.4530  0.5083 -1.1504
  983TIP3   OH2 2884   7.800   5.836   6.070 -0.7289  0.1858  0.1243
  983TIP3    H1 2885   7.856   5.758   6.068 -1.2987 -0.3228  2.4423
  983TIP3    H2 2886   7.861   5.909   6.068 -0.2067 -0.2653 -2.6659
  984TIP3   OH2 2887   1.784   7.227   6.766  0.2997  0.2594  0.3952
  984TIP3    H1 2888   1.728   7.298   6.798  1.4441  0.9285  0.9553
  984TIP3    H2 2889   1.870   7.248   6.801  0.6145 -1.5023  0.6833
  985TIP3   OH2 2890   3.276   4.441   1.982  0.0219 -0.8252  0.0115
  985TIP3    H1 2891   3.306   4.414   1.895 -1.1368 -3.7777  0.4581
  985TIP3    H2 2892   3.355   4.440   2.036  0.5394 -0.1715 -0.7247
  986TIP3   OH2 2893   3.393   3.861   1.564  0.7227 -0.4649 -0.7014
  986TIP3    H1 2894   3.411   3.800   1.636 -0.3420  0.9035  0.7482
  986TIP3    H2 2895   3.479   3.880   1.527  1.0864 -2.7226 -1.0917
  987TIP3   OH2 2896   4.300   3.995   0.334 -0.0303 -0.0306  0.0728
  987TIP3    H1 2897   4.294   4.090   0.328  0.7840 -0.0307 -1.0297
  987TIP3    H2 2898   4.394   3.977   0.338 -0.1879 -0.7705  0.8415
  988TIP3   OH2 2899   4.207   4.805   2.030  0.7007 -0.0378 -0.4272
  988TIP3    H1 2900   4.247   4.887   2.001  1.7397  0.2798  1.8502
  988TIP3    H2 2901   4.114   4.826   2.037  1.1845  1.5078  1.8814
  989TIP3   OH2 2902   6.108   0.567   0.861 -0.8888  0.4942  0.4595
  989TIP3    H1 2903   6.099   0.473   0.875 -0.0510  0.3080 -0.2437
  989TIP3    H2 2904   6.192   0.589   0.901 -1.1561  0.9823  0.7675
  990TIP3   OH2 2905   6.878   3.311   0.183  0.1213 -0.6724  0.4411
  990TIP3    H1 2906   6.809   3.264   0.136  2.6289 -1.2402 -2.8760
  990TIP3    H2 2907   6.872   3.401   0.152  0.5084 -0.5962  0.5755
  991TIP3   OH2 2908   7.793   6.977   6.515 -0.5499  0.2163 -0.2322
  991TIP3    H1 2909   7.725   7.042   6.531 -0.2000  0.2930  0.9614
  991TIP3    H2 2910   7.871   7.028   6.492 -0.2525  0.2328  0.7884
  992TIP3   OH2 2911   3.249   2.912   1.997  0.2364 -0.7812  0.5837
  992TIP3    H1 2912   3.180   2.890   1.936  0.1552  2.1961 -0.4591
  992TIP3    H2 2913   3.205   2.960   2.068  0.7205 -1.9619  1.7149
  993TIP3   OH2 2914   4.772   5.375   0.885  0.8729 -0.6204  0.6291
  993TIP3    H1 2915   4.756   5.283   0.908 -0.6552 -0.2734  1.0460
  993TIP3    H2 2916   4.700   5.423   0.927 -1.8958  0.0836 -4.4448
  994TIP3   OH2 2917   2.946   2.913   6.579  0.1646 -0.1065 -0.2127
  994TIP3    H1 2918   3.012   2.982   6.572 -0.4781  0.5691  0.2283
  994TIP3    H2 2919   2.946   2.871   6.494  0.6429  0.3806 -0.4547
  995TIP3   OH2 2920   1.893   1.611   6.879 -0.0280 -0.2168  0.5469
  995TIP3    H1 2921   1.986   1.614   6.903  0.2225 -1.4805 -0.2202
  995TIP3    H2 2922   1.873   1.701   6.851  0.7850  0.2283  1.3585
  996TIP3   OH2 2923   3.545   3.080   0.522 -0.0399 -0.0682 -0.1142
  996TIP3    H1 2924   3.572   3.131   0.599 -0.1633 -1.3573  0.7994
  996TIP3    H2 2925   3.626   3.067   0.472  0.2956 -0.4499  0.5281
  997TIP3   OH2 2926   4.225   5.357   0.751 -0.1758 -0.0908  0.4770
  997TIP3    H1 2927   4.288   5.360   0.678 -0.6579 -1.1117  0.0072
  997TIP3    H2 2928   4.207   5.449   0.770 -0.1597  0.1933 -0.8056
  998TIP3   OH2 2929   4.445   4.155   1.189  0.0033  0.0307  0.6924
  998TIP3    H1 2930   4.516   4.092   1.178  0.2608  0.4061  0.1455
  998TIP3    H2 2931   4.483   4.224   1.243 -0.1785 -0.1273  1.0222
  999TIP3   OH2 2932   1.502   0.094   5.813 -0.6236  0.0916 -0.0175
  999TIP3    H1 2933   1.495   0.187   5.835  2.0940  0.7452 -1.7223
  999TIP3    H2 2934   1.576   0.089   5.753 -2.5688 -2.8045 -2.2713
 1000TIP3   OH2 2935   2.596   2.144   0.786 -0.0937 -0.2611 -1.1682
 1000TIP3    H1 2936   2.506   2.115   0.797 -0.1576 -0.1229 -1.3224
 1000TIP3    H2 2937   2.637   2.077   0.731 -0.5198  0.4647 -2.3956
 1001TIP3   OH2 2938   2.784   1.316   5.604  0.3160 -0.1665 -0.2317
 1001TIP3    H1 2939   2.701   1.353   5.576  0.7031  1.6877  0.9950
 1001TIP3    H2 2940   2.768   1.222   5.610 -1.5053  0.1135 -0.5700
 1002TIP3   OH2 2941   3.399   2.393   3.338 -0.4493  0.6127 -0.2461
 1002TIP3    H1 2942   3.444   2.454   3.396  0.1246 -0.1821  0.1544
 1002TIP3    H2 2943   3.393   2.439   3.255 -1.3344  1.7882  0.4539
 1003TIP3   OH2 2944   3.533   3.785   0.339  0.2380  0.4683  0.2154
 1003TIP3    H1 2945   3.602   3.850   0.325  1.3089 -0.5798  0.5327
 1003TIP3    H2 2946   3.496   3.771   0.252  1.0012  0.4067 -0.0997
 1004TIP3   OH2 2947   7.575   1.163   5.252 -0.0709 -0.1762 -0.4851
 1004TIP3    H1 2948   7.549   1.226   5.185  1.0761 -0.4224 -1.1722
 1004TIP3    H2 2949   7.662   1.135   5.226  0.3429 -0.3587  1.0513
 1005TIP3   OH2 2950   3.761   4.617   0.539  0.4546 -0.5016 -0.0032
 1005TIP3    H1 2951   3.767   4.597   0.633  0.5033 -2.3087 -0.3741
 1005TIP3    H2 2952   3.849   4.648   0.516  0.2249  0.7249  0.7039
 1006TIP3   OH2 2953   4.925   4.670   1.516  0.1333 -0.0167 -0.0366
 1006TIP3    H1 2954   4.878   4.661   1.433  1.2471  1.4555 -0.8422
 1006TIP3    H2 2955   4.922   4.583   1.555  0.6031 -0.9856 -2.1606
 1007TIP3   OH2 2956   7.046   4.708   3.852  0.6332 -0.0696 -0.1002
 1007TIP3    H1 2957   6.983   4.771   3.819 -0.4243 -1.9228 -1.7305
 1007TIP3    H2 2958   6.996   4.657   3.917  1.5944  1.0358  1.5202
 1008TIP3   OH2 2959   1.847   3.905   2.451 -0.1665 -0.1965  0.3005
 1008TIP3    H1 2960   1.761   3.901   2.409  0.4370  0.5253 -1.0386
 1008TIP3    H2 2961   1.838   3.850   2.529 -2.1271  0.6398  0.6949
 1009TIP3   OH2 2962   2.113   2.541   2.970  0.2572  0.1661  0.1494
 1009TIP3    H1 2963   2.179   2.553   2.903 -1.5425 -1.2574 -1.9446
 1009TIP3    H2 2964   2.116   2.447   2.991 -0.6790  0.1899  0.4456
 1010TIP3   OH2 2965   3.033   4.844   0.350  0.3124  0.6368 -0.1184
 1010TIP3    H1 2966   3.042   4.759   0.305  2.7048  1.4759 -1.2740
 1010TIP3    H2 2967   2.958   4.885   0.306  0.4406 -0.0125 -0.9644
 1011TIP3   OH2 2968   4.326   3.889   2.406 -0.4181  0.3652  0.3932
 1011TIP3    H1 2969   4.324   3.871   2.312 -1.0925  1.7832  0.1190
 1011TIP3    H2 2970   4.390   3.960   2.415 -1.1462  0.9793  0.8570
 1012TIP3   OH2 2971   4.831   5.429   1.711 -0.2288 -0.4689 -0.5146
 1012TIP3    H1 2972   4.826   5.524   1.699 -1.1024 -0.2819  1.2133
 1012TIP3    H2 2973   4.925   5.409   1.704  0.3102  0.9525  2.0326
 1013TIP3   OH2 2974   1.723   5.468   0.629 -0.1153  0.1798 -0.2253
 1013TIP3    H1 2975   1.641   5.479   0.581  0.2296  0.8151 -0.6799
 1013TIP3    H2 2976   1.790   5.465   0.561  0.2396 -0.3071  0.1456
 1014TIP3   OH2 2977   3.621   3.792   1.410 -0.0054 -0.5370  0.3078
 1014TIP3    H1 2978   3.698   3.787   1.354 -0.1296  0.0030  0.0849
 1014TIP3    H2 2979   3.578   3.707   1.398  0.4564 -0.7698  0.2947
 1015TIP3   OH2 2980   4.543   6.660   6.462  0.1645 -0.3354  0.4516
 1015TIP3    H1 2981   4.575   6.611   6.387  1.3987 -0.2030  0.8835
 1015TIP3    H2 2982   4.587   6.745   6.456  0.3007 -0.3337  1.3359
 1016TIP3   OH2 2983   2.982   2.671   0.810  0.3999 -0.2585  0.7156
 1016TIP3    H1 2984   2.961   2.586   0.773  1.7574 -0.5561  0.6019
 1016TIP3    H2 2985   2.938   2.734   0.753  2.9030 -0.6740 -1.7614
 1017TIP3   OH2 2986   2.657   3.397   0.262 -0.0016 -0.1380  0.2934
 1017TIP3    H1 2987   2.656   3.447   0.180 -2.0000  0.6120  0.7586
 1017TIP3    H2 2988   2.632   3.308   0.236 -0.1343 -0.0221  0.0214
 1018TIP3   OH2 2989   0.223   6.409   6.906 -0.0348  0.7260 -0.7641
 1018TIP3    H1 2990   0.171   6.489   6.899 -0.0700  0.8834  0.9723
 1018TIP3    H2 2991   0.270   6.418   6.989  0.2602 -0.8711 -0.7415
 1019TIP3   OH2 2992   3.016   2.444   0.342  0.3462  0.3242 -0.4707
 1019TIP3    H1 2993   3.004   2.518   0.401 -1.4828  0.1593 -0.6225
 1019TIP3    H2 2994   2.990   2.478   0.256 -0.1181 -0.3757 -0.6082
 1020TIP3   OH2 2995   6.507   5.458   5.147 -0.0088  0.0042 -0.3127
 1020TIP3    H1 2996   6.431   5.410   5.115 -0.9313  0.4009  1.2315
 1020TIP3    H2 2997   6.472   5.544   5.173  0.7706 -0.1471  1.3102
 1021TIP3   OH2 2998   6.459   7.181   6.164 -0.5376 -0.0867 -0.5079
 1021TIP3    H1 2999   6.488   7.104   6.213 -1.8700 -0.2413  0.0629
 1021TIP3    H2 3000   6.418   7.237   6.229  0.4621  1.1441 -0.9184
 1022TIP3   OH2 3001   5.288   6.277   5.588  0.6253 -0.2057 -0.5619
 1022TIP3    H1 3002   5.371   6.294   5.633 -0.9682  3.3389  1.1993
 1022TIP3    H2 3003   5.266   6.360   5.546 -2.6972 -0.6834  0.1437
 1023TIP3   OH2 3004   4.068   4.480   0.455 -0.2457  0.2822  0.6570
 1023TIP3    H1 3005   4.074   4.412   0.522  1.4720  0.5845  0.8291
 1023TIP3    H2 3006   4.091   4.436   0.373 -0.7523  0.2822  0.5132
 1024TIP3   OH2 3007   3.880   6.429   6.829 -0.4100 -0.0570 -0.1606
 1024TIP3    H1 3008   3.968   6.434   6.792 -0.5335  0.5618 -0.3707
 1024TIP3    H2 3009   3.830   6.495   6.781 -1.3676 -1.4225 -1.0827
 1025TIP3   OH2 3010   6.627   6.788   5.266 -0.5992 -0.5598  0.4141
 1025TIP3    H1 3011   6.706   6.768   5.316 -0.5118 -1.8865 -0.2262
 1025TIP3    H2 3012   6.604   6.706   5.223 -0.2934  0.6625 -2.2521
 1026TIP3   OH2 3013   2.628   4.789   1.137 -0.0419  0.1501 -0.0180
 1026TIP3    H1 3014   2.698   4.791   1.202  0.4411 -2.7135 -0.3732
 1026TIP3    H2 3015   2.667   4.829   1.059  0.9687 -0.7053  0.0358
 1027TIP3   OH2 3016   4.860   4.833   1.046  0.2691 -0.5145 -0.3818
 1027TIP3    H1 3017   4.855   4.765   0.979  0.5497 -0.4140 -0.5080
 1027TIP3    H2 3018   4.858   4.915   0.997 -0.8817 -0.4106 -0.1822
 1028TIP3   OH2 3019   6.026   7.393   6.058 -0.1963  0.6430 -0.3925
 1028TIP3    H1 3020   5.935   7.364   6.056 -0.3824  1.2513 -2.8961
 1028TIP3    H2 3021   6.077   7.312   6.051 -0.5329  0.3100  0.9460
 1029TIP3   OH2 3022   5.124   3.888   0.729 -0.0086 -0.1173 -0.2692
 1029TIP3    H1 3023   5.034   3.886   0.761  0.1343  1.2415  0.2664
 1029TIP3    H2 3024   5.138   3.979   0.703  0.2653 -0.9122 -3.1525
 1030TIP3   OH2 3025   2.465   2.899   2.541  0.2519  0.2295  0.0036
 1030TIP3    H1 3026   2.381   2.930   2.507 -0.3650  0.8964  2.0379
 1030TIP3    H2 3027   2.516   2.979   2.555  0.4145 -0.0091  0.8033
 1031TIP3   OH2 3028   8.316   1.742   1.489  0.4076 -0.5296  0.8702
 1031TIP3    H1 3029   8.295   1.835   1.499 -1.2410 -0.7454 -0.5510
 1031TIP3    H2 3030   8.371   1.738   1.411  2.2800 -0.4970  2.1640
 1032TIP3   OH2 3031   5.272   2.829   0.563 -0.4075 -0.9274 -0.4694
 1032TIP3    H1 3032   5.268   2.922   0.541  1.1404 -0.9291 -0.8101
 1032TIP3    H2 3033   5.195   2.814   0.618 -1.2697  0.2981 -1.3284
 1033TIP3   OH2 3034   5.089   4.350   2.732  0.1701 -0.3437 -0.0775
 1033TIP3    H1 3035   5.096   4.428   2.788 -2.2276 -0.2264  0.0853
 1033TIP3    H2 3036   5.114   4.382   2.645  1.1452  0.1324  0.3629
 1034TIP3   OH2 3037   6.005   3.100   0.016 -0.0988  0.1159  0.3563
 1034TIP3    H1 3038   5.985   3.035  -0.051  1.3546 -0.5985  0.5925
 1034TIP3    H2 3039   5.929   3.098   0.075 -1.9888  1.6818 -1.9155
 1035TIP3   OH2 3040   6.115   2.593   0.921 -0.3191  0.3078 -0.1420
 1035TIP3    H1 3041   6.155   2.509   0.941  0.4131  0.4876 -0.8479
 1035TIP3    H2 3042   6.024   2.572   0.901  0.6398 -0.7372 -3.6486
 1036TIP3   OH2 3043   7.721   6.633   6.373 -0.4293 -0.3537  0.3731
 1036TIP3    H1 3044   7.731   6.613   6.467  4.2393  0.1511  0.0766
 1036TIP3    H2 3045   7.657   6.704   6.371 -1.1282 -0.8226  3.1216
 1037TIP3   OH2 3046   3.245   5.180   0.034 -0.3296  0.5568  0.4903
 1037TIP3    H1 3047   3.300   5.151   0.106 -0.9813 -1.7544  0.1035
 1037TIP3    H2 3048   3.277   5.130  -0.042 -1.4856  0.8369 -0.1953
 1038TIP3   OH2 3049   7.557   6.960   6.107  0.5470  0.6366  0.2249
 1038TIP3    H1 3050   7.523   6.942   6.019  0.8078  0.3946  0.1747
 1038TIP3    H2 3051   7.579   7.053   6.105 -1.7379  1.2171  0.8021
 1039TIP3   OH2 3052   5.298   4.963   1.386  0.6766  0.3792 -0.1511
 1039TIP3    H1 3053   5.286   5.003   1.473  0.9562 -1.9560  0.9926
 1039TIP3    H2 3054   5.368   4.899   1.398 -1.1078 -1.8976 -1.4222
 1040TIP3   OH2 3055   0.428   7.588   5.171 -0.0518  0.4080 -0.2394
 1040TIP3    H1 3056   0.424   7.500   5.134 -3.5179  0.7558 -0.8773
 1040TIP3    H2 3057   0.435   7.574   5.265 -1.7366 -0.5986 -0.2458
 1041TIP3   OH2 3058   2.989   0.122   6.577 -0.4427 -0.1427 -0.0398
 1041TIP3    H1 3059   3.040   0.078   6.509  0.5302 -0.3804  0.8264
 1041TIP3    H2 3060   2.923   0.172   6.530  1.1349  0.8726 -1.2206
 1042TIP3   OH2 3061   6.702   3.763   1.469  0.4260  0.2219  0.2968
 1042TIP3    H1 3062   6.779   3.791   1.420  0.0452  0.7685  0.0058
 1042TIP3    H2 3063   6.735   3.697   1.531  0.7156 -1.2931 -1.4346
 1043TIP3   OH2 3064   2.966   4.004   0.789  0.2765 -0.1636  0.1163
 1043TIP3    H1 3065   3.027   4.068   0.753 -1.0618 -0.3603 -2.6558
 1043TIP3    H2 3066   3.006   3.919   0.769  0.0690 -0.2474  0.0520
 1044TIP3   OH2 3067   1.231   6.715   4.046  0.4840 -0.7983 -0.1669
 1044TIP3    H1 3068   1.308   6.693   3.993  1.2320 -0.8215  0.9080
 1044TIP3    H2 3069   1.208   6.633   4.089  0.8617 -0.4004  0.7907
 1045TIP3   OH2 3070   3.653   4.061   1.583 -0.1659 -0.0837 -0.1719
 1045TIP3    H1 3071   3.680   4.045   1.493 -1.1275  0.0625 -0.4943
 1045TIP3    H2 3072   3.628   4.153   1.585 -2.1433 -0.6008 -0.2934
 1046TIP3   OH2 3073   6.575   3.034   0.474 -0.1380 -0.9600  0.5061
 1046TIP3    H1 3074   6.554   3.114   0.427 -1.9779 -1.6542  0.1168
 1046TIP3    H2 3075   6.572   3.059   0.566 -1.4529 -0.7401  0.4146
 1047TIP3   OH2 3076   5.466   4.033   1.528 -0.5367 -0.2900 -0.2480
 1047TIP3    H1 3077   5.539   4.045   1.589 -1.1633  1.0838  0.2487
 1047TIP3    H2 3078   5.503   3.980   1.457  0.4140 -1.2320  0.9239
 1048TIP3   OH2 3079   5.051   3.245   0.303 -0.1790 -0.4104 -0.0891
 1048TIP3    H1 3080   4.956   3.240   0.296 -0.5134  1.5609  2.1051
 1048TIP3    H2 3081   5.076   3.316   0.243 -0.4411  0.9116  1.3214
 1049TIP3   OH2 3082   1.038   7.114   5.720 -0.0974 -0.3407  0.1615
 1049TIP3    H1 3083   0.949   7.103   5.688 -0.4860 -0.0280  1.0974
 1049TIP3    H2 3084   1.086   7.154   5.647 -0.9108  0.1843 -0.0853
 1050TIP3   OH2 3085   1.257   7.406   5.548 -0.5655  0.4297 -0.0785
 1050TIP3    H1 3086   1.289   7.420   5.637 -1.0792 -1.7997  0.5070
 1050TIP3    H2 3087   1.327   7.357   5.505 -1.0690 -0.0654 -0.3416
 1051TIP3   OH2 3088   5.024   5.160   0.968  0.7134 -0.2106 -0.3925
 1051TIP3    H1 3089   4.935   5.169   1.002  0.6475 -2.3281  0.0712
 1051TIP3    H2 3090   5.077   5.141   1.045  1.7371  2.0179 -0.5339
 1052TIP3   OH2 3091   5.734   3.196   1.067  0.2845  0.2634 -0.1803
 1052TIP3    H1 3092   5.728   3.292   1.063 -0.0040  0.2872  0.6461
 1052TIP3    H2 3093   5.721   3.168   0.976 -2.0628  0.8925 -0.0902
 1053TIP3   OH2 3094   7.009   1.437   1.864 -0.4130  0.4938  0.1158
 1053TIP3    H1 3095   7.072   1.438   1.936  0.2319  2.1843 -0.4452
 1053TIP3    H2 3096   6.948   1.508   1.884 -1.6347 -0.5446  0.1871
 1054TIP3   OH2 3097   0.526   6.313   6.678 -0.4792 -0.2077 -0.5160
 1054TIP3    H1 3098   0.596   6.360   6.632 -2.6595  1.1087 -2.6083
 1054TIP3    H2 3099   0.496   6.375   6.744  0.2134 -0.7206  0.2891
 1055TIP3   OH2 3100   6.471   3.240   2.937  0.0114  0.6379  0.6328
 1055TIP3    H1 3101   6.555   3.283   2.954  0.1451  1.5608 -2.0859
 1055TIP3    H2 3102   6.408   3.312   2.932 -0.5090  0.1635  0.2385
 1056TIP3   OH2 3103   6.195   3.588   2.686 -0.0126  0.6155  0.2133
 1056TIP3    H1 3104   6.124   3.593   2.622 -0.2504  0.3282  0.4535
 1056TIP3    H2 3105   6.268   3.552   2.636 -1.0031 -2.2573  0.7679
 1057TIP3   OH2 3106   4.734   4.546   0.272  0.3694  0.3066  0.0256
 1057TIP3    H1 3107   4.710   4.507   0.188 -2.7380  1.3401  0.3488
 1057TIP3    H2 3108   4.737   4.640   0.255  3.0610  0.3146  0.3480
 1058TIP3   OH2 3109   7.011   3.976   2.051 -0.3971  0.0421  0.0876
 1058TIP3    H1 3110   6.979   4.061   2.080 -2.1791 -0.5081 -0.2052
 1058TIP3    H2 3111   7.086   3.996   1.996  0.1610  1.3393  1.3033
 1059TIP3   OH2 3112   8.337   7.871   6.446  0.6629  0.2494  0.0107
 1059TIP3    H1 3113   8.285   7.808   6.396  0.0846  0.9092 -0.2226
 1059TIP3    H2 3114   8.287   7.952   6.443  1.6053  0.8386 -0.0416
 1060TIP3   OH2 3115   5.593   3.631   0.025 -0.3198 -0.1203  0.0028
 1060TIP3    H1 3116   5.528   3.700   0.027  0.8271  1.0278 -1.3629
 1060TIP3    H2 3117   5.674   3.674  -0.004  0.9454 -1.5936  1.2180
 1061TIP3   OH2 3118   1.122   6.938   5.340 -0.0064  0.1979  0.3340
 1061TIP3    H1 3119   1.193   6.989   5.379  1.6881 -3.4167  2.1702
 1061TIP3    H2 3120   1.163   6.890   5.268 -1.1197 -0.1206 -0.0960
 1062TIP3   OH2 3121   5.409   3.462   1.625  0.3411  0.4268  0.2590
 1062TIP3    H1 3122   5.397   3.457   1.720  0.0379 -1.6628  0.1390
 1062TIP3    H2 3123   5.455   3.381   1.603  1.9703  1.7242 -1.1555
 1063TIP3   OH2 3124   4.780   5.163   0.446  0.1749 -0.0917  0.0116
 1063TIP3    H1 3125   4.808   5.248   0.480  1.1158 -1.3671  2.5202
 1063TIP3    H2 3126   4.708   5.137   0.503 -0.9217 -0.4792 -1.4921
 1064TIP3   OH2 3127   3.098   4.895   1.026 -0.2871 -0.5171 -0.3202
 1064TIP3    H1 3128   3.161   4.958   1.061 -0.1498 -0.4098 -0.7488
 1064TIP3    H2 3129   3.039   4.877   1.098  0.7409 -1.2736  0.3435
 1065TIP3   OH2 3130   2.729   1.060   5.636 -0.3701  0.4273  0.1013
 1065TIP3    H1 3131   2.805   1.009   5.663 -0.8064  0.1214  0.7687
 1065TIP3    H2 3132   2.670   1.056   5.711 -0.4902  1.7420  0.0832
 1066TIP3   OH2 3133   3.699   3.184   1.504  0.9106 -0.7347  0.2779
 1066TIP3    H1 3134   3.696   3.113   1.569 -1.0025  0.2884  1.3349
 1066TIP3    H2 3135   3.612   3.185   1.465  1.1319  0.6185 -0.2121
 1067TIP3   OH2 3136   5.800   2.918   1.634 -0.1569  0.1153 -0.3133
 1067TIP3    H1 3137   5.708   2.914   1.660 -0.6911  0.9838 -2.0372
 1067TIP3    H2 3138   5.819   3.012   1.630  0.8081 -0.0606  0.0058
 1068TIP3   OH2 3139   2.407   2.639   5.717  0.1328 -0.1890  0.6583
 1068TIP3    H1 3140   2.391   2.565   5.775 -0.8129 -0.9464 -0.5489
 1068TIP3    H2 3141   2.501   2.654   5.722  0.3006 -1.3481  1.0589
 1069TIP3   OH2 3142   6.391   3.092   1.659 -0.3843 -0.8618 -0.1141
 1069TIP3    H1 3143   6.401   3.109   1.565 -0.9595 -0.3872 -0.0908
 1069TIP3    H2 3144   6.321   3.152   1.687 -0.2356 -1.0245  0.6086
 1070TIP3   OH2 3145   1.202   0.360   6.264 -0.1580  0.2657 -0.4033
 1070TIP3    H1 3146   1.125   0.412   6.239  0.2919  1.6363  0.9571
 1070TIP3    H2 3147   1.190   0.276   6.221 -2.3141  0.5481 -0.3929
 1071TIP3   OH2 3148   1.415   7.424   5.162 -0.4497  0.3330  0.2818
 1071TIP3    H1 3149   1.424   7.334   5.130 -0.5618  0.9769 -1.6369
 1071TIP3    H2 3150   1.489   7.436   5.222 -0.1595 -0.8848  0.1763
 1072TIP3   OH2 3151   2.799   0.252   6.398  0.1188 -0.6889  0.2937
 1072TIP3    H1 3152   2.748   0.209   6.329  0.4820  0.9088 -1.0045
 1072TIP3    H2 3153   2.735   0.304   6.446  0.0478 -0.9487  0.4820
 1073TIP3   OH2 3154   5.875   3.262   0.800 -0.2104 -0.7163  0.2188
 1073TIP3    H1 3155   5.894   3.336   0.742 -1.2624  0.0742  0.8523
 1073TIP3    H2 3156   5.798   3.220   0.761 -0.6126 -0.4846  0.7569
 1074TIP3   OH2 3157   5.668   5.083   1.440  0.6762  1.0294 -0.0334
 1074TIP3    H1 3158   5.731   5.090   1.368  0.6600  0.1538 -0.1454
 1074TIP3    H2 3159   5.599   5.145   1.417  0.5624  0.5945 -0.8972
 1075TIP3   OH2 3160   2.404   1.729   5.916 -0.2161 -1.1399  0.0311
 1075TIP3    H1 3161   2.470   1.667   5.947 -0.7469 -2.0250 -0.5833
 1075TIP3    H2 3162   2.325   1.708   5.967 -0.1221 -0.3112  0.5217
 1076TIP3   OH2 3163   4.923   4.435   1.640  0.3304 -0.1136  0.3647
 1076TIP3    H1 3164   4.980   4.361   1.621  0.1454  0.4724 -2.6004
 1076TIP3    H2 3165   4.847   4.395   1.683 -0.1902 -1.8167 -2.0280
 1077TIP3   OH2 3166   4.240   1.491   6.159 -0.3917  0.3842 -0.5640
 1077TIP3    H1 3167   4.193   1.533   6.231  0.1728  0.8787 -0.4840
 1077TIP3    H2 3168   4.330   1.523   6.167 -0.0386 -0.5398 -0.7246
 1078TIP3   OH2 3169   5.828   5.094   1.218 -0.3689  0.5210  0.5345
 1078TIP3    H1 3170   5.842   5.183   1.188 -0.8857  1.1857  2.2050
 1078TIP3    H2 3171   5.906   5.074   1.271  0.5350 -0.6333 -1.1673
 1079TIP3   OH2 3172   5.308   4.958   0.231 -0.1516  0.5813  0.3866
 1079TIP3    H1 3173   5.225   4.998   0.257 -0.7632 -0.9557  0.8611
 1079TIP3    H2 3174   5.289   4.917   0.146 -0.0843 -0.4290  0.8593
 1080TIP3   OH2 3175   7.031   7.885   6.647 -0.1797 -0.0404 -0.1613
 1080TIP3    H1 3176   7.121   7.878   6.614 -0.0086 -2.2976  0.6886
 1080TIP3    H2 3177   7.039   7.942   6.724  0.6370 -0.7630  0.2945
 1081TIP3   OH2 3178   5.023   6.370   0.044  0.0305  0.1737 -0.1942
 1081TIP3    H1 3179   5.015   6.360   0.139 -0.8722  0.6864 -0.2051
 1081TIP3    H2 3180   5.109   6.411   0.031  0.7737 -1.2124  0.2964
 1082TIP3   OH2 3181   1.978   0.556   5.801  0.1290 -0.4280 -0.0747
 1082TIP3    H1 3182   1.923   0.553   5.879 -0.7593  0.1186 -0.6603
 1082TIP3    H2 3183   2.064   0.584   5.833 -0.1635 -0.4373  0.7366
 1083TIP3   OH2 3184   7.370   5.524   5.726 -0.3173 -0.2712  0.2330
 1083TIP3    H1 3185   7.302   5.516   5.658  1.3640 -2.8110 -1.2330
 1083TIP3    H2 3186   7.323   5.553   5.804 -2.8841 -0.7425 -1.0921
 1084TIP3   OH2 3187   6.806   4.796   1.983 -0.1820 -0.1642  0.1156
 1084TIP3    H1 3188   6.827   4.889   1.993 -0.5826 -0.0805  0.2076
 1084TIP3    H2 3189   6.771   4.789   1.895 -0.6677 -0.1269  0.3032
 1085TIP3   OH2 3190   6.044   4.261   0.821 -0.1397  0.3692 -0.2609
 1085TIP3    H1 3191   6.081   4.199   0.884  0.1699  0.6216 -0.1931
 1085TIP3    H2 3192   6.048   4.346   0.865 -1.4034  0.2943 -0.0064
 1086TIP3   OH2 3193   6.565   3.799   0.533  0.0879 -0.6876 -0.6153
 1086TIP3    H1 3194   6.474   3.784   0.505 -0.0015 -1.6296  0.1330
 1086TIP3    H2 3195   6.617   3.747   0.472  0.1616  0.2533 -1.3560
 1087TIP3   OH2 3196   0.052   4.263   0.227 -0.2261  0.0879 -0.2672
 1087TIP3    H1 3197   0.069   4.347   0.269 -2.9725  0.4768  0.1604
 1087TIP3    H2 3198   0.071   4.278   0.135 -0.4123  1.0757 -0.1499
 1088TIP3   OH2 3199   2.219   2.702   6.551  0.4066 -0.2326 -0.1010
 1088TIP3    H1 3200   2.272   2.680   6.627  2.1673  2.8118 -0.3959
 1088TIP3    H2 3201   2.167   2.777   6.578 -0.0181 -0.0278 -1.4316
 1089TIP3   OH2 3202   4.744   1.668   6.377  0.5480 -0.1665  0.0342
 1089TIP3    H1 3203   4.777   1.594   6.326 -0.2028 -0.5776  0.1343
 1089TIP3    H2 3204   4.773   1.652   6.466  2.2892  0.8064 -0.3305
 1090TIP3   OH2 3205   4.957   4.029   1.179  0.0798  0.1973 -0.0838
 1090TIP3    H1 3206   4.890   4.067   1.122 -1.7259 -0.0247  1.8398
 1090TIP3    H2 3207   5.005   4.105   1.214  0.2033  0.4005 -0.6788
 1091TIP3   OH2 3208   4.647   2.442   1.111 -0.1608  0.1512 -0.1360
 1091TIP3    H1 3209   4.716   2.468   1.171 -0.5144 -0.4434  0.5383
 1091TIP3    H2 3210   4.676   2.358   1.076  0.3922  0.8456 -1.3667
 1092TIP3   OH2 3211   6.922   4.689   0.850 -0.4682  0.1490  0.2557
 1092TIP3    H1 3212   6.973   4.654   0.923 -0.9306  1.3867  1.1890
 1092TIP3    H2 3213   6.858   4.620   0.830 -0.9454  0.1825  1.6349
 1093TIP3   OH2 3214   7.290   7.933   6.007  0.2705 -0.3858 -0.3277
 1093TIP3    H1 3215   7.293   7.837   6.012 -3.0212 -0.5031  0.3054
 1093TIP3    H2 3216   7.246   7.952   5.924  1.9281  0.6246 -0.9982
 1094TIP3   OH2 3217   5.971   5.342   0.412  0.1307 -0.2295 -0.2153
 1094TIP3    H1 3218   5.945   5.433   0.423  0.4081 -0.2627  0.7166
 1094TIP3    H2 3219   5.900   5.303   0.360 -0.7892  0.1337  0.7473
 1095TIP3   OH2 3220   4.631   3.823   0.601 -0.2422  0.6627 -0.2170
 1095TIP3    H1 3221   4.593   3.910   0.589  1.3951  1.7340  1.9106
 1095TIP3    H2 3222   4.698   3.816   0.533 -1.5779  0.3269 -1.5165
 1096TIP3   OH2 3223   7.005   5.366   6.741  0.0319  0.0357  0.3206
 1096TIP3    H1 3224   7.005   5.450   6.696  1.5365 -1.3155 -2.3091
 1096TIP3    H2 3225   6.912   5.340   6.744 -0.1002  0.1754 -1.9835
 1097TIP3   OH2 3226   7.445   3.489   1.149  0.4342  0.6022 -0.3593
 1097TIP3    H1 3227   7.406   3.526   1.228  2.6024  0.9373  0.5902
 1097TIP3    H2 3228   7.436   3.394   1.161 -2.6473  0.7043 -1.5149
 1098TIP3   OH2 3229   6.305   5.454   0.307 -0.4192  0.1978  0.7329
 1098TIP3    H1 3230   6.252   5.512   0.252  1.2698 -0.1671 -1.3833
 1098TIP3    H2 3231   6.289   5.367   0.271 -0.3275 -0.2137  1.6946
 1099TIP3   OH2 3232   6.098   4.083   0.596 -0.2218  0.4299 -0.4051
 1099TIP3    H1 3233   6.169   4.106   0.535 -0.7784  0.0410 -1.2091
 1099TIP3    H2 3234   6.098   4.154   0.660  0.0425  1.1185 -1.1497
 1100TIP3   OH2 3235   5.568   2.920   1.766  0.3388  0.0066  0.1485
 1100TIP3    H1 3236   5.598   2.958   1.848 -0.6880  0.7605  0.1906
 1100TIP3    H2 3237   5.488   2.969   1.745 -0.3755 -1.3680 -0.3927
 1101TIP3   OH2 3238   6.892   7.897   6.392  0.4617 -0.3193 -0.5762
 1101TIP3    H1 3239   6.962   7.897   6.326  1.1482  1.3428  0.1044
 1101TIP3    H2 3240   6.938   7.903   6.476 -0.4819  1.3196 -0.1397
 1102TIP3   OH2 3241   7.073   6.177   4.687 -0.3327  0.1807  0.6478
 1102TIP3    H1 3242   7.001   6.216   4.737  1.5360  0.3700  3.2674
 1102TIP3    H2 3243   7.111   6.251   4.639 -1.0467  0.3178  0.2811
 1103TIP3   OH2 3244   5.274   3.087   0.346  0.3956  0.5082  0.0738
 1103TIP3    H1 3245   5.233   3.002   0.333  1.1906 -0.0224  0.9623
 1103TIP3    H2 3246   5.202   3.150   0.344 -0.3075 -0.2860  0.3911
 1104TIP3   OH2 3247   5.279   1.683   0.032 -0.0063  0.1647  0.4033
 1104TIP3    H1 3248   5.342   1.673  -0.039  0.0872  0.0259  0.5076
 1104TIP3    H2 3249   5.211   1.618   0.014 -0.0280  0.1891  0.3931
 1105TIP3   OH2 3250   0.026   7.245   6.711 -1.3138 -0.0134  0.6341
 1105TIP3    H1 3251   0.087   7.293   6.656 -0.5413 -0.8961  0.7116
 1105TIP3    H2 3252  -0.048   7.305   6.723 -0.1484  1.3576  1.1616
 1106TIP3   OH2 3253   6.192   2.503   2.883  0.0232  0.4003 -0.3483
 1106TIP3    H1 3254   6.107   2.525   2.846 -0.7669 -0.0888  1.1502
 1106TIP3    H2 3255   6.186   2.410   2.904  1.1373  0.2201 -0.7624
 1107TIP3   OH2 3256   7.468   5.040   5.054 -0.0941 -0.6713 -0.1159
 1107TIP3    H1 3257   7.403   4.976   5.084  0.2873 -0.6420  0.7706
 1107TIP3    H2 3258   7.502   5.002   4.972 -1.2582 -0.6603 -0.6174
 1108TIP3   OH2 3259   0.397   2.256   6.417 -0.0271 -0.4034 -0.1676
 1108TIP3    H1 3260   0.403   2.236   6.511  0.5864 -0.6292 -0.2511
 1108TIP3    H2 3261   0.387   2.351   6.414 -0.7991 -0.4714  0.1545
 1109TIP3   OH2 3262   3.135   0.045   6.350  0.3326 -0.0707 -0.0332
 1109TIP3    H1 3263   3.089   0.049   6.267  0.9239 -1.4230 -0.4279
 1109TIP3    H2 3264   3.169  -0.044   6.356  0.5049  0.0754  1.5429
 1110TIP3   OH2 3265   1.533   0.710   6.329  0.3110  0.2006  0.2986
 1110TIP3    H1 3266   1.495   0.630   6.293 -0.2933  1.5621 -2.2538
 1110TIP3    H2 3267   1.585   0.746   6.256 -0.6702  2.9118  0.8978
 1111TIP3   OH2 3268   0.323   5.964   4.953  0.0449  0.2505  0.4939
 1111TIP3    H1 3269   0.346   5.931   4.866 -0.5033  0.3179  0.3243
 1111TIP3    H2 3270   0.392   5.930   5.010  0.0173 -0.3830  0.1553
 1112TIP3   OH2 3271   5.092   3.928   0.368 -0.0645 -0.0884 -0.0704
 1112TIP3    H1 3272   5.179   3.888   0.358  0.5534  1.2561 -0.2518
 1112TIP3    H2 3273   5.100   3.985   0.444 -1.1728 -0.9264  0.6757
 1113TIP3   OH2 3274   8.077   5.984   5.420 -0.0760  0.4030  0.0798
 1113TIP3    H1 3275   7.989   5.986   5.457  0.2140 -0.3368  0.8167
 1113TIP3    H2 3276   8.067   6.025   5.334 -1.2844 -0.3814 -0.1647
 1114TIP3   OH2 3277   8.231   7.199   4.561 -0.2988 -0.0819  0.3103
 1114TIP3    H1 3278   8.318   7.232   4.536 -1.2299  2.2412  0.0070
 1114TIP3    H2 3279   8.208   7.249   4.639 -1.7104 -0.0717 -0.0987
 1115TIP3   OH2 3280   6.715   4.353   0.230  0.0752 -0.7611  0.7823
 1115TIP3    H1 3281   6.782   4.348   0.298  0.8982  0.8795  0.1033
 1115TIP3    H2 3282   6.758   4.396   0.156 -2.3434  2.4090  1.1180
 1116TIP3   OH2 3283   1.662   7.151   5.960 -0.0830 -0.0981 -0.4065
 1116TIP3    H1 3284   1.757   7.135   5.962  0.3432  2.2452  2.0391
 1116TIP3    H2 3285   1.623   7.065   5.948  2.3524 -1.0352 -2.1898
 1117TIP3   OH2 3286   3.934  -0.026   6.709 -0.0867 -0.1914  0.1915
 1117TIP3    H1 3287   3.903   0.033   6.640 -0.4932 -1.1347 -0.4339
 1117TIP3    H2 3288   3.881  -0.003   6.786  0.6561  1.1496  0.3245
 1118TIP3   OH2 3289   3.455   3.301   2.895 -0.4545  0.3970  0.0645
 1118TIP3    H1 3290   3.472   3.330   2.985  1.9411 -0.0265 -0.2103
 1118TIP3    H2 3291   3.484   3.375   2.841 -0.3799  0.0159 -0.4153
 1119TIP3   OH2 3292   4.111   2.948   0.064 -0.5286  0.2907  0.4996
 1119TIP3    H1 3293   4.044   2.981   0.005  1.1887  2.2711 -0.4048
 1119TIP3    H2 3294   4.190   2.938   0.010  0.8007  1.1763  2.2046
 1120TIP3   OH2 3295   4.949   3.868   1.410  0.5708 -0.0457  0.2349
 1120TIP3    H1 3296   5.041   3.874   1.435  0.7543 -0.9169 -0.2105
 1120TIP3    H2 3297   4.946   3.905   1.321  0.1892  1.5943  0.9208
 1121TIP3   OH2 3298   6.749   4.053   1.945  0.3264  0.6418  0.0442
 1121TIP3    H1 3299   6.742   4.147   1.964 -1.3944  0.2170  1.6720
 1121TIP3    H2 3300   6.790   4.016   2.024 -2.4376 -0.4722  1.0147
 1122TIP3   OH2 3301   5.460   5.757   6.898 -0.2648  0.6812  0.2178
 1122TIP3    H1 3302   5.372   5.754   6.860 -0.4500 -0.0232  0.7006
 1122TIP3    H2 3303   5.508   5.686   6.857  0.7942  2.4673 -1.7489
 1123TIP3   OH2 3304   6.216   5.021   2.230 -0.0459  0.0780  0.0896
 1123TIP3    H1 3305   6.125   5.006   2.205 -0.4237  0.4557  1.2025
 1123TIP3    H2 3306   6.267   4.966   2.171 -1.0611 -0.9819  0.1831
 1124TIP3   OH2 3307   3.786   0.072   6.194  0.0408 -0.3004  0.9515
 1124TIP3    H1 3308   3.762   0.110   6.278 -1.4938  0.0473  0.3819
 1124TIP3    H2 3309   3.776   0.144   6.131 -2.8769 -1.5527 -0.1336
 1125TIP3   OH2 3310   4.650   5.412   1.495 -0.2792  0.3829 -0.2895
 1125TIP3    H1 3311   4.684   5.437   1.409 -0.1188 -1.4468 -0.7683
 1125TIP3    H2 3312   4.728   5.384   1.544 -0.3642  1.4361  0.4751
 1126TIP3   OH2 3313   5.132   2.974   0.847 -0.5037 -0.6301 -0.2376
 1126TIP3    H1 3314   5.054   2.998   0.796 -0.1759  1.6317  0.2771
 1126TIP3    H2 3315   5.171   3.057   0.872  3.5459 -1.6613 -2.6197
 1127TIP3   OH2 3316   6.034   3.346   2.059  1.1934  0.2342 -0.2316
 1127TIP3    H1 3317   6.026   3.251   2.051 -1.6382  0.4355 -0.2407
 1127TIP3    H2 3318   6.008   3.365   2.150  0.0744  1.1288 -0.7180
 1128TIP3   OH2 3319   2.135   4.510   0.800 -0.2766  0.1676  0.2344
 1128TIP3    H1 3320   2.155   4.446   0.869 -0.3475 -0.5630 -0.4199
 1128TIP3    H2 3321   2.171   4.593   0.834 -0.9144 -0.0365  1.4482
 1129TIP3   OH2 3322   8.110   6.443   6.861 -0.4009  0.2530  0.8616
 1129TIP3    H1 3323   8.115   6.532   6.896 -1.0634  2.3197 -3.9345
 1129TIP3    H2 3324   8.195   6.428   6.820 -0.6934 -0.8926  0.6459
 1130TIP3   OH2 3325   5.175   5.446   3.667  0.2246  0.1455 -0.1347
 1130TIP3    H1 3326   5.174   5.389   3.591 -0.6294  2.2220 -1.7159
 1130TIP3    H2 3327   5.258   5.427   3.711 -0.1444 -2.4463 -0.4863
 1131TIP3   OH2 3328   5.700   1.892   0.716  0.0807  0.3267  0.5927
 1131TIP3    H1 3329   5.658   1.812   0.747  0.7186 -1.3497 -2.6303
 1131TIP3    H2 3330   5.780   1.899   0.768  0.7521 -1.9713 -0.0537
 1132TIP3   OH2 3331   5.654   5.929   0.875  0.4548 -0.1719 -0.2296
 1132TIP3    H1 3332   5.662   5.835   0.861 -0.3410 -0.6167  2.0764
 1132TIP3    H2 3333   5.562   5.943   0.894  0.5512  1.0914 -0.6577
 1133TIP3   OH2 3334   5.610   3.524   1.324 -0.1786  0.2856  0.7528
 1133TIP3    H1 3335   5.614   3.480   1.239 -1.7005  0.1964  0.7108
 1133TIP3    H2 3336   5.701   3.532   1.351  0.3541  0.7188 -1.0951
 1134TIP3   OH2 3337   5.020   2.600   4.709 -0.5098 -0.3744  0.4085
 1134TIP3    H1 3338   4.973   2.517   4.723  0.9970 -1.0645  1.5993
 1134TIP3    H2 3339   5.070   2.586   4.629 -1.4152 -0.0475 -0.2297
 1135TIP3   OH2 3340   6.411   2.113   1.011  0.1897  0.1079 -1.2357
 1135TIP3    H1 3341   6.480   2.166   1.051 -2.1255  0.2452  2.8613
 1135TIP3    H2 3342   6.444   2.024   1.016  0.4980  0.2687 -0.1059
 1136TIP3   OH2 3343   5.712   2.501   2.551 -0.8552  0.0629  0.0601
 1136TIP3    H1 3344   5.664   2.560   2.610  1.5194  0.8060  1.3161
 1136TIP3    H2 3345   5.727   2.553   2.472 -2.4131 -0.3056 -0.4989
 1137TIP3   OH2 3346   4.973   3.852   1.853 -0.4876 -0.4499  0.7313
 1137TIP3    H1 3347   5.035   3.779   1.847 -0.5434 -0.3929 -1.0359
 1137TIP3    H2 3348   5.027   3.930   1.862 -0.3668 -0.5827  1.1193
 1138TIP3   OH2 3349   4.313   3.791   0.536 -0.1006  0.0155  0.1568
 1138TIP3    H1 3350   4.326   3.882   0.508 -1.6431  0.5668  1.1858
 1138TIP3    H2 3351   4.374   3.741   0.481 -0.5247  1.4631 -1.7040
 1139TIP3   OH2 3352   5.389   2.462   0.496 -0.6841 -0.4028 -0.0146
 1139TIP3    H1 3353   5.449   2.465   0.422  0.0491  0.1193  0.5967
 1139TIP3    H2 3354   5.445   2.447   0.572 -1.3317  0.0450  0.5572
 1140TIP3   OH2 3355   5.719   3.869   1.034 -0.0406 -0.0756 -0.2857
 1140TIP3    H1 3356   5.749   3.917   0.957 -1.9187  0.3196 -0.7769
 1140TIP3    H2 3357   5.624   3.877   1.033 -0.1177 -0.2185  1.9749
 1141TIP3   OH2 3358   7.058   4.879   5.184  0.2554  0.1893 -0.2012
 1141TIP3    H1 3359   7.036   4.798   5.139  0.4235  0.7235 -1.2430
 1141TIP3    H2 3360   6.977   4.906   5.227  0.5152 -1.1723  1.1602
 1142TIP3   OH2 3361   6.833   6.637   4.291  0.2314 -0.3126  0.0324
 1142TIP3    H1 3362   6.906   6.675   4.242 -1.0457  0.7891 -1.0564
 1142TIP3    H2 3363   6.782   6.712   4.321 -0.6695 -1.0732  0.4514
 1143TIP3   OH2 3364   3.599   0.362   6.754 -0.1057  0.3696 -0.6938
 1143TIP3    H1 3365   3.510   0.379   6.723  0.1854  0.8284 -1.3027
 1143TIP3    H2 3366   3.631   0.447   6.782  0.8886  0.6088 -2.4930
 1144TIP3   OH2 3367   6.353   4.130   2.100  0.2170  0.6586 -0.3716
 1144TIP3    H1 3368   6.313   4.170   2.023 -0.7124 -1.8140 -1.2399
 1144TIP3    H2 3369   6.414   4.065   2.064 -0.5609 -0.8497  0.9297
 1145TIP3   OH2 3370   7.473   5.924   0.125  0.5696  0.0883  0.0149
 1145TIP3    H1 3371   7.525   5.962   0.195 -0.4948  0.6788  0.4895
 1145TIP3    H2 3372   7.486   5.829   0.133 -0.2863  0.1011  1.5834
 1146TIP3   OH2 3373   5.012   5.641   0.790  0.6459 -0.0561 -0.4133
 1146TIP3    H1 3374   5.046   5.671   0.706  1.6835  0.8449  0.3123
 1146TIP3    H2 3375   5.039   5.549   0.796  2.2425  0.4077 -0.2337
 1147TIP3   OH2 3376   5.320   5.922   0.099 -0.0887 -0.2879 -0.0170
 1147TIP3    H1 3377   5.388   5.868   0.141  2.7499  1.8489 -1.6637
 1147TIP3    H2 3378   5.306   5.995   0.158 -0.2396 -0.2149 -0.1417
 1148TIP3   OH2 3379   4.943   0.327   5.662 -0.1099  0.1972  0.3470
 1148TIP3    H1 3380   4.892   0.355   5.586  0.6050  2.0196  0.4986
 1148TIP3    H2 3381   4.878   0.300   5.727 -0.8417  1.4058  0.1264
 1149TIP3   OH2 3382   5.803   4.777   0.612  0.7649  0.3098 -0.0739
 1149TIP3    H1 3383   5.878   4.770   0.671  2.7800  2.6262 -2.2711
 1149TIP3    H2 3384   5.841   4.789   0.525 -2.1602 -0.9236 -1.6043
 1150TIP3   OH2 3385   5.475   0.112   6.935  0.2227 -0.3019  0.8789
 1150TIP3    H1 3386   5.406   0.055   6.902 -1.2215  1.3466  1.0138
 1150TIP3    H2 3387   5.537   0.119   6.862 -0.9074  0.0702 -0.0461
 1151TIP3   OH2 3388   5.205   3.059   1.213 -0.1224  0.3570  0.1757
 1151TIP3    H1 3389   5.256   2.985   1.246  0.2390  0.5700  0.1009
 1151TIP3    H2 3390   5.179   3.107   1.291 -1.1336 -0.3457  0.2866
 1152TIP3   OH2 3391   0.940   7.739   6.780 -0.1110  0.3276 -0.2353
 1152TIP3    H1 3392   0.890   7.810   6.740  1.0116  0.9320 -0.5915
 1152TIP3    H2 3393   1.032   7.761   6.762  0.3528 -0.1062  1.4782
 1153TIP3   OH2 3394   3.804   3.300   0.484  0.1622 -0.4392 -0.1598
 1153TIP3    H1 3395   3.822   3.207   0.471 -1.9383 -1.0951  1.4299
 1153TIP3    H2 3396   3.850   3.322   0.565 -0.5326 -0.4618  0.2461
 1154TIP3   OH2 3397   0.329   6.748   5.136  0.6010 -0.1031 -0.7487
 1154TIP3    H1 3398   0.388   6.798   5.080  0.8078 -0.2724 -0.6866
 1154TIP3    H2 3399   0.374   6.664   5.148  1.8673  0.9107  1.9062
 1155TIP3   OH2 3400   5.156   0.408   5.798 -0.6143  0.0306  0.4139
 1155TIP3    H1 3401   5.098   0.367   5.734 -1.0938 -2.7612  2.5085
 1155TIP3    H2 3402   5.099   0.466   5.849 -1.2019 -1.1696  1.1602
 1156TIP3   OH2 3403   5.105   5.313   0.768 -0.1169  0.1980 -0.3495
 1156TIP3    H1 3404   5.199   5.301   0.770 -0.3222 -2.1716 -2.9205
 1156TIP3    H2 3405   5.074   5.278   0.851  1.1022 -0.3453 -0.1222
 1157TIP3   OH2 3406   7.663   7.212   6.091 -0.2115 -0.0326  0.3312
 1157TIP3    H1 3407   7.732   7.235   6.028 -0.6384 -1.5081 -0.6985
 1157TIP3    H2 3408   7.615   7.294   6.105  0.7040  0.6074 -0.2586
 1158TIP3   OH2 3409   2.525   3.349   1.428 -0.2365  0.0721  0.5576
 1158TIP3    H1 3410   2.553   3.263   1.396 -0.1952  1.0843 -2.2532
 1158TIP3    H2 3411   2.430   3.351   1.413  0.1359  1.4957 -1.9730
 1159TIP3   OH2 3412   5.777   4.337   1.108  0.4313  0.3961 -0.0934
 1159TIP3    H1 3413   5.722   4.264   1.136  1.5892 -0.2772  0.4376
 1159TIP3    H2 3414   5.853   4.296   1.067  0.6713  1.3149 -0.5947
 1160TIP3   OH2 3415   4.448   4.848   1.379 -0.7120  0.1326 -0.5018
 1160TIP3    H1 3416   4.398   4.829   1.300  0.3501 -2.4003 -0.6049
 1160TIP3    H2 3417   4.539   4.833   1.355 -0.5220 -2.7907  1.7223
 1161TIP3   OH2 3418   5.406   4.268   1.187 -0.1570 -0.2946  0.2373
 1161TIP3    H1 3419   5.472   4.200   1.202  0.4495  0.3057  0.3091
 1161TIP3    H2 3420   5.456   4.343   1.154 -0.7471  0.2835  0.6399
 1162TIP3   OH2 3421   6.044   5.075   0.396  0.1122  0.1495  0.3014
 1162TIP3    H1 3422   6.082   5.058   0.483  0.6144 -0.6588 -0.0753
 1162TIP3    H2 3423   6.029   5.170   0.395 -0.5317  0.0664  1.5302
 1163TIP3   OH2 3424   4.149   4.126   0.833  0.1153  0.2398 -0.2938
 1163TIP3    H1 3425   4.194   4.046   0.861  2.1729  1.2558 -0.5430
 1163TIP3    H2 3426   4.195   4.196   0.880 -0.8568  1.3705 -1.0225
 1164TIP3   OH2 3427   7.651   7.099   6.910  0.1633 -0.0031 -0.8848
 1164TIP3    H1 3428   7.644   7.127   7.002 -1.3883 -2.4659 -0.1947
 1164TIP3    H2 3429   7.714   7.159   6.871  2.2186 -0.0195  2.2399
 1165TIP3   OH2 3430   7.304   7.330   4.673  0.0482 -0.4330 -0.3407
 1165TIP3    H1 3431   7.228   7.350   4.618 -1.8694 -0.3115  2.2477
 1165TIP3    H2 3432   7.307   7.234   4.675 -0.8186 -0.4543  0.5319
 1166TIP3   OH2 3433   7.648   7.383   6.741 -0.3704 -0.0204  0.1450
 1166TIP3    H1 3434   7.600   7.398   6.821  0.7574 -0.4633  0.9271
 1166TIP3    H2 3435   7.701   7.462   6.729 -1.6113  0.6614 -0.9581
 1167TIP3   OH2 3436   4.681   5.672   1.979  0.0376  0.3755 -0.0409
 1167TIP3    H1 3437   4.627   5.736   1.932  1.3047  1.1853 -0.4212
 1167TIP3    H2 3438   4.626   5.593   1.983 -0.4537  0.5712 -2.0909
 1168TIP3   OH2 3439   2.381   0.790   6.946 -0.8328 -0.0795  0.1181
 1168TIP3    H1 3440   2.353   0.879   6.922 -1.5576 -0.8256 -1.8284
 1168TIP3    H2 3441   2.475   0.790   6.931 -0.6439  0.6876  1.2046
 1169TIP3   OH2 3442   6.540   6.568   6.674  0.5676  0.2537  0.3573
 1169TIP3    H1 3443   6.519   6.525   6.592 -1.0424  0.8795  0.4176
 1169TIP3    H2 3444   6.455   6.593   6.710  1.2535  0.0091  2.2003
 1170TIP3   OH2 3445   0.945   6.408   4.054 -0.4089  0.0149 -0.1922
 1170TIP3    H1 3446   0.879   6.475   4.034 -1.2524  0.0678  2.5685
 1170TIP3    H2 3447   0.896   6.340   4.099  1.7843  1.1798  4.2191
 1171TIP3   OH2 3448   5.511   2.791   0.726  0.1637  0.2078  0.2561
 1171TIP3    H1 3449   5.497   2.820   0.816 -1.3395 -0.9453  0.4158
 1171TIP3    H2 3450   5.423   2.793   0.686  0.9312  1.5954 -1.4613
 1172TIP3   OH2 3451   7.973   7.675   6.588 -0.0066 -0.4673  0.1779
 1172TIP3    H1 3452   7.894   7.627   6.561  0.7843 -0.9143 -1.3792
 1172TIP3    H2 3453   8.000   7.631   6.669 -0.3800 -1.4265 -0.2050
 1173TIP3   OH2 3454   7.921   3.902   5.670  0.3301  0.0714  0.0601
 1173TIP3    H1 3455   7.830   3.922   5.693 -0.0501 -0.3828 -0.9879
 1173TIP3    H2 3456   7.952   3.979   5.623  0.6078  0.3793  0.7497
 1174TIP3   OH2 3457   5.114   1.575   0.608 -0.7707 -0.1977 -0.1593
 1174TIP3    H1 3458   5.046   1.510   0.626 -0.4261 -0.0751  1.6994
 1174TIP3    H2 3459   5.192   1.522   0.591 -0.8417 -0.2995 -0.1717
 1175TIP3   OH2 3460   4.109   3.028   2.682 -0.4766 -0.0646 -0.3598
 1175TIP3    H1 3461   4.111   3.109   2.733 -0.3568  0.5432 -1.3073
 1175TIP3    H2 3462   4.201   3.006   2.668 -0.5100 -0.1526 -0.4377
 1176TIP3   OH2 3463   1.780   0.244   5.823  0.4993  0.0632  0.3714
 1176TIP3    H1 3464   1.847   0.180   5.797 -0.3702 -0.3308 -0.9322
 1176TIP3    H2 3465   1.776   0.236   5.918  0.6896 -1.5493  0.2650
 1177TIP3   OH2 3466   2.134   1.187   6.883  0.0794  0.0587  0.0323
 1177TIP3    H1 3467   2.216   1.217   6.843  0.1342 -1.3177 -0.9287
 1177TIP3    H2 3468   2.080   1.160   6.809 -0.4123 -1.0835  0.8029
 1178TIP3   OH2 3469   5.636   2.331   1.311  0.0611 -0.1286  1.0455
 1178TIP3    H1 3470   5.593   2.411   1.341 -0.3948 -0.7288  2.0145
 1178TIP3    H2 3471   5.631   2.335   1.216 -0.2884  0.8221  1.1059
 1179TIP3   OH2 3472   6.198   2.718   0.683 -0.3947  0.1515  0.5827
 1179TIP3    H1 3473   6.179   2.666   0.761 -0.6156  0.1582  0.5349
 1179TIP3    H2 3474   6.262   2.783   0.713  1.5299 -1.4840  0.1335
 1180TIP3   OH2 3475   4.804   2.319   1.899  0.2173 -0.4352 -0.4851
 1180TIP3    H1 3476   4.867   2.330   1.970 -2.0996  0.6278  1.4794
 1180TIP3    H2 3477   4.780   2.408   1.874  0.8225 -0.8041 -2.4549
 1181TIP3   OH2 3478   5.905   3.485   0.622 -0.0070 -0.2877  0.1658
 1181TIP3    H1 3479   5.811   3.501   0.612  0.6286  1.3982 -4.2150
 1181TIP3    H2 3480   5.938   3.561   0.671 -0.2089  1.6532 -2.6236
 1182TIP3   OH2 3481   5.480   3.146   0.569  0.6254  0.4109 -0.0975
 1182TIP3    H1 3482   5.406   3.122   0.513  0.8090  0.2243 -0.2625
 1182TIP3    H2 3483   5.484   3.242   0.563  1.2559  0.3338 -1.2016
 1183TIP3   OH2 3484   3.417   7.957   5.731 -0.5698  0.3156 -0.3004
 1183TIP3    H1 3485   3.339   7.931   5.681 -1.6467  2.7779  0.0111
 1183TIP3    H2 3486   3.459   8.023   5.677  1.9291 -1.6943 -0.9220
 1184TIP3   OH2 3487   7.158   5.088   3.666 -1.0368  0.2827  0.1782
 1184TIP3    H1 3488   7.158   5.040   3.749 -0.2918 -0.3310 -0.1659
 1184TIP3    H2 3489   7.251   5.110   3.651 -0.8556 -1.5466 -1.5789
 1185TIP3   OH2 3490   8.389   6.975   6.550  0.1313  0.0298 -0.4813
 1185TIP3    H1 3491   8.451   6.979   6.477 -0.1971  1.1094 -0.7159
 1185TIP3    H2 3492   8.433   7.019   6.622  0.4645 -1.0583 -0.0191
 1186TIP3   OH2 3493   6.060   1.417   1.673  0.1778 -0.2566 -0.4336
 1186TIP3    H1 3494   5.999   1.394   1.743  0.7977 -1.1336 -0.1685
 1186TIP3    H2 3495   6.058   1.513   1.669 -1.7786 -0.2929 -0.9439
 1187TIP3   OH2 3496   2.006   6.344   5.350  0.6708 -0.0623  0.1298
 1187TIP3    H1 3497   1.978   6.285   5.280 -3.7763  1.8479  0.0997
 1187TIP3    H2 3498   1.981   6.299   5.431  1.7364 -0.3433  0.3021
 1188TIP3   OH2 3499   5.841   2.526   0.901 -0.1536 -0.4890  1.1495
 1188TIP3    H1 3500   5.760   2.476   0.913 -0.3597 -0.2658  0.7033
 1188TIP3    H2 3501   5.814   2.605   0.854 -0.1263  0.9021  3.3744
 1189TIP3   OH2 3502   6.365   5.268   2.027 -0.7208 -0.1681  0.1994
 1189TIP3    H1 3503   6.323   5.240   1.946  1.6851  0.6961 -1.3874
 1189TIP3    H2 3504   6.444   5.214   2.033  0.0613  1.0397  1.0033
 1190TIP3   OH2 3505   0.592   6.703   5.895 -0.4548 -1.2182  0.3343
 1190TIP3    H1 3506   0.516   6.646   5.908  1.1015 -3.8114 -1.4879
 1190TIP3    H2 3507   0.578   6.743   5.810 -0.7887 -0.0442  0.9337
 1191TIP3   OH2 3508   6.846   3.147   1.262 -0.2125  0.1096 -0.0888
 1191TIP3    H1 3509   6.864   3.055   1.285 -1.4391 -0.6250 -2.0125
 1191TIP3    H2 3510   6.777   3.174   1.323  0.6260 -0.0120  0.9374
 1192TIP3   OH2 3511   0.154   2.755   1.408 -0.3488  0.5858  0.5034
 1192TIP3    H1 3512   0.136   2.741   1.315 -1.6989  0.5959  0.7582
 1192TIP3    H2 3513   0.247   2.776   1.411 -0.7061  2.5030 -1.0565
 1193TIP3   OH2 3514   7.427   4.093   1.153  0.3568  0.1698 -0.0941
 1193TIP3    H1 3515   7.371   4.142   1.213  0.1875  0.5555 -0.5612
 1193TIP3    H2 3516   7.404   4.001   1.167  0.7690  0.2123  0.8824
 1194TIP3   OH2 3517   2.162   7.817   4.947  0.4964  0.0439 -0.3609
 1194TIP3    H1 3518   2.075   7.778   4.945  0.2876  0.4858  0.3064
 1194TIP3    H2 3519   2.182   7.828   5.039  1.5905 -0.7860 -0.4883
 1195TIP3   OH2 3520   1.699   2.598   6.007 -0.3985 -0.9136 -0.3585
 1195TIP3    H1 3521   1.727   2.651   5.933 -1.8046  2.5069  1.4501
 1195TIP3    H2 3522   1.774   2.597   6.066 -0.5120 -0.5908 -0.2091
 1196TIP3   OH2 3523   8.041   4.266   1.404  0.2195  0.3200  0.5971
 1196TIP3    H1 3524   8.029   4.320   1.327 -2.5709  1.0043  1.4825
 1196TIP3    H2 3525   8.086   4.323   1.467  3.2142 -0.4755 -0.6978
 1197TIP3   OH2 3526   6.562   4.978   2.585 -0.6807  0.4305  0.5194
 1197TIP3    H1 3527   6.471   4.968   2.559 -0.8438 -0.4764  1.4097
 1197TIP3    H2 3528   6.586   4.894   2.623 -0.2128  1.4458  2.5288
 1198TIP3   OH2 3529   6.276   4.376   0.266 -0.6517 -0.0489  0.2821
 1198TIP3    H1 3530   6.229   4.458   0.282  0.6558  1.1054 -1.5950
 1198TIP3    H2 3531   6.232   4.337   0.190  0.5873  0.3948 -0.6702
 1199TIP3   OH2 3532   2.100   7.787   5.784  0.2114  0.3717  0.3397
 1199TIP3    H1 3533   2.106   7.880   5.761 -0.4052  0.9157  2.2776
 1199TIP3    H2 3534   2.157   7.777   5.860  1.6453 -1.2265 -0.9036
 1200TIP3   OH2 3535   3.764   0.286   6.008 -0.2049  0.1124  0.0722
 1200TIP3    H1 3536   3.714   0.367   6.014  0.8410  0.7882 -0.2047
 1200TIP3    H2 3537   3.817   0.297   5.929  0.8859 -0.3178  0.7464
 1201TIP3   OH2 3538   4.445   0.488   5.237  0.1226 -0.2395  0.6129
 1201TIP3    H1 3539   4.397   0.412   5.269 -2.0146 -0.0432 -1.9810
 1201TIP3    H2 3540   4.535   0.458   5.227 -0.0231 -1.4681  2.7006
 1202TIP3   OH2 3541   4.109   7.428   5.529  0.5583  0.4650 -0.3998
 1202TIP3    H1 3542   4.126   7.472   5.445 -0.1329  1.7970  0.1546
 1202TIP3    H2 3543   4.105   7.498   5.593 -1.4882 -0.2984  0.3646
 1203TIP3   OH2 3544   6.957   4.906   2.369  0.3086 -0.3766 -0.8430
 1203TIP3    H1 3545   7.021   4.868   2.429 -0.0366 -1.5089 -1.1753
 1203TIP3    H2 3546   6.908   4.969   2.422 -0.2941 -1.7000  0.2003
 1204TIP3   OH2 3547   8.092   4.202   0.702 -0.1666  0.5350  0.5646
 1204TIP3    H1 3548   8.054   4.221   0.616 -0.4566  1.2935  0.8619
 1204TIP3    H2 3549   8.163   4.140   0.683 -0.3338  0.5736 -0.2036
 1205TIP3   OH2 3550   7.044   2.994   1.841  0.0350 -0.3903 -0.4479
 1205TIP3    H1 3551   7.093   3.069   1.808 -0.8645  0.1486 -0.5561
 1205TIP3    H2 3552   6.971   2.984   1.780 -0.7535 -0.3613  0.4827
 1206TIP3   OH2 3553   0.151   2.118   0.867 -0.2106 -0.1363 -0.0278
 1206TIP3    H1 3554   0.084   2.176   0.832 -0.7195  0.0353  1.1768
 1206TIP3    H2 3555   0.108   2.032   0.869 -0.4034 -0.0300  0.7211
 1207TIP3   OH2 3556   1.058   3.891   0.321  0.0619 -0.2625  0.0862
 1207TIP3    H1 3557   1.119   3.933   0.260 -0.1895  0.3236  0.2397
 1207TIP3    H2 3558   1.011   3.963   0.362 -1.2787 -0.7367 -0.5950
 1208TIP3   OH2 3559   8.015   4.398   1.142  0.3910 -0.3209 -0.0979
 1208TIP3    H1 3560   7.945   4.463   1.143  0.8101  0.1365  0.0173
 1208TIP3    H2 3561   8.089   4.444   1.103  0.1562 -1.2977 -1.7673
 1209TIP3   OH2 3562   2.389   5.551   6.903  0.0111 -0.6969  0.0053
 1209TIP3    H1 3563   2.374   5.509   6.988  1.1397 -0.2011  0.4621
 1209TIP3    H2 3564   2.396   5.644   6.923  1.2961 -0.6738 -0.4758
 1210TIP3   OH2 3565   6.789   4.069   0.352 -0.1420 -0.0930  0.2210
 1210TIP3    H1 3566   6.782   4.060   0.447 -0.1217 -1.4346  0.1070
 1210TIP3    H2 3567   6.843   4.147   0.339 -1.6854  1.1792  1.2677
 1211TIP3   OH2 3568   1.931   7.546   5.781 -0.3899  0.2573 -0.1997
 1211TIP3    H1 3569   1.992   7.617   5.760 -1.8137  1.0176 -1.8415
 1211TIP3    H2 3570   1.966   7.509   5.863  0.6884  2.4829  0.3984
 1212TIP3   OH2 3571   1.684   1.297   6.086 -0.5153 -0.1636 -0.2050
 1212TIP3    H1 3572   1.600   1.263   6.116 -0.8141  0.7155 -0.0647
 1212TIP3    H2 3573   1.662   1.366   6.024  0.1023  0.1649 -0.0648
 1213TIP3   OH2 3574   6.235   3.757   0.100 -0.1431 -0.0284 -0.2419
 1213TIP3    H1 3575   6.299   3.747   0.029 -0.5947 -0.2257 -0.6191
 1213TIP3    H2 3576   6.241   3.850   0.124 -0.1636  0.0938 -0.7040
 1214TIP3   OH2 3577   2.182   5.442   5.392  0.3838  0.2693  0.2751
 1214TIP3    H1 3578   2.277   5.456   5.393  0.3325  0.6098  1.3766
 1214TIP3    H2 3579   2.163   5.410   5.304  1.2545  2.0460 -0.5884
 1215TIP3   OH2 3580   7.445   2.481   1.919  0.1934 -0.3151 -0.1885
 1215TIP3    H1 3581   7.512   2.517   1.977  0.0363 -0.0611 -0.1645
 1215TIP3    H2 3582   7.366   2.529   1.942  0.6101  1.3785 -2.1691
 1216TIP3   OH2 3583   5.295   0.476   5.569 -0.0584 -0.5699  0.0260
 1216TIP3    H1 3584   5.272   0.385   5.549  3.0013 -2.0082  2.5402
 1216TIP3    H2 3585   5.250   0.494   5.651  0.8126 -0.4512  0.4790
 1217TIP3   OH2 3586   1.114   3.315   3.295  0.5520  0.7483 -0.4578
 1217TIP3    H1 3587   1.195   3.354   3.262  1.1614  1.0889  1.3291
 1217TIP3    H2 3588   1.045   3.374   3.266  0.6929 -0.6012 -3.6861
 1218TIP3   OH2 3589   2.961   5.909   1.745 -0.3693 -0.1759  0.0580
 1218TIP3    H1 3590   2.917   5.841   1.694 -1.1231  1.1429 -1.0874
 1218TIP3    H2 3591   2.967   5.984   1.685  1.2753  0.4640  0.9926
 1219TIP3   OH2 3592   1.632   7.728   5.620  0.2450  0.5573  0.1077
 1219TIP3    H1 3593   1.667   7.785   5.689  2.2024 -1.2204  0.6548
 1219TIP3    H2 3594   1.702   7.664   5.604 -2.0760 -2.0525 -0.0521
 1220TIP3   OH2 3595   1.236   5.033   0.888 -0.4436 -0.4084  0.1791
 1220TIP3    H1 3596   1.182   5.084   0.828 -0.6680  0.8289  1.3972
 1220TIP3    H2 3597   1.317   5.018   0.840 -0.2370  1.4320 -0.0889
 1221TIP3   OH2 3598   0.130   5.207   0.657  0.6919 -0.3180  0.0173
 1221TIP3    H1 3599   0.183   5.182   0.733 -0.0257  0.1071  0.6753
 1221TIP3    H2 3600   0.137   5.303   0.655 -2.1448 -0.0103  1.7165
 1222TIP3   OH2 3601   0.014   5.491   2.656  0.2746 -0.7278 -0.0188
 1222TIP3    H1 3602   0.105   5.495   2.683  0.4390 -3.0774 -0.1854
 1222TIP3    H2 3603  -0.035   5.512   2.735  0.9353 -0.1236  0.2327
 1223TIP3   OH2 3604   6.386   2.464   3.068 -0.3990  0.3047 -0.2392
 1223TIP3    H1 3605   6.393   2.543   3.121  0.9766  0.5528 -0.7636
 1223TIP3    H2 3606   6.340   2.493   2.989  2.3712  1.2016 -1.5719
 1224TIP3   OH2 3607   8.102   4.599   0.693 -0.2950 -0.1436  0.8650
 1224TIP3    H1 3608   8.197   4.603   0.683 -0.1932 -1.5436  1.1687
 1224TIP3    H2 3609   8.070   4.575   0.606 -0.2274 -1.5166  1.2157
 1225TIP3   OH2 3610   7.393   2.619   3.298 -0.1388  0.2901 -0.3387
 1225TIP3    H1 3611   7.324   2.604   3.364 -0.3373  0.9424 -0.3893
 1225TIP3    H2 3612   7.346   2.653   3.222  0.3381  1.6126 -0.0564
 1226TIP3   OH2 3613   7.471   4.403   0.952 -0.0581 -0.5947  0.0917
 1226TIP3    H1 3614   7.482   4.309   0.967  0.9110 -0.6769 -1.0341
 1226TIP3    H2 3615   7.496   4.415   0.860  3.9897  1.3924  1.3267
 1227TIP3   OH2 3616   8.257   3.757   2.610  0.2429  0.6368 -0.2821
 1227TIP3    H1 3617   8.259   3.734   2.703 -0.1557  1.8227  0.0289
 1227TIP3    H2 3618   8.165   3.780   2.593 -0.0345 -1.2017 -1.3787
 1228TIP3   OH2 3619   0.859   3.809   4.358  0.1207  0.0514  0.2478
 1228TIP3    H1 3620   0.940   3.775   4.397  2.5846  0.7821 -3.8671
 1228TIP3    H2 3621   0.851   3.762   4.275 -2.7098  1.3089 -0.2473
 1229TIP3   OH2 3622   7.583   4.499   1.305  0.5815 -0.8537  0.1732
 1229TIP3    H1 3623   7.653   4.502   1.240  0.6386 -1.0941  0.2239
 1229TIP3    H2 3624   7.502   4.495   1.253  0.3923  2.5572  0.0372
 1230TIP3   OH2 3625   1.097   4.659   2.726 -0.0908 -0.2267  0.0975
 1230TIP3    H1 3626   1.034   4.715   2.680  1.0664  1.0434  0.0247
 1230TIP3    H2 3627   1.182   4.699   2.707  0.8492 -2.5401 -0.6865
 1231TIP3   OH2 3628   0.158   3.728   2.102 -1.1075 -0.1924  0.7959
 1231TIP3    H1 3629   0.250   3.706   2.115 -0.8602  0.5722  0.3564
 1231TIP3    H2 3630   0.157   3.823   2.094 -1.8092 -0.2846 -0.2117
 1232TIP3   OH2 3631   7.931   2.984   1.870  0.6168 -0.4329 -0.1351
 1232TIP3    H1 3632   7.978   3.064   1.848 -1.0973  0.1503 -1.8131
 1232TIP3    H2 3633   7.946   2.925   1.796  0.2888 -0.9419  0.1961
 1233TIP3   OH2 3634   7.845   3.211   4.738  0.1655 -0.3390  0.3073
 1233TIP3    H1 3635   7.922   3.262   4.713 -0.4676  1.5714  2.0704
 1233TIP3    H2 3636   7.875   3.157   4.811  0.2618 -0.7904 -0.0698
 1234TIP3   OH2 3637   0.825   6.556   2.437 -0.2295  0.1818 -0.1010
 1234TIP3    H1 3638   0.826   6.651   2.434 -0.0573  0.1348 -3.2113
 1234TIP3    H2 3639   0.735   6.533   2.462 -0.2151  1.1332  0.8631
 1235TIP3   OH2 3640   0.770   4.990   0.790 -0.1599  0.3127 -0.1328
 1235TIP3    H1 3641   0.712   4.992   0.714  1.1727  1.0569 -1.1596
 1235TIP3    H2 3642   0.810   5.077   0.792  1.6627 -0.4981 -0.0435
 1236TIP3   OH2 3643   8.366   2.321   2.181  0.2751  0.1461 -0.0306
 1236TIP3    H1 3644   8.318   2.376   2.242 -0.2944 -0.0306 -0.3077
 1236TIP3    H2 3645   8.451   2.306   2.222 -0.4556 -0.7764  1.1684
 1237TIP3   OH2 3646   1.069   2.827   2.214  0.5829  0.3504  0.3906
 1237TIP3    H1 3647   1.083   2.918   2.186  1.8375 -0.6257 -2.3396
 1237TIP3    H2 3648   1.139   2.778   2.171 -1.6858 -2.3293 -0.3933
 1238TIP3   OH2 3649   3.954   4.248   3.147  0.1700 -0.5387 -0.3034
 1238TIP3    H1 3650   3.994   4.180   3.202 -2.5333 -0.9381  1.2811
 1238TIP3    H2 3651   3.912   4.199   3.076  0.3123 -0.3096 -0.5484
 1239TIP3   OH2 3652   5.797   1.500   6.661 -0.3029 -0.1877  0.2312
 1239TIP3    H1 3653   5.844   1.547   6.729 -0.6183  0.8843 -0.2853
 1239TIP3    H2 3654   5.855   1.428   6.637  0.2117 -0.0283  0.9789
 1240TIP3   OH2 3655   6.981   5.560   0.044 -0.2601 -0.4541  0.0773
 1240TIP3    H1 3656   6.936   5.644   0.036 -0.4298 -0.5814 -0.3043
 1240TIP3    H2 3657   7.023   5.547  -0.041  2.6256  0.8811  1.2397
 1241TIP3   OH2 3658   6.643   5.555   2.640  0.8958  0.1469  0.1197
 1241TIP3    H1 3659   6.627   5.461   2.648  0.9728  0.1462  0.2673
 1241TIP3    H2 3660   6.616   5.576   2.551  1.3480 -0.1071 -0.0780
 1242TIP3   OH2 3661   0.422   4.801   0.834 -0.3215  0.0305 -0.1886
 1242TIP3    H1 3662   0.394   4.849   0.756 -0.6785  0.3166  0.1159
 1242TIP3    H2 3663   0.427   4.867   0.903  0.2455 -0.1750 -0.0311
 1243TIP3   OH2 3664   6.857   5.613   1.658  0.4612 -0.3125  0.1544
 1243TIP3    H1 3665   6.897   5.568   1.732 -0.2279 -1.3039 -0.0682
 1243TIP3    H2 3666   6.771   5.573   1.648  0.2059  0.4008 -0.6453
 1244TIP3   OH2 3667   8.178   3.985   1.818 -0.0916  0.1654  0.0095
 1244TIP3    H1 3668   8.086   3.968   1.841  0.0985 -0.3042  0.4394
 1244TIP3    H2 3669   8.175   4.018   1.729 -0.6514 -0.2285 -0.1230
 1245TIP3   OH2 3670   7.875   2.624   3.347  0.3044  0.6472  0.3873
 1245TIP3    H1 3671   7.864   2.584   3.260  0.1723  1.7719 -0.1257
 1245TIP3    H2 3672   7.786   2.633   3.381  0.2232  1.6666 -0.0503
 1246TIP3   OH2 3673   8.084   6.590   1.498  0.0282  0.2030  0.0740
 1246TIP3    H1 3674   8.091   6.673   1.544 -1.2297  0.8091 -0.8031
 1246TIP3    H2 3675   7.991   6.581   1.478  0.4607 -0.3044 -1.8537
 1247TIP3   OH2 3676   7.907   5.436   4.947 -0.3006 -0.0458  0.3338
 1247TIP3    H1 3677   7.966   5.406   4.879 -0.3132  0.2242  0.2048
 1247TIP3    H2 3678   7.839   5.368   4.952  0.1450 -0.4697  0.6448
 1248TIP3   OH2 3679   7.385   3.919   0.144 -0.7587 -0.3374 -0.2563
 1248TIP3    H1 3680   7.457   3.978   0.126 -0.1063 -1.1833 -0.4548
 1248TIP3    H2 3681   7.387   3.856   0.072  0.4135 -2.3631  1.4833
 1249TIP3   OH2 3682   2.329   5.205   3.126 -0.7115 -0.0365  0.2464
 1249TIP3    H1 3683   2.380   5.143   3.073 -1.0596  0.5597 -0.7926
 1249TIP3    H2 3684   2.391   5.274   3.148 -0.4186 -0.5524  1.1106
 1250TIP3   OH2 3685   7.871   6.183   2.913 -0.5279  0.6205  0.3296
 1250TIP3    H1 3686   7.861   6.193   3.008  0.7131  0.2344  0.5062
 1250TIP3    H2 3687   7.785   6.204   2.878 -1.2268 -0.0366  1.6104
 1251TIP3   OH2 3688   7.290   2.997   1.033  0.4841 -0.1972 -0.3660
 1251TIP3    H1 3689   7.360   3.036   0.981 -1.2902  0.0421 -2.6547
 1251TIP3    H2 3690   7.213   3.002   0.977 -0.8467 -2.6372  1.1435
 1252TIP3   OH2 3691   1.111   3.168   0.063  0.0351 -0.1211 -0.0669
 1252TIP3    H1 3692   1.069   3.128   0.139 -0.3355 -1.2681 -0.8700
 1252TIP3    H2 3693   1.201   3.135   0.065  0.1297  0.1471  0.0888
 1253TIP3   OH2 3694   0.998   4.149   2.311  0.2773 -0.1975 -0.2244
 1253TIP3    H1 3695   0.953   4.067   2.294  2.1615 -1.1470 -0.7663
 1253TIP3    H2 3696   0.930   4.207   2.348 -1.5227 -1.3183 -1.7070
 1254TIP3   OH2 3697   3.248   7.757   6.222  0.0650  0.4224 -0.9101
 1254TIP3    H1 3698   3.181   7.803   6.172  1.8446  2.4886 -1.4730
 1254TIP3    H2 3699   3.315   7.734   6.157  0.3563 -0.8060 -0.2110
 1255TIP3   OH2 3700   2.794   7.596   6.155  0.2355 -0.2328  0.4941
 1255TIP3    H1 3701   2.763   7.668   6.210 -0.5673  0.5329 -0.9258
 1255TIP3    H2 3702   2.885   7.582   6.181 -0.0704  0.2472  1.8609
 1256TIP3   OH2 3703   1.369   4.777   1.112 -0.7642  0.3229  0.0849
 1256TIP3    H1 3704   1.352   4.685   1.128  0.3724  0.5420  2.9549
 1256TIP3    H2 3705   1.423   4.779   1.034 -0.7153 -1.4407  0.0617
 1257TIP3   OH2 3706   2.319   4.265   0.208 -0.3089 -0.1920  0.0239
 1257TIP3    H1 3707   2.253   4.333   0.194 -1.5239 -1.4147 -0.4610
 1257TIP3    H2 3708   2.300   4.231   0.295  1.7520  1.6128  1.1895
 1258TIP3   OH2 3709   0.438   4.732   0.441  0.7454 -0.3479 -0.0722
 1258TIP3    H1 3710   0.414   4.670   0.372 -1.4815 -1.1738  1.3723
 1258TIP3    H2 3711   0.366   4.796   0.440  0.3443 -0.7451  1.8817
 1259TIP3   OH2 3712   0.563   3.445   1.064 -0.0486  0.1200 -0.5900
 1259TIP3    H1 3713   0.637   3.400   1.022  0.0922 -0.5444  0.3716
 1259TIP3    H2 3714   0.598   3.476   1.147 -0.8665 -0.2193 -0.1185
 1260TIP3   OH2 3715   1.602   6.775   6.176  0.3020  0.3465 -0.7242
 1260TIP3    H1 3716   1.653   6.780   6.095  0.5396  0.9932 -0.5308
 1260TIP3    H2 3717   1.535   6.708   6.157  1.3423 -0.6605 -0.8925
 1261TIP3   OH2 3718   2.352   4.628   1.531  0.1764  0.1612 -0.0223
 1261TIP3    H1 3719   2.401   4.627   1.613  1.7957  3.5777 -0.8542
 1261TIP3    H2 3720   2.407   4.580   1.469 -0.2106 -0.8867  0.4433
 1262TIP3   OH2 3721   5.263   0.165   5.537  0.0169 -0.1613 -0.4927
 1262TIP3    H1 3722   5.194   0.160   5.471 -0.4952  2.1924 -0.1680
 1262TIP3    H2 3723   5.343   0.183   5.487 -0.3324  1.3832 -0.5161
 1263TIP3   OH2 3724   5.089   0.906   6.629  0.6373 -0.2963 -0.0189
 1263TIP3    H1 3725   5.092   0.992   6.586 -0.3553 -0.5061 -0.5257
 1263TIP3    H2 3726   5.017   0.913   6.692  1.4172 -0.3295  0.8890
 1264TIP3   OH2 3727   2.710   4.454   0.801  0.3590 -0.3654 -0.0662
 1264TIP3    H1 3728   2.804   4.453   0.787  0.2867 -4.0987 -0.7462
 1264TIP3    H2 3729   2.695   4.387   0.868 -1.8545 -0.3423 -0.4947
 1265TIP3   OH2 3730   5.214   7.019   6.526  0.0699 -0.1482  0.6775
 1265TIP3    H1 3731   5.120   7.036   6.538  0.0170  0.5285 -0.6440
 1265TIP3    H2 3732   5.248   7.101   6.490  0.9182 -0.8672 -0.1514
 1266TIP3   OH2 3733   5.791   0.163   5.972 -0.1484  0.2148 -0.3622
 1266TIP3    H1 3734   5.743   0.119   6.042 -1.8809  1.6824 -0.5932
 1266TIP3    H2 3735   5.837   0.234   6.016  0.7246 -0.3444 -0.3572
 1267TIP3   OH2 3736   5.478   0.345   6.704  0.2758  0.0104  0.2097
 1267TIP3    H1 3737   5.509   0.404   6.635 -1.5359 -0.3763 -0.9876
 1267TIP3    H2 3738   5.553   0.288   6.723  0.3469 -0.8650 -2.5346
 1268TIP3   OH2 3739   7.548   0.340   6.350  0.0416  0.2802 -0.4330
 1268TIP3    H1 3740   7.527   0.296   6.432  1.1849  0.5575  0.0320
 1268TIP3    H2 3741   7.547   0.433   6.372 -2.1214  0.5014 -1.3508
 1269TIP3   OH2 3742   5.135   6.954   6.960  0.5450 -0.2694 -0.2553
 1269TIP3    H1 3743   5.199   6.902   6.912 -0.9609 -1.0839 -1.4435
 1269TIP3    H2 3744   5.155   7.044   6.937  1.8379 -0.4415  0.1321
 1270TIP3   OH2 3745   2.515   4.175   0.030 -0.2948 -0.5460 -0.0311
 1270TIP3    H1 3746   2.445   4.233   0.058  1.6220  2.7439 -1.8589
 1270TIP3    H2 3747   2.509   4.174  -0.065 -0.2094 -3.3322 -0.0609
 1271TIP3   OH2 3748   0.728   6.819   0.361 -0.3723 -0.1957  0.3273
 1271TIP3    H1 3749   0.813   6.776   0.370  1.3844  2.6964 -1.6534
 1271TIP3    H2 3750   0.694   6.787   0.277 -0.0061  0.6361 -0.1478
 1272TIP3   OH2 3751   0.624   4.837   0.082  0.5398  0.3011  0.6331
 1272TIP3    H1 3752   0.638   4.930   0.063  2.5674  0.2020  1.5422
 1272TIP3    H2 3753   0.672   4.822   0.163  1.0661 -1.7774 -0.0478
 1273TIP3   OH2 3754   0.354   3.332   1.270 -0.2059  0.1086 -0.4433
 1273TIP3    H1 3755   0.409   3.254   1.275 -1.0624 -0.5764 -1.5760
 1273TIP3    H2 3756   0.392   3.384   1.199 -0.6588 -0.0803 -0.8237
 1274TIP3   OH2 3757   0.806   5.251   0.787 -0.3365 -0.3691 -0.3076
 1274TIP3    H1 3758   0.828   5.289   0.872  0.9853  0.9652 -1.1887
 1274TIP3    H2 3759   0.711   5.260   0.779 -0.4812 -0.6720  1.0951
 1275TIP3   OH2 3760   4.781   4.566   2.403  0.3804 -0.0554 -0.0921
 1275TIP3    H1 3761   4.835   4.645   2.401 -1.2405  1.0833 -1.1970
 1275TIP3    H2 3762   4.766   4.545   2.311  0.2003 -1.2172  0.1996
 1276TIP3   OH2 3763   6.185   7.458   6.860 -0.3444  0.2819 -0.1471
 1276TIP3    H1 3764   6.262   7.480   6.913 -0.3095 -0.0704 -0.0529
 1276TIP3    H2 3765   6.113   7.508   6.901 -0.0887  0.9416 -0.4881
 1277TIP3   OH2 3766   7.163   1.320   4.925  0.1706  0.5629 -0.0941
 1277TIP3    H1 3767   7.087   1.275   4.887 -0.2702  0.8150  0.4746
 1277TIP3    H2 3768   7.208   1.252   4.975  0.8899  0.1703 -1.2511
 1278TIP3   OH2 3769   5.105   1.239   6.748 -0.7386  0.1519 -0.8004
 1278TIP3    H1 3770   5.093   1.170   6.814 -0.5754  0.8320 -0.0447
 1278TIP3    H2 3771   5.089   1.195   6.665  1.7140 -1.4178 -0.5199
 1279TIP3   OH2 3772   3.413   5.029   1.744  0.1708  0.4805 -0.1989
 1279TIP3    H1 3773   3.500   5.045   1.708  0.1278 -0.6133 -0.7804
 1279TIP3    H2 3774   3.402   4.934   1.742 -1.3306  0.6501 -0.8137
 1280TIP3   OH2 3775   2.900   5.522   0.783 -0.6228  0.4457 -0.5017
 1280TIP3    H1 3776   2.841   5.459   0.825 -1.0562  1.7062  0.7962
 1280TIP3    H2 3777   2.921   5.482   0.698 -2.0060 -0.7927 -0.2772
 1281TIP3   OH2 3778   1.224   5.603   3.113  0.1264 -0.2726  0.6862
 1281TIP3    H1 3779   1.190   5.692   3.113 -0.9077 -0.6500  2.2342
 1281TIP3    H2 3780   1.187   5.563   3.192 -0.0873 -2.3222 -0.4141
 1282TIP3   OH2 3781   6.991   5.045   0.696  0.6034  1.0049  0.1379
 1282TIP3    H1 3782   7.059   4.992   0.654  1.0907  1.4904  0.3138
 1282TIP3    H2 3783   7.011   5.135   0.670 -1.4255  0.9231 -1.8906
 1283TIP3   OH2 3784   1.738   3.721   1.774 -0.4481  0.0826  0.2551
 1283TIP3    H1 3785   1.682   3.784   1.819 -2.0873 -0.8773 -0.3888
 1283TIP3    H2 3786   1.697   3.636   1.791  1.9354 -0.8858  1.4418
 1284TIP3   OH2 3787   1.121   3.169   1.610 -0.4167  0.4489 -0.3911
 1284TIP3    H1 3788   1.204   3.133   1.579 -1.3884 -1.0120 -1.3765
 1284TIP3    H2 3789   1.144   3.220   1.688  1.1666 -1.5451  0.5030
 1285TIP3   OH2 3790   1.912   5.806   1.064 -0.2321 -0.0610 -1.1029
 1285TIP3    H1 3791   1.832   5.754   1.059 -0.6279  0.6091 -1.7226
 1285TIP3    H2 3792   1.895   5.870   1.133 -0.1648 -0.0223 -1.1223
 1286TIP3   OH2 3793   5.961   7.585   6.568 -0.3417  0.2294 -0.2257
 1286TIP3    H1 3794   5.892   7.650   6.561 -1.0071 -0.6248 -1.7747
 1286TIP3    H2 3795   6.019   7.603   6.494 -1.9432 -2.5281 -2.2832
 1287TIP3   OH2 3796   2.405   7.142   1.044 -0.0152  0.6480 -0.2872
 1287TIP3    H1 3797   2.428   7.136   1.137  0.1529  0.7933 -0.3212
 1287TIP3    H2 3798   2.477   7.189   1.003  0.1626  0.1233 -0.5861
 1288TIP3   OH2 3799   1.586   3.757   0.419 -0.3422 -0.7976 -0.4913
 1288TIP3    H1 3800   1.546   3.718   0.497 -0.6345 -0.7427 -0.6166
 1288TIP3    H2 3801   1.662   3.805   0.453 -2.5287  2.3276  0.2446
 1289TIP3   OH2 3802   4.444   7.714   6.141 -0.3805  0.1602 -0.4696
 1289TIP3    H1 3803   4.430   7.784   6.204  1.5590 -0.7088  0.9992
 1289TIP3    H2 3804   4.414   7.634   6.186 -1.6700 -0.0764 -1.7459
 1290TIP3   OH2 3805   1.567   5.562   3.449 -0.6437 -0.1249  0.4012
 1290TIP3    H1 3806   1.535   5.645   3.413 -0.5947 -0.4194 -0.3368
 1290TIP3    H2 3807   1.578   5.506   3.372 -1.2759 -1.0223  0.9638
 1291TIP3   OH2 3808   7.449   2.783   5.790 -0.0943 -0.4848  0.3423
 1291TIP3    H1 3809   7.447   2.809   5.882 -1.1653  0.7249 -0.0071
 1291TIP3    H2 3810   7.373   2.827   5.751  1.3803  0.4745 -1.4964
 1292TIP3   OH2 3811   6.551   1.064   6.861 -0.5405  0.1204  0.1640
 1292TIP3    H1 3812   6.577   0.984   6.817  3.7948  1.1677  0.5802
 1292TIP3    H2 3813   6.511   1.035   6.943 -0.1549 -1.6183 -0.2540
 1293TIP3   OH2 3814   0.523   5.422   1.435  0.1695 -0.0022 -0.1238
 1293TIP3    H1 3815   0.429   5.430   1.420  0.0708 -0.8352  0.0363
 1293TIP3    H2 3816   0.540   5.328   1.432  1.1404  0.1912 -0.9788
 1294TIP3   OH2 3817   7.109   0.619   6.587  0.5142 -0.5840 -0.7434
 1294TIP3    H1 3818   7.164   0.590   6.659 -2.2024  0.0126  1.6753
 1294TIP3    H2 3819   7.142   0.705   6.563 -0.1721  0.3616  1.6035
 1295TIP3   OH2 3820   7.713   4.803   1.226 -0.4747  0.3656  0.0083
 1295TIP3    H1 3821   7.789   4.848   1.190  0.5670 -0.2985  1.3236
 1295TIP3    H2 3822   7.706   4.722   1.175 -1.2468  1.1335 -1.1360
 1296TIP3   OH2 3823   7.733   0.387   6.825  0.0383 -0.0536  0.2046
 1296TIP3    H1 3824   7.660   0.423   6.775  1.0891  0.5453 -0.9310
 1296TIP3    H2 3825   7.693   0.353   6.905 -1.3672  1.0067 -0.0272
 1297TIP3   OH2 3826   6.617   4.330   0.636 -0.4578 -0.2316  0.3632
 1297TIP3    H1 3827   6.597   4.241   0.667 -1.4011 -0.4255 -0.7922
 1297TIP3    H2 3828   6.553   4.347   0.568  0.3442  0.9770 -0.1066
 1298TIP3   OH2 3829   6.232   0.365   6.562  0.3118  0.4602 -0.5276
 1298TIP3    H1 3830   6.186   0.292   6.522 -2.3651  2.1807 -0.7475
 1298TIP3    H2 3831   6.304   0.385   6.501  1.0058 -1.8366 -0.5133
 1299TIP3   OH2 3832   1.057   4.721   0.683 -0.4671 -0.4289  0.0356
 1299TIP3    H1 3833   1.106   4.645   0.713  2.2239  1.6180  1.0771
 1299TIP3    H2 3834   1.028   4.764   0.763  0.1826  0.9512 -0.4447
 1300TIP3   OH2 3835   7.002   2.334   6.915 -0.1454 -0.0128  0.8111
 1300TIP3    H1 3836   6.982   2.259   6.971 -2.2148  0.8400  1.2624
 1300TIP3    H2 3837   6.917   2.366   6.885  0.7776  1.3166 -0.4945
 1301TIP3   OH2 3838   5.766   6.110   5.994  0.3382 -0.2736 -0.0844
 1301TIP3    H1 3839   5.741   6.018   5.994 -1.3587  0.1603 -0.0689
 1301TIP3    H2 3840   5.756   6.138   6.085  3.4853 -0.7226  0.4456
 1302TIP3   OH2 3841   3.961   7.524   6.042 -0.2792 -0.4248  0.1786
 1302TIP3    H1 3842   3.883   7.472   6.060 -0.7480 -0.2717 -1.3122
 1302TIP3    H2 3843   3.939   7.611   6.075 -0.1798 -0.7352  1.0687
 1303TIP3   OH2 3844   2.475   4.543   1.156 -0.0498 -0.0679  0.1143
 1303TIP3    H1 3845   2.512   4.486   1.223  2.6818 -0.3121 -1.5509
 1303TIP3    H2 3846   2.522   4.625   1.164 -0.3953  0.2410 -0.8436
 1304TIP3   OH2 3847   0.604   5.809   1.046 -0.5135 -0.0599 -0.7145
 1304TIP3    H1 3848   0.519   5.773   1.019 -2.9526  0.6777  5.1717
 1304TIP3    H2 3849   0.594   5.903   1.035 -1.0372  0.1342  1.2192
 1305TIP3   OH2 3850   2.893   6.437   0.065 -0.1389 -0.5252 -0.0038
 1305TIP3    H1 3851   2.905   6.450   0.159 -0.0692 -0.1111 -0.0684
 1305TIP3    H2 3852   2.975   6.468   0.026 -0.4590  0.0049 -0.2571
 1306TIP3   OH2 3853   1.164   4.699   0.131 -0.8164  1.0469 -0.2575
 1306TIP3    H1 3854   1.259   4.701   0.136 -0.7911 -1.7557  1.0609
 1306TIP3    H2 3855   1.144   4.696   0.037  0.4387 -0.0732 -0.4926
 1307TIP3   OH2 3856   1.479   2.466   0.548  0.2869  0.3026  0.1331
 1307TIP3    H1 3857   1.570   2.456   0.577  0.3803 -0.1184 -0.3013
 1307TIP3    H2 3858   1.469   2.403   0.477 -0.6835 -0.4762  0.9401
 1308TIP3   OH2 3859   2.041   5.471   1.956 -0.2891 -0.1485 -0.4507
 1308TIP3    H1 3860   2.103   5.452   2.026 -0.2740  0.2714 -0.3483
 1308TIP3    H2 3861   2.069   5.417   1.883  0.5960  0.5381 -0.6227
 1309TIP3   OH2 3862   1.843   4.314   2.311 -0.0610  0.2784  0.2126
 1309TIP3    H1 3863   1.799   4.371   2.248  1.3186  0.2274 -0.8145
 1309TIP3    H2 3864   1.930   4.299   2.274 -0.0255 -1.6369  0.9853
 1310TIP3   OH2 3865   0.558   3.932   0.431  0.3317 -0.0146 -0.2329
 1310TIP3    H1 3866   0.543   4.009   0.376  1.9552  0.3219 -0.2344
 1310TIP3    H2 3867   0.580   3.967   0.517  0.9274 -0.4792 -0.1931
 1311TIP3   OH2 3868   1.001   2.539   1.982 -0.4683  0.5898 -0.2036
 1311TIP3    H1 3869   1.030   2.503   2.066  0.3983  1.5869 -0.0598
 1311TIP3    H2 3870   0.976   2.463   1.931  0.4162 -0.1506  0.4375
 1312TIP3   OH2 3871   0.374   3.926   1.667  0.1024 -0.1201  0.2740
 1312TIP3    H1 3872   0.405   4.015   1.653  0.1850  0.1176  1.9172
 1312TIP3    H2 3873   0.439   3.871   1.622  0.3617  0.5995 -0.2418
 1313TIP3   OH2 3874   4.360   6.749   5.935 -0.6765  0.5588 -0.2438
 1313TIP3    H1 3875   4.405   6.793   6.007 -1.5389  4.3127 -1.8318
 1313TIP3    H2 3876   4.277   6.720   5.973  0.4571 -0.8707  1.1689
 1314TIP3   OH2 3877   2.745   4.713   0.133 -0.3788 -0.0762  0.0556
 1314TIP3    H1 3878   2.821   4.670   0.172  0.8691  2.2517  0.3050
 1314TIP3    H2 3879   2.698   4.643   0.086  0.8814 -1.8978  1.4608
 1315TIP3   OH2 3880   8.100   6.559   0.582  0.1308  0.5956  0.6091
 1315TIP3    H1 3881   8.058   6.621   0.522  1.4391  1.2953  0.3882
 1315TIP3    H2 3882   8.035   6.542   0.649 -1.3040 -0.0694 -0.9132
 1316TIP3   OH2 3883   7.464   2.082   6.494 -0.2206 -0.1701 -0.2711
 1316TIP3    H1 3884   7.553   2.083   6.529 -0.2233  0.7767 -0.2863
 1316TIP3    H2 3885   7.457   1.999   6.447  0.8546  0.0358 -0.7951
 1317TIP3   OH2 3886   8.467   2.307   0.740 -0.5009  0.3942 -0.0462
 1317TIP3    H1 3887   8.374   2.332   0.742 -0.4574  0.6090 -0.5519
 1317TIP3    H2 3888   8.503   2.343   0.820 -0.7509  0.7267 -0.0829
 1318TIP3   OH2 3889   6.139   1.044   6.808  0.1841 -0.0849  0.3500
 1318TIP3    H1 3890   6.156   0.978   6.741 -0.1571 -0.2768  0.4534
 1318TIP3    H2 3891   6.044   1.044   6.818 -0.0191  1.9061 -1.1829
 1319TIP3   OH2 3892   5.037   7.190   6.142 -0.0192  0.6054 -0.6569
 1319TIP3    H1 3893   4.977   7.160   6.074  1.6637 -2.2028 -0.9938
 1319TIP3    H2 3894   5.115   7.218   6.094  1.1883 -1.4173  0.0385
 1320TIP3   OH2 3895   0.025   3.777   1.048 -0.6540  0.6003  0.2138
 1320TIP3    H1 3896   0.012   3.868   1.023  1.2199  1.1332  1.0885
 1320TIP3    H2 3897   0.030   3.779   1.143  0.8904 -0.1931  0.1630
 1321TIP3   OH2 3898   2.073   5.185   1.852  0.1515  0.1998  0.4569
 1321TIP3    H1 3899   2.045   5.213   1.940  2.1175  1.9332  0.5693
 1321TIP3    H2 3900   2.148   5.128   1.868 -1.4446 -2.1088  0.0140
 1322TIP3   OH2 3901   0.680   6.299   1.794 -0.2759  0.3867  0.3627
 1322TIP3    H1 3902   0.613   6.236   1.821  1.5630 -1.3109  1.1388
 1322TIP3    H2 3903   0.701   6.348   1.873 -0.5571  0.8779  0.1354
 1323TIP3   OH2 3904   2.022   4.570   1.133 -0.4170  0.0201  0.0819
 1323TIP3    H1 3905   2.082   4.622   1.188 -0.5312  0.7833 -0.5011
 1323TIP3    H2 3906   2.075   4.497   1.103 -0.7555 -1.2295  2.3891
 1324TIP3   OH2 3907   0.297   4.471   1.559  0.2640  0.1025  0.1253
 1324TIP3    H1 3908   0.333   4.393   1.516 -2.6969 -0.9826 -0.5022
 1324TIP3    H2 3909   0.210   4.482   1.520 -1.4458  0.6672  3.9272
 1325TIP3   OH2 3910   1.369   4.273   0.051 -0.3368 -0.3225  0.8879
 1325TIP3    H1 3911   1.449   4.232   0.085 -0.3649 -0.8964  0.2849
 1325TIP3    H2 3912   1.299   4.214   0.077 -0.2739 -1.2008 -0.8279
 1326TIP3   OH2 3913   3.682   7.078   6.250  0.2195  0.0599 -0.4775
 1326TIP3    H1 3914   3.764   7.046   6.289 -0.2132 -0.7500 -0.2134
 1326TIP3    H2 3915   3.614   7.027   6.293 -0.3419 -0.1276 -1.5697
 1327TIP3   OH2 3916   8.410   5.598   3.434  0.5153 -0.2332  0.4379
 1327TIP3    H1 3917   8.500   5.610   3.464  0.2185 -0.6694  1.5169
 1327TIP3    H2 3918   8.367   5.681   3.454  1.2364  0.8399 -2.2004
 1328TIP3   OH2 3919   1.082   5.221   1.733 -0.5639  0.1666 -0.1159
 1328TIP3    H1 3920   1.171   5.232   1.766 -0.7416  1.0929  0.0850
 1328TIP3    H2 3921   1.045   5.152   1.787 -0.8026  1.5823  1.5822
 1329TIP3   OH2 3922   0.344   3.616   1.847  0.1140  0.1589 -0.2165
 1329TIP3    H1 3923   0.341   3.694   1.901  1.3726  0.4463 -0.5303
 1329TIP3    H2 3924   0.308   3.547   1.902 -1.9052  1.1406 -0.2825
 1330TIP3   OH2 3925   8.217   2.574   1.339 -1.0093  0.3151 -0.3914
 1330TIP3    H1 3926   8.183   2.496   1.382  4.0317 -0.6259  2.2718
 1330TIP3    H2 3927   8.242   2.544   1.251  0.7512 -1.0668  0.5613
 1331TIP3   OH2 3928   2.362   5.836   0.722  0.0812 -0.4641  0.0699
 1331TIP3    H1 3929   2.397   5.768   0.664  1.1701  0.4737 -0.4089
 1331TIP3    H2 3930   2.367   5.798   0.809  0.8881 -0.9170 -0.1667
 1332TIP3   OH2 3931   0.521   4.499   0.975  0.2000 -0.1015  0.4457
 1332TIP3    H1 3932   0.455   4.513   1.043 -0.0244  0.5343  0.1067
 1332TIP3    H2 3933   0.567   4.419   1.001 -0.7886 -0.6175  0.6085
 1333TIP3   OH2 3934   0.130   3.120   0.790 -0.2617 -0.2796 -0.1470
 1333TIP3    H1 3935   0.193   3.131   0.719 -2.1072  1.3741 -1.5998
 1333TIP3    H2 3936   0.081   3.041   0.767 -0.5788  0.0225 -0.5318
 1334TIP3   OH2 3937   0.521   4.609   1.468  0.1180  0.0013  0.1057
 1334TIP3    H1 3938   0.437   4.566   1.480 -0.4952  0.3005 -2.6851
 1334TIP3    H2 3939   0.584   4.538   1.456 -0.2697 -0.1836 -0.8461
 1335TIP3   OH2 3940   1.137   5.035   0.049  0.0415 -0.4149 -0.2287
 1335TIP3    H1 3941   1.067   5.043  -0.016  1.9582  2.0949 -2.0909
 1335TIP3    H2 3942   1.202   4.979   0.007  0.7446  0.2231  0.0012
 1336TIP3   OH2 3943   4.168   5.730   1.383 -0.2303 -0.3329  0.0707
 1336TIP3    H1 3944   4.120   5.796   1.333  0.3260  0.6405  0.8017
 1336TIP3    H2 3945   4.156   5.649   1.334  0.0256  0.5371 -1.4690
 1337TIP3   OH2 3946   1.093   5.517   1.454 -0.1446 -0.3222 -0.5442
 1337TIP3    H1 3947   1.099   5.516   1.549  0.9656  1.2652 -0.5761
 1337TIP3    H2 3948   1.111   5.427   1.427 -0.3117 -0.7395  0.7353
 1338TIP3   OH2 3949   8.329   1.307   5.878 -0.2307 -0.3444  0.5959
 1338TIP3    H1 3950   8.293   1.260   5.802 -1.6145 -1.1802  1.7396
 1338TIP3    H2 3951   8.318   1.247   5.951  1.6600  0.2165  1.3634
 1339TIP3   OH2 3952   1.009   5.864   0.323 -0.3839 -0.0679 -0.2250
 1339TIP3    H1 3953   0.992   5.932   0.388 -0.7375  2.0016 -2.3710
 1339TIP3    H2 3954   0.954   5.791   0.349 -0.3818  0.6398  1.8790
 1340TIP3   OH2 3955   0.947   3.300   1.882  0.1913  0.5632  0.2121
 1340TIP3    H1 3956   0.899   3.254   1.814  0.3163  1.2471 -0.3444
 1340TIP3    H2 3957   1.022   3.339   1.837  1.2239 -0.4193  1.0610
 1341TIP3   OH2 3958   0.990   6.980   0.818 -0.0129  0.1893  0.0576
 1341TIP3    H1 3959   0.935   6.903   0.808 -2.7680  2.1331 -0.3074
 1341TIP3    H2 3960   0.967   7.035   0.743  2.2831  1.1527  0.0230
 1342TIP3   OH2 3961   1.118   4.665   1.892 -0.1917  0.0388 -0.0002
 1342TIP3    H1 3962   1.029   4.647   1.921  0.1537 -0.3584  0.8053
 1342TIP3    H2 3963   1.174   4.615   1.951  0.5415 -0.2202 -0.9002
 1343TIP3   OH2 3964   2.461   4.904   0.228  0.7214  0.6276 -0.0555
 1343TIP3    H1 3965   2.410   4.976   0.189  3.9903  2.2027 -1.5832
 1343TIP3    H2 3966   2.494   4.855   0.153  0.9945 -0.7048  0.9291
 1344TIP3   OH2 3967   0.797   4.820   1.146  0.2784 -0.0056 -0.4576
 1344TIP3    H1 3968   0.814   4.876   1.222  1.3261  0.1963 -0.8364
 1344TIP3    H2 3969   0.819   4.731   1.177  2.0862  0.2485 -0.9351
 1345TIP3   OH2 3970   1.011   4.634   1.433 -0.3374 -0.7373  0.0380
 1345TIP3    H1 3971   0.985   4.603   1.347  0.7939 -0.3732 -0.4466
 1345TIP3    H2 3972   0.931   4.673   1.470 -0.8772 -1.0949 -0.7505
 1346TIP3   OH2 3973   8.295   5.563   0.554 -0.3641 -0.2358 -0.4534
 1346TIP3    H1 3974   8.207   5.527   0.564 -0.0760 -1.1319 -1.1525
 1346TIP3    H2 3975   8.331   5.519   0.478  0.5975  0.3314 -0.3341
 1347TIP3   OH2 3976   2.617   6.347   0.268 -0.5907  0.2925  0.3449
 1347TIP3    H1 3977   2.643   6.365   0.358 -0.2894 -3.1549  1.0244
 1347TIP3    H2 3978   2.680   6.282   0.237 -2.4145 -0.7368 -1.3625
 1348TIP3   OH2 3979   2.282   3.321   1.312  0.1273 -0.5715  0.2960
 1348TIP3    H1 3980   2.195   3.285   1.327 -0.3135  0.3234 -0.1094
 1348TIP3    H2 3981   2.321   3.264   1.246 -0.1653 -0.9385  0.4419
 1349TIP3   OH2 3982   1.551   3.609   0.191  0.0090 -0.1213  0.4352
 1349TIP3    H1 3983   1.553   3.660   0.272  0.6850 -1.0075  0.9810
 1349TIP3    H2 3984   1.642   3.582   0.177 -0.2322 -0.6108 -0.2055
 1350TIP3   OH2 3985   7.832   4.247   0.227 -0.3307 -0.4370  0.3099
 1350TIP3    H1 3986   7.828   4.341   0.209 -0.6779 -0.4113  0.5180
 1350TIP3    H2 3987   7.860   4.208   0.144 -0.7977 -0.2111  0.0461
 1351TIP3   OH2 3988   2.939   3.236   0.834 -0.3955  0.0096  0.1683
 1351TIP3    H1 3989   2.990   3.317   0.837 -1.5948  0.7909  0.0625
 1351TIP3    H2 3990   2.950   3.197   0.921 -0.4745  0.7181  0.5042
 1352TIP3   OH2 3991   0.967   1.045   6.432  0.2385  0.5397  0.2553
 1352TIP3    H1 3992   0.999   0.957   6.414 -3.0244 -0.7012  0.2567
 1352TIP3    H2 3993   0.922   1.071   6.352 -1.2796  1.0501  1.2661
 1353TIP3   OH2 3994   6.838   0.083   6.612 -0.1213 -0.2540  0.2398
 1353TIP3    H1 3995   6.929   0.095   6.585 -0.3897  1.9974  0.1991
 1353TIP3    H2 3996   6.786   0.102   6.534 -0.7195  1.8201  1.0890
 1354TIP3   OH2 3997   2.422   4.412   4.072 -0.3777  0.9928 -0.0543
 1354TIP3    H1 3998   2.482   4.338   4.059 -1.0092  0.9316 -2.9727
 1354TIP3    H2 3999   2.336   4.371   4.084 -0.4888  1.2006 -0.1401
 1355TIP3   OH2 4000   0.129   5.315   2.341  0.1648  0.0417  0.8618
 1355TIP3    H1 4001   0.069   5.329   2.267  1.3812  0.4708 -0.0629
 1355TIP3    H2 4002   0.072   5.312   2.418 -1.2447 -1.5280 -0.2004
 1356TIP3   OH2 4003   7.807   0.350   6.215  0.3478  0.0261 -0.1395
 1356TIP3    H1 4004   7.847   0.268   6.245  0.7754 -0.0983 -1.0354
 1356TIP3    H2 4005   7.723   0.354   6.259  0.6819 -0.4935  0.5463
 1357TIP3   OH2 4006   2.818   4.051   0.521 -0.1634  0.3918  0.0775
 1357TIP3    H1 4007   2.857   4.028   0.606  1.9814  2.7618 -0.1901
 1357TIP3    H2 4008   2.854   3.987   0.460  0.7087  0.5232  0.4398
 1358TIP3   OH2 4009   7.953   6.690   4.095  0.4714 -0.2483 -0.2882
 1358TIP3    H1 4010   8.026   6.752   4.098  0.8828 -0.6637 -1.2872
 1358TIP3    H2 4011   7.995   6.606   4.074 -0.0993 -0.8271  0.8614
 1359TIP3   OH2 4012   0.294   5.638   2.665 -0.0210  0.2468 -0.4584
 1359TIP3    H1 4013   0.314   5.575   2.596  3.1688  0.9985 -0.2798
 1359TIP3    H2 4014   0.338   5.603   2.743  2.9094  3.2982 -0.6584
 1360TIP3   OH2 4015   0.582   5.863   1.892 -0.2749  0.4743 -0.0709
 1360TIP3    H1 4016   0.676   5.865   1.908  0.1241 -1.8618 -1.8796
 1360TIP3    H2 4017   0.574   5.868   1.796 -1.8825 -1.4136 -0.0594
 1361TIP3   OH2 4018   7.227   3.433   1.395  0.0705  0.0606  0.0360
 1361TIP3    H1 4019   7.136   3.406   1.410  1.3572 -3.7371  1.7162
 1361TIP3    H2 4020   7.265   3.435   1.483  1.9256  0.4906 -0.7615
 1362TIP3   OH2 4021   7.756   4.547   1.075 -0.5298 -0.3766  0.8163
 1362TIP3    H1 4022   7.677   4.574   1.028  0.5737  0.6064 -0.5002
 1362TIP3    H2 4023   7.827   4.595   1.033  0.9360 -2.1168  1.2270
 1363TIP3   OH2 4024   1.822   4.797   1.114  0.6690 -0.3706  0.3618
 1363TIP3    H1 4025   1.802   4.806   1.207  1.2254 -0.8002  0.5308
 1363TIP3    H2 4026   1.889   4.728   1.111 -0.6824 -1.6760 -0.5122
 1364TIP3   OH2 4027   2.386   5.749   0.985 -0.4071 -0.3313  0.3493
 1364TIP3    H1 4028   2.413   5.658   0.974  0.4030 -0.1708  0.9539
 1364TIP3    H2 4029   2.452   5.787   1.044 -0.8146  0.6063  0.2151
 1365TIP3   OH2 4030   8.280   6.748   0.817 -0.4780  0.4275  0.3534
 1365TIP3    H1 4031   8.316   6.714   0.735 -0.8243 -0.1825  0.4492
 1365TIP3    H2 4032   8.280   6.843   0.806  0.9328  0.4211  0.2609
 1366TIP3   OH2 4033   1.979   4.834   1.581  0.2001  0.3810  0.1417
 1366TIP3    H1 4034   1.992   4.901   1.514 -2.1020  0.0560 -0.6836
 1366TIP3    H2 4035   1.917   4.873   1.643  0.6301 -0.1281  0.9072
 1367TIP3   OH2 4036   1.397   5.299   0.708  0.2206  0.6234 -0.1108
 1367TIP3    H1 4037   1.354   5.377   0.673  0.4317  0.5553 -0.5290
 1367TIP3    H2 4038   1.431   5.254   0.630  2.4306  1.4824  0.2929
 1368TIP3   OH2 4039   6.725   0.358   6.300 -0.1267  0.4522 -0.2945
 1368TIP3    H1 4040   6.797   0.418   6.322 -0.5106  0.9559 -0.3898
 1368TIP3    H2 4041   6.671   0.355   6.378  1.0833 -1.5320  0.4902
 1369TIP3   OH2 4042   4.480   6.867   6.137 -0.0142 -0.1676 -0.0936
 1369TIP3    H1 4043   4.459   6.960   6.144  1.0392 -0.0576  2.0790
 1369TIP3    H2 4044   4.575   6.863   6.141 -0.0397 -1.3277 -0.3503
 1370TIP3   OH2 4045   8.415   5.592   1.564 -0.5143  0.0345 -0.5957
 1370TIP3    H1 4046   8.421   5.657   1.494  0.1071  0.1520 -0.4392
 1370TIP3    H2 4047   8.417   5.508   1.520 -0.7245  0.1155 -0.7599
 1371TIP3   OH2 4048   0.682   5.122   0.134  0.0883  0.1551 -0.3014
 1371TIP3    H1 4049   0.593   5.154   0.141  0.2620  0.8389 -1.2023
 1371TIP3    H2 4050   0.732   5.174   0.197  0.3533  1.6143 -1.6974
 1372TIP3   OH2 4051   7.118   1.091   6.330  0.6044  0.0796  0.1563
 1372TIP3    H1 4052   7.094   1.052   6.246  2.5835 -1.5991  0.3194
 1372TIP3    H2 4053   7.213   1.081   6.335  0.6849  1.4124  1.9855
 1373TIP3   OH2 4054   3.181   4.927   0.622  0.3759  0.0116 -0.4622
 1373TIP3    H1 4055   3.109   4.971   0.668  0.5746 -0.8602  0.7087
 1373TIP3    H2 4056   3.168   4.950   0.530 -2.0055 -0.9455 -0.4167
 1374TIP3   OH2 4057   1.182   3.289   2.609 -0.6015  0.1334  0.6159
 1374TIP3    H1 4058   1.172   3.205   2.655 -1.1896  0.7850  1.6831
 1374TIP3    H2 4059   1.133   3.351   2.662  0.9282  1.4230  0.5323
 1375TIP3   OH2 4060   1.570   5.448   0.363  0.6477 -0.0492 -0.7657
 1375TIP3    H1 4061   1.604   5.373   0.315 -1.4971 -1.6529  0.1467
 1375TIP3    H2 4062   1.477   5.429   0.375  0.0479  2.7833 -0.5662
 1376TIP3   OH2 4063   0.892   5.452   0.578  0.1467 -0.1520 -0.2736
 1376TIP3    H1 4064   0.881   5.400   0.657  0.5671 -0.4787 -0.4336
 1376TIP3    H2 4065   0.918   5.539   0.610  1.5419 -0.6209 -0.1110
 1377TIP3   OH2 4066   5.675   0.530   6.632 -0.4694 -0.0277  0.3524
 1377TIP3    H1 4067   5.758   0.483   6.638 -1.4801 -1.8591  0.5460
 1377TIP3    H2 4068   5.683   0.584   6.554  1.6458  1.3270  1.4685
 1378TIP3   OH2 4069   8.257   4.059   2.356  0.3497 -0.5035 -0.1736
 1378TIP3    H1 4070   8.208   4.008   2.291 -0.5454  0.1413 -0.0187
 1378TIP3    H2 4071   8.317   3.996   2.396  0.2052 -1.1262 -0.9338
 1379TIP3   OH2 4072   3.425   4.444   0.903 -0.2988  0.1292  0.1774
 1379TIP3    H1 4073   3.412   4.497   0.982  0.4124 -0.1427  0.4722
 1379TIP3    H2 4074   3.439   4.355   0.935 -3.1139 -0.5856 -0.3634
 1380TIP3   OH2 4075   7.398   0.288   6.115 -0.3570 -0.1311 -0.2176
 1380TIP3    H1 4076   7.306   0.292   6.143 -0.3483 -0.5935 -0.1211
 1380TIP3    H2 4077   7.447   0.278   6.196 -0.3691 -2.0120 -0.4220
 1381TIP3   OH2 4078   7.160   6.949   6.071  0.3303 -0.3750 -0.0558
 1381TIP3    H1 4079   7.202   6.929   6.155  0.4694  1.1941  0.2752
 1381TIP3    H2 4080   7.138   7.042   6.078 -0.0351 -0.3433 -1.5999
 1382TIP3   OH2 4081   7.469   0.827   6.758  0.2104  0.0148 -0.0356
 1382TIP3    H1 4082   7.513   0.905   6.791  1.3669 -0.2774 -0.8416
 1382TIP3    H2 4083   7.533   0.757   6.770 -1.3733 -1.1358  2.1137
 1383TIP3   OH2 4084   8.036   7.119   1.553 -0.2079 -0.0778  0.1867
 1383TIP3    H1 4085   8.046   7.091   1.462 -0.5976 -0.0780  0.1421
 1383TIP3    H2 4086   8.073   7.207   1.555 -2.0010  0.7154 -0.4299
 1384TIP3   OH2 4087   4.439   7.492   4.904  0.3595 -0.6840  0.1056
 1384TIP3    H1 4088   4.459   7.562   4.842 -2.5007 -0.2368 -0.3983
 1384TIP3    H2 4089   4.467   7.526   4.989 -1.1967  1.2044 -0.0987
 1385TIP3   OH2 4090   7.612   0.815   5.664  0.3670 -0.2563  0.2114
 1385TIP3    H1 4091   7.575   0.761   5.594  1.4200 -0.2158 -0.3896
 1385TIP3    H2 4092   7.620   0.902   5.626 -0.5849  0.1528  0.9243
 1386TIP3   OH2 4093   2.667   3.935   0.152  0.1186  0.2667  0.1997
 1386TIP3    H1 4094   2.629   4.020   0.132 -2.2287 -0.6622  0.5899
 1386TIP3    H2 4095   2.633   3.876   0.085  3.2308 -0.0290 -1.2184
 1387TIP3   OH2 4096   8.373   3.962   1.305 -0.3963  0.2322 -0.0300
 1387TIP3    H1 4097   8.418   3.879   1.320 -1.2678 -0.4285 -1.0015
 1387TIP3    H2 4098   8.352   3.994   1.393 -1.2572 -1.2635  0.3374
 1388TIP3   OH2 4099   2.445   3.794   1.987 -0.3242  0.2903 -0.1682
 1388TIP3    H1 4100   2.464   3.861   1.921  0.2768 -1.3515 -1.7125
 1388TIP3    H2 4101   2.362   3.823   2.027 -0.3347  1.6820 -1.1492
 1389TIP3   OH2 4102   2.791   3.912   3.088 -0.3079 -0.4764 -0.7454
 1389TIP3    H1 4103   2.757   3.999   3.065  0.3404 -0.0386 -0.0898
 1389TIP3    H2 4104   2.820   3.875   3.005 -0.1761  0.1265 -0.9763
 1390TIP3   OH2 4105   0.547   0.581   6.013 -0.6247 -0.0616 -0.3294
 1390TIP3    H1 4106   0.544   0.571   6.109  0.3304  1.4467 -0.1233
 1390TIP3    H2 4107   0.518   0.671   5.998 -0.0473 -0.0514 -1.4112
 1391TIP3   OH2 4108   7.012   0.866   6.866  0.3293  0.1568  0.1238
 1391TIP3    H1 4109   7.036   0.881   6.775  3.2457  0.3100  0.8686
 1391TIP3    H2 4110   7.085   0.815   6.902 -0.4664  0.6591  2.5252
 1392TIP3   OH2 4111   2.566   3.621   2.450  0.4042  0.4591 -0.0102
 1392TIP3    H1 4112   2.650   3.634   2.406  0.7425 -5.0410 -1.3875
 1392TIP3    H2 4113   2.502   3.621   2.380 -0.2313  0.6737  0.5679
 1393TIP3   OH2 4114   7.616   7.028   0.927 -0.5059  0.7454  0.2043
 1393TIP3    H1 4115   7.597   7.081   1.004  1.1339  1.0136  0.4256
 1393TIP3    H2 4116   7.635   7.091   0.858 -0.3148  0.4670  0.0016
 1394TIP3   OH2 4117   0.023   6.644   0.597  0.2747 -0.1099  0.1813
 1394TIP3    H1 4118   0.116   6.642   0.618  1.1527 -1.2514 -3.4586
 1394TIP3    H2 4119   0.007   6.733   0.566  0.7159 -0.5326 -1.3199
 1395TIP3   OH2 4120   3.873   5.113   2.090  0.3675 -0.2373  0.6014
 1395TIP3    H1 4121   3.906   5.119   2.000 -0.1032  1.3167  0.5165
 1395TIP3    H2 4122   3.781   5.089   2.081 -0.2432  2.0040  0.5584
 1396TIP3   OH2 4123   7.042   2.331   5.482  0.5925  0.0671 -0.4057
 1396TIP3    H1 4124   7.025   2.237   5.485 -0.9906  0.3523  0.4400
 1396TIP3    H2 4125   7.130   2.341   5.519  0.6471 -1.0514 -0.2173
 1397TIP3   OH2 4126   3.538   5.620   5.901 -0.0235 -0.3694  0.0882
 1397TIP3    H1 4127   3.570   5.710   5.895  0.1988 -0.2783  2.3325
 1397TIP3    H2 4128   3.516   5.608   5.993  1.9756 -3.3046  0.2654
 1398TIP3   OH2 4129   0.245   5.620   0.231  0.4381 -0.1708 -0.3434
 1398TIP3    H1 4130   0.268   5.559   0.301 -0.1246  2.0281  1.8055
 1398TIP3    H2 4131   0.149   5.619   0.230  0.4370  0.3591 -0.6109
 1399TIP3   OH2 4132   3.158   4.114   3.575  0.0525 -0.7659  0.2511
 1399TIP3    H1 4133   3.191   4.030   3.545  1.7340 -0.4537  1.1615
 1399TIP3    H2 4134   3.102   4.093   3.650  0.2331 -1.0911  0.2934
 1400TIP3   OH2 4135   4.177   7.292   4.861 -0.4313 -0.2280 -0.0651
 1400TIP3    H1 4136   4.265   7.278   4.825 -1.1599 -0.6408 -1.7464
 1400TIP3    H2 4137   4.181   7.254   4.948  0.3686 -2.4934 -1.0419
 1401TIP3   OH2 4138   7.126   6.560   3.001 -0.3114  0.4097 -0.3625
 1401TIP3    H1 4139   7.038   6.579   2.967 -1.2616 -0.0525  1.7190
 1401TIP3    H2 4140   7.145   6.632   3.060  0.2409 -0.0370  0.0139
 1402TIP3   OH2 4141   1.288   5.326   2.430 -0.4858 -0.2053 -0.1960
 1402TIP3    H1 4142   1.220   5.276   2.385  0.3785 -0.2217 -1.5099
 1402TIP3    H2 4143   1.351   5.349   2.361  1.0600 -0.5557  1.0598
 1403TIP3   OH2 4144   7.761   6.445   0.173 -0.6709  0.0343  0.3359
 1403TIP3    H1 4145   7.810   6.499   0.235 -0.9571  1.3206 -0.5318
 1403TIP3    H2 4146   7.743   6.504   0.099  0.3390 -1.6786 -1.3244
 1404TIP3   OH2 4147   0.181   6.514   3.614  0.1289 -0.0480 -0.2942
 1404TIP3    H1 4148   0.150   6.446   3.674  0.4695 -0.3364 -0.4370
 1404TIP3    H2 4149   0.104   6.568   3.596  0.3863  1.0548  1.7154
 1405TIP3   OH2 4150   1.949   4.863   2.002 -0.1402  0.5085  0.0794
 1405TIP3    H1 4151   1.906   4.888   1.921 -1.2112 -0.0761  0.4599
 1405TIP3    H2 4152   2.041   4.888   1.989 -0.0887 -0.5090 -1.7107
 1406TIP3   OH2 4153   2.088   6.157   1.103 -0.8854  0.0321  0.0608
 1406TIP3    H1 4154   2.152   6.223   1.130 -1.2847  0.5569 -0.2784
 1406TIP3    H2 4155   2.142   6.081   1.077 -0.4406  0.0850  0.7968
 1407TIP3   OH2 4156   1.386   6.084   0.082 -0.0579 -0.0557 -0.0659
 1407TIP3    H1 4157   1.388   6.038   0.166 -2.5266 -1.6817 -0.8047
 1407TIP3    H2 4158   1.406   6.016   0.017  1.2057  1.0401 -0.8335
 1408TIP3   OH2 4159   0.497   4.561   0.668  0.0232 -0.5728  0.1303
 1408TIP3    H1 4160   0.443   4.492   0.631  1.1621 -1.2263 -0.3263
 1408TIP3    H2 4161   0.521   4.616   0.593 -0.4921  0.0627  0.4195
 1409TIP3   OH2 4162   3.031   7.081   1.301  0.3909 -0.3158  0.7693
 1409TIP3    H1 4163   2.946   7.106   1.266  0.6016  1.2860  1.3238
 1409TIP3    H2 4164   3.020   6.992   1.334 -0.7296 -0.5609 -0.2541
 1410TIP3   OH2 4165   1.231   3.072   0.390  0.3155  0.1913  0.1924
 1410TIP3    H1 4166   1.239   3.166   0.374 -0.8214  0.7324  2.5929
 1410TIP3    H2 4167   1.141   3.051   0.368  0.1108  0.0005  1.1699
 1411TIP3   OH2 4168   1.722   4.975   0.786  0.0098 -0.2724  0.0766
 1411TIP3    H1 4169   1.779   4.915   0.738  1.1410 -0.1214  1.1948
 1411TIP3    H2 4170   1.749   5.062   0.756 -0.7100 -0.2714 -0.5572
 1412TIP3   OH2 4171   2.212   4.887   1.973 -0.0524  0.1686  0.6004
 1412TIP3    H1 4172   2.241   4.881   1.883 -0.7808  1.2041  0.2901
 1412TIP3    H2 4173   2.288   4.920   2.021 -0.4606  2.1599 -0.0810
 1413TIP3   OH2 4174   1.598   4.580   0.553  0.2523 -0.2006  0.3218
 1413TIP3    H1 4175   1.660   4.576   0.626  0.2721 -2.3212  0.2268
 1413TIP3    H2 4176   1.513   4.562   0.592 -0.1570  1.5251  0.2584
 1414TIP3   OH2 4177   0.824   2.805   0.064  0.4813  0.1857 -0.1954
 1414TIP3    H1 4178   0.882   2.816   0.139 -0.1747 -0.8894  0.4896
 1414TIP3    H2 4179   0.785   2.891   0.050 -2.7909 -0.5387  3.5522
 1415TIP3   OH2 4180   1.577   4.279   0.351  0.2638  0.0541 -0.0967
 1415TIP3    H1 4181   1.664   4.313   0.373  0.6130 -0.3822 -0.7618
 1415TIP3    H2 4182   1.590   4.233   0.267 -0.6456  0.1457 -0.2922
 1416TIP3   OH2 4183   4.655   6.980   2.829  0.2790  0.6908 -0.3475
 1416TIP3    H1 4184   4.691   6.893   2.848  0.1210  0.7921  0.4307
 1416TIP3    H2 4185   4.723   7.041   2.857 -0.3817  0.8734  0.9195
 1417TIP3   OH2 4186   1.494   3.432   1.254  0.0814  0.0127  0.3525
 1417TIP3    H1 4187   1.491   3.485   1.333  0.5817  0.3512  0.1488
 1417TIP3    H2 4188   1.577   3.384   1.260 -0.3548 -0.7327  0.5245
 1418TIP3   OH2 4189   1.112   4.118   1.651  0.0939  0.7795  0.4398
 1418TIP3    H1 4190   1.162   4.160   1.721  1.0141  0.3543  0.0483
 1418TIP3    H2 4191   1.120   4.180   1.577  1.6847 -0.1750 -0.2255
 1419TIP3   OH2 4192   0.281   4.079   1.115  0.4018 -0.7790 -0.1301
 1419TIP3    H1 4193   0.318   4.143   1.054  1.6458 -1.1773  0.1875
 1419TIP3    H2 4194   0.209   4.038   1.067  0.8435 -0.5080 -1.0274
 1420TIP3   OH2 4195   1.402   5.989   1.547  0.3941 -0.5339  0.3077
 1420TIP3    H1 4196   1.394   6.019   1.638  2.1945 -1.5127  0.8205
 1420TIP3    H2 4197   1.312   5.978   1.517 -0.2204 -0.3883  2.0539
 1421TIP3   OH2 4198   8.222   6.520   3.271 -0.4735 -0.5284  0.4888
 1421TIP3    H1 4199   8.212   6.608   3.233 -0.8340 -0.0676  1.6426
 1421TIP3    H2 4200   8.140   6.475   3.248  0.9141 -1.5739 -2.6818
 1422TIP3   OH2 4201   1.312   1.804   5.173  0.0224  0.5480 -0.5555
 1422TIP3    H1 4202   1.224   1.817   5.137  0.7104  1.5213 -1.9371
 1422TIP3    H2 4203   1.369   1.802   5.096  1.4640  2.0999  0.4520
 1423TIP3   OH2 4204   8.001   1.075   6.783 -0.1500 -0.2655  0.5650
 1423TIP3    H1 4205   7.977   1.146   6.843 -0.8106 -0.1769  0.1915
 1423TIP3    H2 4206   8.064   1.022   6.833  0.9559  1.0240  0.5721
 1424TIP3   OH2 4207   2.431   6.813   0.976 -0.8788  0.0528 -0.4253
 1424TIP3    H1 4208   2.512   6.863   0.969 -0.1860 -0.8680  0.7915
 1424TIP3    H2 4209   2.369   6.874   1.017 -0.3853  0.2982 -0.0320
 1425TIP3   OH2 4210   8.340   0.884   6.848  0.2958  0.2093 -0.3517
 1425TIP3    H1 4211   8.261   0.835   6.825 -0.4458  1.8397 -1.3417
 1425TIP3    H2 4212   8.378   0.835   6.922 -0.8159 -1.4162 -0.8286
 1426TIP3   OH2 4213   3.194   7.120   1.095  0.5516  0.3291 -0.0475
 1426TIP3    H1 4214   3.126   7.127   1.162  1.5671  0.2100  1.0084
 1426TIP3    H2 4215   3.170   7.186   1.030 -0.2227  0.7320  0.6348
 1427TIP3   OH2 4216   1.163   5.752   1.332 -0.2044  0.5959 -0.3268
 1427TIP3    H1 4217   1.148   5.664   1.367 -1.0523  1.0257  0.4254
 1427TIP3    H2 4218   1.250   5.749   1.294 -0.3385 -0.6525 -0.5504
 1428TIP3   OH2 4219   1.014   5.745   1.109  0.3291 -0.3183 -0.0744
 1428TIP3    H1 4220   1.076   5.769   1.179  0.6144 -0.1705 -0.3744
 1428TIP3    H2 4221   0.936   5.716   1.155  0.9089 -1.2766  0.3273
 1429TIP3   OH2 4222   5.576   5.392   0.265 -0.3039  0.1063  0.5501
 1429TIP3    H1 4223   5.512   5.452   0.303  0.3752  0.1123  1.7079
 1429TIP3    H2 4224   5.596   5.429   0.179 -1.5197  0.3426  0.3676
 1430TIP3   OH2 4225   4.157   6.606   0.025  0.2434 -0.3804 -0.0018
 1430TIP3    H1 4226   4.107   6.530   0.056 -1.8013  0.6817 -0.6529
 1430TIP3    H2 4227   4.100   6.649  -0.038  1.7897  1.1485 -0.3964
 1431TIP3   OH2 4228   3.068   3.862   1.145  0.3682  0.2284  0.2775
 1431TIP3    H1 4229   2.977   3.876   1.118  0.6155  0.6837 -0.3417
 1431TIP3    H2 4230   3.084   3.769   1.129 -0.4802 -0.2190  1.9241
 1432TIP3   OH2 4231   5.356   5.925   3.852 -0.2890  0.0178 -0.2690
 1432TIP3    H1 4232   5.399   5.839   3.851  0.0981  0.2154 -0.7128
 1432TIP3    H2 4233   5.263   5.905   3.844 -0.2595 -0.3967  0.3779
 1433TIP3   OH2 4234   5.012   5.771   6.471  0.2024  0.2788  0.1352
 1433TIP3    H1 4235   5.094   5.771   6.519  1.3481 -1.0111 -1.7503
 1433TIP3    H2 4236   5.036   5.749   6.381 -2.1449  0.3479 -0.5653
 1434TIP3   OH2 4237   2.001   6.296   0.528 -0.0373  0.4165  0.2201
 1434TIP3    H1 4238   2.005   6.255   0.614 -1.7711  3.5124  1.8876
 1434TIP3    H2 4239   2.056   6.375   0.536 -1.0442  1.2856 -1.1564
 1435TIP3   OH2 4240   1.386   6.366   1.517  0.1071  0.4884  0.5802
 1435TIP3    H1 4241   1.348   6.301   1.577 -0.6666  0.2847 -0.1242
 1435TIP3    H2 4242   1.327   6.441   1.524 -0.8215 -0.0789 -1.0313
 1436TIP3   OH2 4243   1.474   1.949   6.523  0.3341  0.1302  0.6734
 1436TIP3    H1 4244   1.499   1.871   6.573 -0.6381 -1.9597 -1.9677
 1436TIP3    H2 4245   1.527   1.943   6.443 -2.1065  0.4099 -0.9862
 1437TIP3   OH2 4246   5.767   3.034   0.157 -0.0018 -0.4624  0.1914
 1437TIP3    H1 4247   5.687   3.064   0.113  0.3129  0.6207  0.3278
 1437TIP3    H2 4248   5.741   3.025   0.249  0.8373  3.2376  0.8942
 1438TIP3   OH2 4249   3.169   5.300   0.591  0.3872  0.0934  0.5745
 1438TIP3    H1 4250   3.119   5.239   0.645  0.4376  0.5702  1.1748
 1438TIP3    H2 4251   3.167   5.263   0.503 -0.1932 -0.3912  0.7920
 1439TIP3   OH2 4252   0.224   2.785   6.215  0.1510  0.5277 -0.4912
 1439TIP3    H1 4253   0.306   2.816   6.177  0.0262  0.8500 -0.4993
 1439TIP3    H2 4254   0.174   2.865   6.233 -0.7579  0.2727 -1.8294
 1440TIP3   OH2 4255   8.333   1.928   6.861 -0.5993  0.5688 -0.3504
 1440TIP3    H1 4256   8.389   1.916   6.938  0.3738  2.0340 -0.8169
 1440TIP3    H2 4257   8.257   1.872   6.878  1.4176 -2.2288 -0.1672
 1441TIP3   OH2 4258   3.821   5.216   0.285 -0.1629  0.2515 -0.1520
 1441TIP3    H1 4259   3.897   5.216   0.227  0.6235  0.0759  0.8617
 1441TIP3    H2 4260   3.840   5.147   0.349 -0.8729  0.6560  0.4971
 1442TIP3   OH2 4261   2.645   5.164   0.003  0.0683 -0.1747  0.0268
 1442TIP3    H1 4262   2.587   5.158   0.079 -3.3291  0.0492 -2.4133
 1442TIP3    H2 4263   2.652   5.073  -0.028 -0.5982  0.0359 -0.7801
 1443TIP3   OH2 4264   6.714   0.866   6.065 -0.2104  0.1919 -0.4251
 1443TIP3    H1 4265   6.629   0.822   6.067  0.9478 -2.0898  0.7514
 1443TIP3    H2 4266   6.704   0.940   6.124 -1.6089  0.4198 -0.9166
 1444TIP3   OH2 4267   7.660   0.566   4.679 -0.3215 -0.3342 -0.0435
 1444TIP3    H1 4268   7.748   0.602   4.686 -0.9669  1.1168  0.9093
 1444TIP3    H2 4269   7.672   0.471   4.680  1.0823 -0.1676  2.2027
 1445TIP3   OH2 4270   4.906   4.346   0.517 -0.4073  0.0118 -0.2114
 1445TIP3    H1 4271   4.818   4.354   0.479 -0.5070 -0.1832 -0.0283
 1445TIP3    H2 4272   4.913   4.421   0.576 -0.2943  0.2542 -0.5351
 1446TIP3   OH2 4273   1.293   0.070   6.000 -0.4971 -0.3812  0.2276
 1446TIP3    H1 4274   1.354   0.056   5.928 -0.7590 -3.5983  0.5217
 1446TIP3    H2 4275   1.234   0.138   5.968 -0.0252 -1.0458 -2.2285
 1447TIP3   OH2 4276   3.472   5.124   1.072  0.1695 -0.3257  0.1498
 1447TIP3    H1 4277   3.410   5.150   1.005 -0.6782 -1.7943  0.3461
 1447TIP3    H2 4278   3.516   5.206   1.097 -0.5966  0.4747 -1.0626
 1448TIP3   OH2 4279   3.587   3.776   0.986  0.0608 -0.3025 -0.6145
 1448TIP3    H1 4280   3.604   3.692   0.944 -0.0273 -0.5940 -0.0828
 1448TIP3    H2 4281   3.492   3.784   0.986 -0.0156 -0.9818  0.8008
 1449TIP3   OH2 4282   2.438   1.356   5.162  0.2689  0.0506 -0.0014
 1449TIP3    H1 4283   2.486   1.282   5.199 -0.4227  0.1742  1.1807
 1449TIP3    H2 4284   2.498   1.395   5.098  0.7001 -1.4213 -0.5001
 1450TIP3   OH2 4285   2.383   0.474   2.770  0.1229 -0.3589 -0.1972
 1450TIP3    H1 4286   2.296   0.466   2.811  0.5409  0.3904  0.8660
 1450TIP3    H2 4287   2.403   0.567   2.775  0.2555 -0.2694 -2.0128
 1451TIP3   OH2 4288   2.090   0.279   6.834  0.0722 -0.4573  0.6025
 1451TIP3    H1 4289   2.054   0.349   6.780 -0.4139 -0.2553  1.1734
 1451TIP3    H2 4290   2.175   0.260   6.796  0.2643  0.5368  0.5193
 1452TIP3   OH2 4291   3.143   5.879   0.937  0.0913  0.0347 -0.2321
 1452TIP3    H1 4292   3.194   5.878   1.018 -0.5782  0.6978  0.1968
 1452TIP3    H2 4293   3.201   5.923   0.874  0.6827 -0.6397 -0.1673
 1453TIP3   OH2 4294   4.138   4.929   1.290  0.3213  0.0589  0.2149
 1453TIP3    H1 4295   4.069   4.887   1.342 -1.4014  1.2137 -1.0797
 1453TIP3    H2 4296   4.140   4.880   1.208  0.7081  0.3290  0.0603
 1454TIP3   OH2 4297   2.889   5.692   1.553 -0.1072  0.6008  0.2264
 1454TIP3    H1 4298   2.972   5.655   1.524 -0.1532  0.7366 -0.0765
 1454TIP3    H2 4299   2.865   5.641   1.630 -0.4327 -0.3362 -0.4907
 1455TIP3   OH2 4300   0.325   3.240   6.207 -0.0111 -0.0068  0.4599
 1455TIP3    H1 4301   0.405   3.272   6.166  0.0395  2.3456  2.3508
 1455TIP3    H2 4302   0.255   3.268   6.148  0.1890  1.9969  1.1551
 1456TIP3   OH2 4303   8.524   4.364   6.049 -0.7839  0.1775  0.1784
 1456TIP3    H1 4304   8.503   4.440   5.994 -2.6553 -0.1008  0.4773
 1456TIP3    H2 4305   8.439   4.336   6.084 -0.1171 -2.0311  0.0963
 1457TIP3   OH2 4306   4.195   0.428   3.539 -0.2525 -0.5053 -0.4343
 1457TIP3    H1 4307   4.249   0.368   3.589 -0.6530 -0.9805 -0.5631
 1457TIP3    H2 4308   4.218   0.411   3.448  1.2854  1.1426 -0.3652
 1458TIP3   OH2 4309   1.770   6.506   0.566 -0.3477 -1.0017 -0.0866
 1458TIP3    H1 4310   1.697   6.454   0.599 -0.7389 -0.5744 -0.2717
 1458TIP3    H2 4311   1.829   6.442   0.527  0.0959 -1.5119  1.3822
 1459TIP3   OH2 4312   7.512   3.370   6.113 -0.6720  1.0271 -0.3214
 1459TIP3    H1 4313   7.428   3.363   6.067 -1.0940 -0.1467  0.5667
 1459TIP3    H2 4314   7.497   3.322   6.195  1.3394 -0.5279 -0.8265
 1460TIP3   OH2 4315   0.110   5.924   0.753  0.0129  0.4457 -0.1013
 1460TIP3    H1 4316   0.035   5.973   0.722  0.3289  1.5216  0.8264
 1460TIP3    H2 4317   0.186   5.970   0.717  0.2463 -0.3915 -0.6929
 1461TIP3   OH2 4318   7.017   1.283   5.738  0.0803  0.1956 -0.1899
 1461TIP3    H1 4319   6.958   1.275   5.813  1.8292 -0.8734  1.1131
 1461TIP3    H2 4320   7.067   1.201   5.738  3.1657  1.9875  0.1615
 1462TIP3   OH2 4321   3.262   5.008   1.358 -0.2965  0.0382  0.2614
 1462TIP3    H1 4322   3.296   4.970   1.439  0.7966 -0.7749 -0.5552
 1462TIP3    H2 4323   3.227   5.093   1.384  2.7622  1.1041  1.0816
 1463TIP3   OH2 4324   1.452   5.704   0.345 -0.4354 -0.2553 -0.0292
 1463TIP3    H1 4325   1.525   5.748   0.389 -1.0160 -0.7234  1.4099
 1463TIP3    H2 4326   1.473   5.610   0.353 -0.5483 -0.3462 -0.7533
 1464TIP3   OH2 4327   4.603   5.880   1.619 -0.4342  0.6924  0.3419
 1464TIP3    H1 4328   4.584   5.939   1.547 -0.2024 -1.7981 -1.8348
 1464TIP3    H2 4329   4.518   5.843   1.643 -0.5606  1.7663  1.5968
 1465TIP3   OH2 4330   1.744   2.817   5.810  0.4767  0.1251  0.0150
 1465TIP3    H1 4331   1.837   2.792   5.805  0.4857 -0.0628  0.9689
 1465TIP3    H2 4332   1.729   2.870   5.732  1.3561  0.0419 -0.2179
 1466TIP3   OH2 4333   2.904   5.889   0.081  0.7342 -0.2295  0.0558
 1466TIP3    H1 4334   2.850   5.888   0.160  0.5445  1.8923 -0.0105
 1466TIP3    H2 4335   2.943   5.977   0.080  0.0491  0.0656 -2.6558
 1467TIP3   OH2 4336   3.145   4.005   1.633 -0.1642 -0.1420  0.0686
 1467TIP3    H1 4337   3.094   4.004   1.552 -1.4996  0.4747  0.8703
 1467TIP3    H2 4338   3.227   3.960   1.611 -0.3852  0.2624 -1.6881
 1468TIP3   OH2 4339   4.401   3.066   0.165 -0.8519  0.2785 -0.6925
 1468TIP3    H1 4340   4.441   2.981   0.146 -1.2263  0.2456 -1.3345
 1468TIP3    H2 4341   4.347   3.049   0.243 -1.0853 -0.1235 -0.9389
 1469TIP3   OH2 4342   8.285   1.810   6.449  0.1432 -0.0718  0.2859
 1469TIP3    H1 4343   8.322   1.807   6.361  0.2642 -0.9422  0.3622
 1469TIP3    H2 4344   8.193   1.783   6.437  0.7050 -2.2933  0.7013
 1470TIP3   OH2 4345   4.405   5.279   1.117  0.0486 -0.2486 -0.5502
 1470TIP3    H1 4346   4.422   5.275   1.212  2.6885 -1.9225 -1.0279
 1470TIP3    H2 4347   4.334   5.217   1.102 -1.1517  0.8589  0.4781
 1471TIP3   OH2 4348   3.589   5.865   0.754  0.0519 -0.3113  0.1767
 1471TIP3    H1 4349   3.625   5.776   0.761  0.6222 -0.0218  0.9374
 1471TIP3    H2 4350   3.545   5.879   0.837 -2.0613 -0.7548 -0.8357
 1472TIP3   OH2 4351   3.581   4.999   0.799  0.1187 -0.2721  0.4151
 1472TIP3    H1 4352   3.564   5.066   0.865  0.2792 -0.2703  0.4544
 1472TIP3    H2 4353   3.504   4.942   0.803  1.7555 -2.4032  3.1728
 1473TIP3   OH2 4354   1.858   5.307   0.973  0.2221 -0.5697  0.1354
 1473TIP3    H1 4355   1.901   5.390   0.994 -1.0655  0.3240 -0.6808
 1473TIP3    H2 4356   1.783   5.303   1.032 -0.0800 -0.8569 -0.2683
 1474TIP3   OH2 4357   7.807   1.196   6.233 -0.6253  0.6432  0.3234
 1474TIP3    H1 4358   7.735   1.143   6.199  0.3022 -0.0096 -0.6747
 1474TIP3    H2 4359   7.781   1.286   6.215 -0.4648  0.3401 -1.5382
 1475TIP3   OH2 4360   3.781   4.079   1.318 -0.2913  0.1599 -0.1608
 1475TIP3    H1 4361   3.822   4.024   1.251 -1.3044 -0.0617 -0.6049
 1475TIP3    H2 4362   3.700   4.109   1.278 -0.6884  0.3937  0.8015
 1476TIP3   OH2 4363   1.237   0.836   6.903  0.1146  0.5650 -0.3831
 1476TIP3    H1 4364   1.189   0.753   6.891 -1.6282  1.5350 -0.3698
 1476TIP3    H2 4365   1.208   0.890   6.830  1.1686  1.2099 -0.3256
 1477TIP3   OH2 4366   1.224   2.033   6.241  0.2729 -0.5379 -0.2610
 1477TIP3    H1 4367   1.285   1.963   6.216 -0.1225 -0.4827 -1.4093
 1477TIP3    H2 4368   1.271   2.114   6.218  0.6772 -0.4211  0.9451
 1478TIP3   OH2 4369   2.606   4.479   0.387 -0.2194  0.0379  0.1340
 1478TIP3    H1 4370   2.534   4.525   0.430 -1.2137 -1.6828  0.3600
 1478TIP3    H2 4371   2.583   4.480   0.294 -1.7611 -2.5350  0.4425
 1479TIP3   OH2 4372   2.679   4.240   0.299  0.0245  0.1341 -0.1303
 1479TIP3    H1 4373   2.649   4.313   0.352 -0.1745 -0.3215  0.3934
 1479TIP3    H2 4374   2.614   4.232   0.229 -0.6048 -0.3014  0.5008
 1480TIP3   OH2 4375   6.327   0.585   6.367 -0.2733  0.1409 -0.0976
 1480TIP3    H1 4376   6.353   0.637   6.291  1.6561 -1.5567 -0.6344
 1480TIP3    H2 4377   6.406   0.582   6.421 -0.7924 -1.0639  0.5996
 1481TIP3   OH2 4378   2.161   5.731   1.168 -0.4593  0.2341  0.1167
 1481TIP3    H1 4379   2.092   5.775   1.119  0.6431  0.6255 -1.1083
 1481TIP3    H2 4380   2.242   5.756   1.123  0.2402 -2.5268 -0.2227
 1482TIP3   OH2 4381   1.876   4.717   0.408 -0.4705 -0.2330 -0.0836
 1482TIP3    H1 4382   1.952   4.772   0.391  1.2780 -2.0459  1.6276
 1482TIP3    H2 4383   1.871   4.659   0.332  0.3673 -0.6568  0.1781
 1483TIP3   OH2 4384   4.059   4.853   1.025  0.0015  0.1974 -0.0698
 1483TIP3    H1 4385   3.963   4.852   1.024 -0.0258 -2.3739  1.8230
 1483TIP3    H2 4386   4.084   4.833   0.935 -1.2356 -0.3323 -0.3006
 1484TIP3   OH2 4387   5.592   6.825   6.508  0.4659 -0.4286  0.4606
 1484TIP3    H1 4388   5.518   6.784   6.463  1.2036 -1.0058 -0.2560
 1484TIP3    H2 4389   5.668   6.802   6.454  1.2263 -0.2229  1.4298
 1485TIP3   OH2 4390   3.787   6.304   0.808 -0.3970 -0.1835 -0.0947
 1485TIP3    H1 4391   3.729   6.364   0.761  1.0558  0.9619 -0.4285
 1485TIP3    H2 4392   3.766   6.217   0.772 -1.1395  0.3549 -0.9761
 1486TIP3   OH2 4393   4.107   6.940   0.716  0.1911  0.4154 -0.3590
 1486TIP3    H1 4394   4.192   6.975   0.691  1.0421 -0.6467  0.9749
 1486TIP3    H2 4395   4.122   6.846   0.726 -1.4307  0.0280 -1.2754
 1487TIP3   OH2 4396   3.469   5.373   0.498 -0.0077 -0.5649  0.4713
 1487TIP3    H1 4397   3.427   5.401   0.417  0.7716 -1.3860 -0.2184
 1487TIP3    H2 4398   3.476   5.278   0.491  1.0836 -0.5320  1.0065
 1488TIP3   OH2 4399   6.834   0.785   1.943  0.0189 -0.3484  0.3928
 1488TIP3    H1 4400   6.868   0.753   2.027  2.0001  1.5282  0.3524
 1488TIP3    H2 4401   6.905   0.839   1.908 -1.6846  0.7746 -1.4060
 1489TIP3   OH2 4402   1.815   4.613   0.138  0.2392  0.2408 -0.1952
 1489TIP3    H1 4403   1.857   4.602   0.052  0.8900  0.9472  0.0308
 1489TIP3    H2 4404   1.815   4.525   0.175 -0.1101 -0.0854 -0.9480
 1490TIP3   OH2 4405   2.928   4.204   0.183  0.2111  0.6663  0.3017
 1490TIP3    H1 4406   2.926   4.109   0.170  0.4366  0.7946 -0.7462
 1490TIP3    H2 4407   2.850   4.223   0.235 -1.6423  0.2830 -2.2128
 1491TIP3   OH2 4408   5.353   7.153   6.861 -0.2356  0.0180  0.3235
 1491TIP3    H1 4409   5.406   7.113   6.792 -0.7541  0.7432 -0.5053
 1491TIP3    H2 4410   5.389   7.118   6.943 -0.8635 -2.3623 -0.3837
 1492TIP3   OH2 4411   2.880   4.510   0.412  0.1679  0.0818  0.4389
 1492TIP3    H1 4412   2.900   4.417   0.427  0.3472  0.0627  0.0839
 1492TIP3    H2 4413   2.787   4.511   0.390  0.0583  0.0374  0.9066
 1493TIP3   OH2 4414   5.211   3.880   1.501 -0.3189  0.4966 -0.3996
 1493TIP3    H1 4415   5.281   3.820   1.475  0.2096  0.8498  0.2001
 1493TIP3    H2 4416   5.256   3.953   1.543 -0.9851  1.1918 -0.8897
 1494TIP3   OH2 4417   0.527   6.087   1.063  0.2698  0.2526 -0.1713
 1494TIP3    H1 4418   0.470   6.122   1.131 -0.3513 -0.7144 -0.1857
 1494TIP3    H2 4419   0.591   6.157   1.047 -1.5163  1.7562 -0.8901
 1495TIP3   OH2 4420   1.711   2.983   5.594 -0.2337  0.3388  0.4008
 1495TIP3    H1 4421   1.690   2.991   5.501  0.0881  2.4331  0.4866
 1495TIP3    H2 4422   1.800   3.017   5.602 -0.9537  1.9883  1.7597
 1496TIP3   OH2 4423   3.245   6.130   1.666 -0.4694 -0.6271  0.0162
 1496TIP3    H1 4424   3.314   6.066   1.649 -1.7058 -1.7932 -0.6794
 1496TIP3    H2 4425   3.265   6.163   1.754  0.5317 -1.5222  0.1448
 1497TIP3   OH2 4426   1.866   6.861   1.240  0.2114  0.4872  0.0520
 1497TIP3    H1 4427   1.794   6.876   1.178  1.6721  2.1569 -1.2824
 1497TIP3    H2 4428   1.883   6.767   1.234 -0.3279  0.4582 -1.3607
 1498TIP3   OH2 4429   1.653   6.077   1.303  0.0645 -0.1855  0.4689
 1498TIP3    H1 4430   1.700   6.160   1.292  1.4904 -0.9912  0.4149
 1498TIP3    H2 4431   1.560   6.101   1.295  0.5156  1.1956 -0.8706
 1499TIP3   OH2 4432   1.807   4.304   1.788  0.3921 -0.1283  0.1167
 1499TIP3    H1 4433   1.853   4.346   1.716  0.1144  0.6134  0.3718
 1499TIP3    H2 4434   1.804   4.370   1.857 -2.1955  0.3234 -0.3605
 1500TIP3   OH2 4435   0.995   1.360   5.797 -0.3736  0.0073  0.2850
 1500TIP3    H1 4436   0.942   1.431   5.832 -2.1608 -0.9361 -0.4692
 1500TIP3    H2 4437   1.066   1.349   5.861 -0.6189  1.8067  0.8908
 1501TIP3   OH2 4438   8.081   0.736   5.963 -0.3082 -0.0382 -0.6566
 1501TIP3    H1 4439   7.996   0.723   6.005 -0.3981  0.8932 -0.5542
 1501TIP3    H2 4440   8.089   0.663   5.902 -1.3901  0.1364 -1.0096
 1502TIP3   OH2 4441   1.645   6.571   0.168  0.2937  0.1266 -0.2025
 1502TIP3    H1 4442   1.673   6.660   0.151  1.5068  0.0133  1.0832
 1502TIP3    H2 4443   1.639   6.530   0.082  0.5393  1.2185 -0.7344
 1503TIP3   OH2 4444   0.299   2.470   6.002  0.7433  0.5712 -0.2923
 1503TIP3    H1 4445   0.220   2.417   6.004 -0.2167  2.0328  1.8875
 1503TIP3    H2 4446   0.277   2.544   5.945  1.0136  0.3010 -0.7571
 1504TIP3   OH2 4447   0.015   2.063   6.388  0.1277  0.0207 -0.2106
 1504TIP3    H1 4448   0.012   2.153   6.423 -2.0751  0.4282 -1.3879
 1504TIP3    H2 4449   0.028   2.008   6.466  0.4423  1.2790  0.6481
 1505TIP3   OH2 4450   1.875   6.027   2.341 -0.2882  0.7289  0.4945
 1505TIP3    H1 4451   1.964   6.000   2.321 -0.4168  0.2682  0.5368
 1505TIP3    H2 4452   1.869   6.117   2.309 -0.6795 -0.1898 -2.2059
 1506TIP3   OH2 4453   8.329   0.633   5.794  0.0262  0.1579 -0.1542
 1506TIP3    H1 4454   8.281   0.651   5.713 -1.0936 -1.0637  0.2141
 1506TIP3    H2 4455   8.285   0.556   5.830  0.8151  0.4248  1.3826
 1507TIP3   OH2 4456   3.726   4.448   1.078  0.1138 -0.1534 -0.2282
 1507TIP3    H1 4457   3.805   4.421   1.126  0.8492  1.5488 -0.4433
 1507TIP3    H2 4458   3.697   4.527   1.123 -1.1127 -0.3971 -0.5688
 1508TIP3   OH2 4459   3.627   6.072   1.179  0.0292  0.7340 -0.3117
 1508TIP3    H1 4460   3.685   6.055   1.105 -0.4460  0.8477 -0.7036
 1508TIP3    H2 4461   3.560   6.131   1.145  1.1672  2.7368  0.8065
 1509TIP3   OH2 4462   2.689   6.957   0.326 -0.1135  0.5821  0.2648
 1509TIP3    H1 4463   2.630   6.958   0.401 -0.5979 -0.3469 -0.1032
 1509TIP3    H2 4464   2.707   6.865   0.310 -1.0751  0.6892 -1.5846
 1510TIP3   OH2 4465   2.594   8.022  -0.016  0.2363  0.0295  0.5378
 1510TIP3    H1 4466   2.606   7.960   0.056  0.0456  2.2556  2.5445
 1510TIP3    H2 4467   2.499   8.024  -0.030  0.2599 -0.3075  0.3430
 1511TIP3   OH2 4468   2.382   4.619   0.503  0.0685 -0.1820  0.6792
 1511TIP3    H1 4469   2.391   4.572   0.586  2.3535  0.0510  0.5689
 1511TIP3    H2 4470   2.397   4.711   0.525  3.2154 -0.4039 -0.4041
 1512TIP3   OH2 4471   3.864   5.201   0.665  0.3275 -0.0827 -0.3678
 1512TIP3    H1 4472   3.871   5.120   0.615 -0.2693  0.5340 -1.4702
 1512TIP3    H2 4473   3.873   5.271   0.600  0.2585  0.7353  0.4866
 1513TIP3   OH2 4474   3.836   2.265   0.897 -0.5528 -0.0170 -0.5019
 1513TIP3    H1 4475   3.760   2.314   0.928 -0.8209 -0.4162 -0.5329
 1513TIP3    H2 4476   3.907   2.290   0.957 -0.6562  0.5021 -0.5894
 1514TIP3   OH2 4477   1.362   5.044   0.250 -0.4396 -0.0791  0.0198
 1514TIP3    H1 4478   1.382   4.953   0.228  1.2999  0.1151  0.7485
 1514TIP3    H2 4479   1.297   5.070   0.184 -0.8627 -1.7935 -0.2756
 1515TIP3   OH2 4480   8.420   2.374   6.648  0.5036  0.0413 -0.6341
 1515TIP3    H1 4481   8.437   2.288   6.686  1.3438  0.4239 -0.1433
 1515TIP3    H2 4482   8.504   2.402   6.612 -0.0951  0.0450 -2.0511
 1516TIP3   OH2 4483   3.017   4.974   0.038 -0.2507 -0.1093 -0.4399
 1516TIP3    H1 4484   3.078   5.017   0.098  0.3657  0.0260 -1.1512
 1516TIP3    H2 4485   2.931   4.985   0.079 -0.1462  2.0197 -0.7287
 1517TIP3   OH2 4486   7.824   0.491   5.266 -0.3873 -0.1604  0.3613
 1517TIP3    H1 4487   7.859   0.537   5.343  0.1630 -1.6923  1.0517
 1517TIP3    H2 4488   7.731   0.481   5.285 -0.8973  2.2903 -0.6429
 1518TIP3   OH2 4489   6.090   3.590   0.284  0.3858 -0.0525  0.0981
 1518TIP3    H1 4490   6.013   3.553   0.239 -1.3139  1.8922  1.3312
 1518TIP3    H2 4491   6.149   3.616   0.213 -1.1316  0.6112 -0.9495
 1519TIP3   OH2 4492   0.642   3.622   6.215  0.3892  0.2354  0.2336
 1519TIP3    H1 4493   0.559   3.667   6.197  0.0133  0.2682  1.9621
 1519TIP3    H2 4494   0.617   3.542   6.261  1.3370  0.4292  1.0993
 1520TIP3   OH2 4495   0.918   2.426   5.624  0.3080 -0.4878 -0.1801
 1520TIP3    H1 4496   0.849   2.478   5.664  1.6355  0.4587  0.9170
 1520TIP3    H2 4497   0.903   2.337   5.656  0.0557 -0.1454  0.6591
 1521TIP3   OH2 4498   1.907   1.044   3.642  0.2653 -0.0035 -0.4163
 1521TIP3    H1 4499   1.908   1.056   3.547 -0.4773  0.7557 -0.3272
 1521TIP3    H2 4500   1.856   1.117   3.675 -1.5831 -1.6086  0.3828
 1522TIP3   OH2 4501   4.347   6.977   6.399  0.7294  0.0271  0.4930
 1522TIP3    H1 4502   4.258   6.984   6.365 -0.4451 -0.6560  3.2667
 1522TIP3    H2 4503   4.393   6.921   6.337 -0.4157  1.3327 -1.5957
 1523TIP3   OH2 4504   5.069   6.787   0.434 -0.0553 -0.5073 -0.3249
 1523TIP3    H1 4505   5.117   6.705   0.445  1.7417  0.6892  0.9932
 1523TIP3    H2 4506   5.133   6.848   0.396 -1.3042  0.3381 -1.1059
 1524TIP3   OH2 4507   6.675   0.620   0.810  0.7518  0.5142 -0.8320
 1524TIP3    H1 4508   6.681   0.574   0.726 -0.7381  0.1077 -0.7305
 1524TIP3    H2 4509   6.716   0.704   0.794  0.7549  0.3199 -1.8871
 1525TIP3   OH2 4510   3.424   7.477   0.866  0.5087 -0.5251 -0.3928
 1525TIP3    H1 4511   3.443   7.564   0.829 -0.8561 -0.0908 -0.0698
 1525TIP3    H2 4512   3.456   7.416   0.799  3.4154  0.1572  0.2744
 1526TIP3   OH2 4513   3.305   4.158   1.331 -0.2118  0.1480 -0.1948
 1526TIP3    H1 4514   3.280   4.244   1.365 -0.1878 -0.4955  1.5277
 1526TIP3    H2 4515   3.394   4.169   1.299  0.3315  0.4055  1.3930
 1527TIP3   OH2 4516   1.053   7.236   2.870  0.1015 -0.8232 -0.3420
 1527TIP3    H1 4517   1.043   7.327   2.899  3.9404 -0.6417  0.7553
 1527TIP3    H2 4518   1.033   7.238   2.776  1.0698  1.3895 -0.5312
 1528TIP3   OH2 4519   1.468   6.284   2.260  0.0359 -0.3091 -0.1743
 1528TIP3    H1 4520   1.456   6.320   2.172 -0.4862 -1.6828 -0.6747
 1528TIP3    H2 4521   1.382   6.253   2.285  0.0704  0.5444  1.0521
 1529TIP3   OH2 4522   1.653   2.119   6.699 -0.2586 -0.3997 -0.2045
 1529TIP3    H1 4523   1.576   2.109   6.643 -0.1044 -0.2342 -0.4435
 1529TIP3    H2 4524   1.677   2.211   6.692 -1.4306  0.0765  1.6943
 1530TIP3   OH2 4525   2.451   5.830   1.788 -0.2367  0.0026 -0.0029
 1530TIP3    H1 4526   2.364   5.832   1.827 -1.0817  3.0448 -1.8761
 1530TIP3    H2 4527   2.438   5.786   1.704  0.5327 -1.6953  0.7455
 1531TIP3   OH2 4528   4.719   7.497   6.373 -0.1136 -0.1395  0.0162
 1531TIP3    H1 4529   4.648   7.514   6.434 -0.9179 -1.0765 -0.6421
 1531TIP3    H2 4530   4.782   7.444   6.422 -0.2958 -0.0674  0.3234
 1532TIP3   OH2 4531   3.201   6.773   0.178 -0.1492  0.5339 -0.0761
 1532TIP3    H1 4532   3.238   6.714   0.244  0.6499  0.3590 -0.6875
 1532TIP3    H2 4533   3.261   6.847   0.175  0.0888  0.3059 -0.9762
 1533TIP3   OH2 4534   2.790   7.362   0.447 -0.2686 -0.1240  0.1696
 1533TIP3    H1 4535   2.708   7.341   0.402 -1.7739  1.5324  2.0557
 1533TIP3    H2 4536   2.826   7.435   0.398  1.4806 -2.5053 -2.2455
 1534TIP3   OH2 4537   3.116   5.063   3.108  0.2382 -0.4234  0.5122
 1534TIP3    H1 4538   3.162   5.021   3.181  0.6625 -0.7118  0.0906
 1534TIP3    H2 4539   3.150   5.017   3.031 -0.6559 -0.5332  0.1860
 1535TIP3   OH2 4540   5.324   5.495   0.236  0.5761  0.1863  0.3407
 1535TIP3    H1 4541   5.289   5.495   0.147  0.0013  1.4787  0.5657
 1535TIP3    H2 4542   5.251   5.524   0.291  1.2203  0.3383  1.1224
 1536TIP3   OH2 4543   2.055   5.905   1.873 -0.1264 -0.4006 -0.0175
 1536TIP3    H1 4544   1.967   5.927   1.843 -0.0272  0.8575  0.5537
 1536TIP3    H2 4545   2.109   5.908   1.794 -0.4538 -0.3745 -0.2421
 1537TIP3   OH2 4546   2.967   6.153   0.046 -0.0403 -0.4299 -0.3492
 1537TIP3    H1 4547   2.951   6.247   0.057  1.0376 -0.4016  1.1417
 1537TIP3    H2 4548   3.061   6.143   0.059  0.3319 -1.3363 -3.4852
 1538TIP3   OH2 4549   2.320   3.035   2.234 -0.0531  0.0774  0.3819
 1538TIP3    H1 4550   2.316   2.969   2.165 -1.6651  1.5690 -1.0399
 1538TIP3    H2 4551   2.412   3.060   2.239  0.0599  0.0656 -1.3722
 1539TIP3   OH2 4552   5.394   5.012   2.398  0.2143 -0.0622 -0.7681
 1539TIP3    H1 4553   5.440   5.096   2.398 -1.7492  1.0919  2.0198
 1539TIP3    H2 4554   5.463   4.947   2.413  1.1695  1.5466  2.2583
 1540TIP3   OH2 4555   4.596   5.144   0.214  0.4094  0.0579 -0.3542
 1540TIP3    H1 4556   4.656   5.198   0.161 -0.3359  0.8096 -0.4483
 1540TIP3    H2 4557   4.630   5.152   0.303  0.2407  0.8027 -0.3456
 1541TIP3   OH2 4558   4.270   5.761   1.910  0.2609 -0.3017  0.0955
 1541TIP3    H1 4559   4.332   5.830   1.931  0.5098 -0.1271 -1.1512
 1541TIP3    H2 4560   4.209   5.760   1.984  1.8104 -0.5693  1.3985
 1542TIP3   OH2 4561   3.726   3.513   1.890  0.2063 -0.5257  0.5806
 1542TIP3    H1 4562   3.709   3.420   1.879  0.8425 -0.6326  0.4692
 1542TIP3    H2 4563   3.822   3.519   1.896  0.1880  0.1544  0.2398
 1543TIP3   OH2 4564   2.936   3.517   1.866 -0.4427 -0.0430 -0.5361
 1543TIP3    H1 4565   2.996   3.556   1.929 -1.5132  0.3361  0.2761
 1543TIP3    H2 4566   2.885   3.591   1.833  0.1296 -0.2343 -1.8824
 1544TIP3   OH2 4567   0.409   3.363   3.293  0.3913  0.1297  0.1582
 1544TIP3    H1 4568   0.322   3.401   3.288 -1.3955 -3.6287  0.9155
 1544TIP3    H2 4569   0.419   3.316   3.210  0.2089 -2.3574  1.4984
 1545TIP3   OH2 4570   4.681   5.775   1.093  0.0224  0.1808  0.4086
 1545TIP3    H1 4571   4.708   5.783   1.002  0.7535 -1.4809  0.4561
 1545TIP3    H2 4572   4.591   5.744   1.089  0.0653  0.0751  0.2432
 1546TIP3   OH2 4573   3.947   2.626   0.777 -0.3905 -0.6205  0.2083
 1546TIP3    H1 4574   3.920   2.674   0.856  0.2925  1.3141 -0.6851
 1546TIP3    H2 4575   4.042   2.638   0.774 -0.4920 -0.1268 -1.2527
 1547TIP3   OH2 4576   6.876   0.474   6.825 -0.4377  0.2137 -0.1431
 1547TIP3    H1 4577   6.945   0.412   6.848 -0.4264  0.9560  2.0218
 1547TIP3    H2 4578   6.795   0.432   6.853 -0.6380  0.2676 -0.6427
 1548TIP3   OH2 4579   2.367   5.810   0.233  0.0269  0.2886 -0.1114
 1548TIP3    H1 4580   2.352   5.895   0.275  1.2976 -0.3677  1.7218
 1548TIP3    H2 4581   2.313   5.749   0.282 -1.0836  0.0539 -1.5934
 1549TIP3   OH2 4582   3.259   6.348   1.969 -0.4006 -0.6984 -0.0373
 1549TIP3    H1 4583   3.195   6.318   2.033 -0.9987  0.3083 -0.1575
 1549TIP3    H2 4584   3.339   6.361   2.020 -1.0050  0.5756  0.6095
 1550TIP3   OH2 4585   3.894   7.781   1.547 -0.1957 -0.2377  0.3466
 1550TIP3    H1 4586   3.825   7.722   1.518  0.9555 -1.5410  0.2119
 1550TIP3    H2 4587   3.964   7.724   1.578  0.6324  1.0649  0.9482
 1551TIP3   OH2 4588   2.889   5.982   1.032 -0.2155 -0.1358 -0.4783
 1551TIP3    H1 4589   2.856   6.058   0.984  0.9122  1.5793  1.3649
 1551TIP3    H2 4590   2.959   5.947   0.977 -0.2103  0.6447 -0.9735
 1552TIP3   OH2 4591   3.082   4.403   0.964 -0.5116 -0.3724 -0.3751
 1552TIP3    H1 4592   3.118   4.488   0.940 -1.4966 -0.3649 -1.8993
 1552TIP3    H2 4593   3.136   4.340   0.917 -0.0246 -0.5633  0.4461
 1553TIP3   OH2 4594   0.266   0.477   6.767  0.5904 -0.1747 -0.1143
 1553TIP3    H1 4595   0.329   0.453   6.698 -0.9635  0.1700 -1.6960
 1553TIP3    H2 4596   0.217   0.551   6.730 -1.0306 -0.7175  0.9045
 1554TIP3   OH2 4597   5.573   6.159   5.805  0.6627  0.4561  0.4878
 1554TIP3    H1 4598   5.490   6.133   5.843  0.5666  1.3105  0.8865
 1554TIP3    H2 4599   5.635   6.156   5.878  1.2317 -1.3027 -0.0606
 1555TIP3   OH2 4600   3.474   5.998   0.561  0.6198 -0.6720 -0.1454
 1555TIP3    H1 4601   3.519   5.947   0.629  2.7797 -0.0924 -1.0914
 1555TIP3    H2 4602   3.545   6.042   0.513 -0.8704 -0.7586 -2.5260
 1556TIP3   OH2 4603   4.171   5.760   2.600 -0.5600 -0.0468  0.9786
 1556TIP3    H1 4604   4.266   5.764   2.612 -0.3028  0.8106 -1.0129
 1556TIP3    H2 4605   4.134   5.795   2.681  0.8340  0.0577  1.5718
 1557TIP3   OH2 4606   2.743   3.631   3.592  0.2206  0.6511 -0.5207
 1557TIP3    H1 4607   2.782   3.709   3.631  1.0300  0.0995 -0.2259
 1557TIP3    H2 4608   2.705   3.662   3.510  1.7761  1.0924 -1.0912
 1558TIP3   OH2 4609   7.258   6.089   5.917  0.3885  0.4663 -0.0980
 1558TIP3    H1 4610   7.286   6.024   5.982  0.7623  0.2570 -0.4652
 1558TIP3    H2 4611   7.320   6.079   5.845 -2.0810 -1.7355 -2.0384
 1559TIP3   OH2 4612   3.126   3.231   1.066 -0.0793  0.1170 -0.1131
 1559TIP3    H1 4613   3.153   3.274   1.148 -0.2820 -0.7371  0.4121
 1559TIP3    H2 4614   3.205   3.232   1.012  0.3075 -0.0837  0.4320
 1560TIP3   OH2 4615   3.991   4.546   0.020  0.0897  0.2349  0.2041
 1560TIP3    H1 4616   4.011   4.470  -0.035 -1.0651 -0.7763  1.1413
 1560TIP3    H2 4617   4.067   4.554   0.078  0.9806  0.8562 -1.0228
 1561TIP3   OH2 4618   2.352   4.869   1.148  0.2996  0.3985  0.0318
 1561TIP3    H1 4619   2.445   4.849   1.134  0.3405 -0.0736  0.8824
 1561TIP3    H2 4620   2.307   4.828   1.074  0.6054 -1.0429  0.6087
 1562TIP3   OH2 4621   3.309   4.663   0.500  0.1351 -0.0503 -0.3897
 1562TIP3    H1 4622   3.279   4.753   0.514  1.3468  0.1382  1.1460
 1562TIP3    H2 4623   3.357   4.641   0.580  1.1462 -1.5348 -1.3776
 1563TIP3   OH2 4624   6.660   7.673   6.539  0.3271 -0.0099 -0.3249
 1563TIP3    H1 4625   6.648   7.587   6.580 -0.7721 -0.6315 -1.9314
 1563TIP3    H2 4626   6.686   7.654   6.449  1.4631  1.3508 -0.3051
 1564TIP3   OH2 4627   2.423   6.212   0.869 -0.3058  0.2400 -0.4935
 1564TIP3    H1 4628   2.392   6.264   0.796  1.1507  0.0782 -1.2354
 1564TIP3    H2 4629   2.505   6.173   0.839 -0.7676 -1.5457  0.4503
 1565TIP3   OH2 4630   1.993   5.053   1.420 -0.5361 -0.2675 -0.3203
 1565TIP3    H1 4631   1.927   5.111   1.383  0.0990 -0.6515 -2.1558
 1565TIP3    H2 4632   2.033   5.103   1.491 -0.9202  1.0291 -1.0078
 1566TIP3   OH2 4633   4.703   5.503   1.248  0.2260  0.0589 -0.1579
 1566TIP3    H1 4634   4.781   5.559   1.259  0.4431 -0.2062 -0.3457
 1566TIP3    H2 4635   4.732   5.434   1.189  0.5661 -1.4180  1.6917
 1567TIP3   OH2 4636   5.260   6.760   6.815 -0.6274 -0.1678  0.1577
 1567TIP3    H1 4637   5.353   6.741   6.828 -0.5386 -1.6533 -2.4764
 1567TIP3    H2 4638   5.215   6.692   6.865 -0.2939 -0.6969 -0.2522
 1568TIP3   OH2 4639   7.857   0.599   6.395  0.0093 -0.0459 -0.5791
 1568TIP3    H1 4640   7.818   0.521   6.435 -1.7159  1.4196  0.7155
 1568TIP3    H2 4641   7.813   0.606   6.310 -0.0235 -0.3593 -0.5885
 1569TIP3   OH2 4642   1.897   4.633   1.382 -0.3704 -0.2533 -0.0147
 1569TIP3    H1 4643   1.951   4.709   1.405 -1.1638  0.2017  0.3570
 1569TIP3    H2 4644   1.944   4.592   1.310 -0.3101  1.0161 -0.7276
 1570TIP3   OH2 4645   0.541   7.963   1.382  0.0148 -0.1761  0.6009
 1570TIP3    H1 4646   0.520   7.963   1.475 -0.9374  0.6024  0.3984
 1570TIP3    H2 4647   0.490   8.035   1.346  0.1385 -0.6607 -0.5756
 1571TIP3   OH2 4648   2.222   2.266   5.360 -0.4104  0.4210  0.0346
 1571TIP3    H1 4649   2.303   2.317   5.355 -0.3606  0.3309 -0.0665
 1571TIP3    H2 4650   2.239   2.188   5.308  0.0717 -0.4728  1.5087
 1572TIP3   OH2 4651   3.976   6.772   0.305  0.3908 -0.0313  0.1983
 1572TIP3    H1 4652   3.969   6.691   0.354 -0.1677 -0.6481 -0.8849
 1572TIP3    H2 4653   4.069   6.778   0.282  0.6577  0.2849  1.3629
 1573TIP3   OH2 4654   4.904   4.214   1.939 -0.6038  0.2325  0.0774
 1573TIP3    H1 4655   4.844   4.237   1.869 -0.5760 -0.9139 -0.3222
 1573TIP3    H2 4656   4.848   4.202   2.016 -0.7577  0.2419 -0.0343
 1574TIP3   OH2 4657   7.314   1.064   6.912  0.2202 -0.4228  0.3482
 1574TIP3    H1 4658   7.301   1.001   6.983  0.3336  0.6098  1.2836
 1574TIP3    H2 4659   7.400   1.041   6.875 -0.8642 -2.4672 -1.0104
 1575TIP3   OH2 4660   6.556   0.630   6.525  0.6235  0.0593  0.2645
 1575TIP3    H1 4661   6.503   0.703   6.557  0.2253 -0.5407  0.9979
 1575TIP3    H2 4662   6.643   0.645   6.562 -0.0447 -1.0888  2.3832
 1576TIP3   OH2 4663   3.378   7.190   0.778  0.8278  0.0825  0.6240
 1576TIP3    H1 4664   3.407   7.135   0.705  0.3758  0.7258 -0.0488
 1576TIP3    H2 4665   3.451   7.187   0.840  1.3314 -0.2599  0.0291
 1577TIP3   OH2 4666   0.826   2.636   6.567  0.4109 -0.1343 -0.6181
 1577TIP3    H1 4667   0.890   2.569   6.543  0.7573  0.3647 -1.1006
 1577TIP3    H2 4668   0.879   2.714   6.585  0.2761 -0.7108  2.6831
 1578TIP3   OH2 4669   3.143   6.265   0.282  0.2378 -0.1241 -0.6717
 1578TIP3    H1 4670   3.148   6.304   0.369 -0.0399  0.0323 -0.7281
 1578TIP3    H2 4671   3.063   6.212   0.283  1.3630 -1.8713 -0.1003
 1579TIP3   OH2 4672   8.077   3.142   6.724 -0.2567 -0.1537  0.4288
 1579TIP3    H1 4673   8.074   3.230   6.761  0.2462  0.2399 -0.4478
 1579TIP3    H2 4674   8.170   3.123   6.715 -0.3482 -1.0518  1.2317
 1580TIP3   OH2 4675   2.078   4.935   0.074 -0.1534  0.3407  0.0313
 1580TIP3    H1 4676   1.986   4.962   0.067 -0.4290 -0.4121  0.6299
 1580TIP3    H2 4677   2.082   4.887   0.157  1.1054  1.6808  0.7759
 1581TIP3   OH2 4678   0.852   0.750   6.682  0.1194 -0.1869  0.4916
 1581TIP3    H1 4679   0.877   0.694   6.756 -0.0842 -0.3248  0.4535
 1581TIP3    H2 4680   0.925   0.741   6.620  0.3904  0.0903  0.7638
 1582TIP3   OH2 4681   2.290   3.975   0.170 -0.2511  0.1969 -0.4251
 1582TIP3    H1 4682   2.263   4.065   0.191  0.6399  0.0317  1.6058
 1582TIP3    H2 4683   2.355   3.985   0.100  0.6564  1.2448  0.5422
 1583TIP3   OH2 4684   0.732   2.099   6.905 -0.0342 -0.1488  0.3206
 1583TIP3    H1 4685   0.733   2.084   7.000 -1.8847 -0.7565  0.2709
 1583TIP3    H2 4686   0.673   2.032   6.871  0.4849  0.1729 -1.2457
 1584TIP3   OH2 4687   3.723   4.014   1.035 -0.3486  0.4840  0.6004
 1584TIP3    H1 4688   3.662   3.944   1.014 -0.1409 -0.0859  1.8538
 1584TIP3    H2 4689   3.809   3.974   1.030 -0.0870  1.2018 -0.8234
 1585TIP3   OH2 4690   2.392   3.820   2.548 -0.1846 -0.1717  0.2298
 1585TIP3    H1 4691   2.310   3.781   2.577 -0.4424  0.0594 -0.1735
 1585TIP3    H2 4692   2.456   3.749   2.552 -0.9812 -1.0685 -2.0134
 1586TIP3   OH2 4693   2.192   4.681   1.303 -0.3724  0.6607 -0.2197
 1586TIP3    H1 4694   2.238   4.689   1.386 -2.2931  1.9581  0.7651
 1586TIP3    H2 4695   2.234   4.745   1.245 -2.1148  3.2337  1.2540
 1587TIP3   OH2 4696   3.298   5.883   0.161  0.0140 -0.7491 -0.1100
 1587TIP3    H1 4697   3.234   5.840   0.104 -0.3203  0.2975 -0.5363
 1587TIP3    H2 4698   3.302   5.827   0.239 -3.1724  0.3422  0.9442
 1588TIP3   OH2 4699   5.463   3.300   0.914 -0.0164 -0.8033  0.0268
 1588TIP3    H1 4700   5.389   3.248   0.944  0.5310 -1.6364 -0.0429
 1588TIP3    H2 4701   5.522   3.237   0.873 -0.1477  0.1418 -1.6401
 1589TIP3   OH2 4702   3.349   4.711   2.339  0.0478  0.0706  0.3602
 1589TIP3    H1 4703   3.338   4.791   2.391  0.9493 -0.1894  0.9670
 1589TIP3    H2 4704   3.373   4.742   2.252 -0.8424  0.4940  0.2535
 1590TIP3   OH2 4705   3.915   3.458   0.266  0.2869  0.6293  0.0080
 1590TIP3    H1 4706   3.896   3.424   0.354  1.9604  1.6897  0.8155
 1590TIP3    H2 4707   3.834   3.500   0.238 -1.2595 -2.4308 -0.2826
 1591TIP3   OH2 4708   7.813   0.688   6.040  0.2314 -0.1681 -0.0687
 1591TIP3    H1 4709   7.807   0.766   6.095  0.1254  0.6457 -1.2108
 1591TIP3    H2 4710   7.730   0.684   5.994  0.7073 -0.2700 -0.9261
 1592TIP3   OH2 4711   5.127   5.903   0.908 -0.1673  0.1341  0.1492
 1592TIP3    H1 4712   5.141   5.808   0.904 -1.7463 -0.1505  1.0125
 1592TIP3    H2 4713   5.065   5.922   0.838 -1.9586  0.0990  1.6857
 1593TIP3   OH2 4714   2.230   4.388   1.084  0.1606  0.2039 -0.0163
 1593TIP3    H1 4715   2.280   4.461   1.121  1.2156 -0.6153  0.1865
 1593TIP3    H2 4716   2.247   4.315   1.143 -1.0820 -0.1590 -0.0860
 1594TIP3   OH2 4717   3.110   3.527   0.061  0.4795  0.3057  0.2087
 1594TIP3    H1 4718   3.015   3.538   0.060  0.3724 -0.6656  0.0443
 1594TIP3    H2 4719   3.144   3.617   0.068 -0.4244  0.7332 -0.8370
 1595TIP3   OH2 4720   4.034   6.158   0.563  0.4583 -0.3311  0.1248
 1595TIP3    H1 4721   3.984   6.174   0.483  1.5641  0.6493 -0.3981
 1595TIP3    H2 4722   3.968   6.148   0.631 -0.4675  0.0998 -0.6935
 1596TIP3   OH2 4723   6.492   3.286   0.373  0.2438 -0.1247 -0.6345
 1596TIP3    H1 4724   6.416   3.338   0.399 -1.0159 -2.4407  0.4565
 1596TIP3    H2 4725   6.567   3.343   0.388 -1.0276  1.0764  1.3499
 1597TIP3   OH2 4726   5.132   4.350   0.910  0.1104  0.5102 -0.1534
 1597TIP3    H1 4727   5.062   4.332   0.973 -1.2942 -1.8995 -2.2857
 1597TIP3    H2 4728   5.185   4.270   0.910  0.5622  0.8042 -1.4571
 1598TIP3   OH2 4729   7.585   1.069   6.145 -0.8044 -0.4030 -0.4555
 1598TIP3    H1 4730   7.609   1.078   6.053  0.0664  1.3530 -0.0672
 1598TIP3    H2 4731   7.555   1.155   6.171 -1.0712 -0.8938  0.9100
 1599TIP3   OH2 4732   0.580   7.978   4.945 -0.0811  0.7888 -0.2952
 1599TIP3    H1 4733   0.573   7.951   5.036 -0.9857  1.0194 -0.2936
 1599TIP3    H2 4734   0.566   8.072   4.946 -0.9180  0.6747 -0.7612
 1600TIP3   OH2 4735   3.759   6.670   0.885  0.2514 -0.0931 -0.1532
 1600TIP3    H1 4736   3.695   6.667   0.813 -0.0820 -0.6443  0.1632
 1600TIP3    H2 4737   3.754   6.760   0.917 -0.3837 -0.1350 -0.1171
 1601TIP3   OH2 4738   2.836   6.032   0.600 -0.2633 -0.2372 -0.7526
 1601TIP3    H1 4739   2.745   6.013   0.623 -0.4660  1.7899  0.2702
 1601TIP3    H2 4740   2.887   5.977   0.659 -0.8407  0.6902  0.6523
 1602TIP3   OH2 4741   6.506   5.619   2.403 -0.3475  0.5335 -0.2090
 1602TIP3    H1 4742   6.431   5.668   2.436  0.2190  1.2409  0.0477
 1602TIP3    H2 4743   6.469   5.537   2.368 -1.2560  0.9890 -0.3134
 1603TIP3   OH2 4744   5.294   7.670   0.116  0.3559  0.7854 -0.2123
 1603TIP3    H1 4745   5.361   7.617   0.073 -0.7661  0.6672 -1.8435
 1603TIP3    H2 4746   5.246   7.712   0.045 -0.3362  2.0747  0.9833
 1604TIP3   OH2 4747   4.314   6.614   2.138  0.3716  0.2016 -0.4318
 1604TIP3    H1 4748   4.326   6.705   2.111  3.6232  0.4230  1.4504
 1604TIP3    H2 4749   4.351   6.562   2.066  1.0562  0.4864 -0.2897
 1605TIP3   OH2 4750   2.931   5.224   1.115 -0.0776 -0.0453  0.1119
 1605TIP3    H1 4751   3.003   5.286   1.127  0.8903 -1.2366  0.5653
 1605TIP3    H2 4752   2.952   5.151   1.172 -1.6142 -0.4555  0.1806
 1606TIP3   OH2 4753   7.081   5.253   0.477  0.1581  0.4321  0.1424
 1606TIP3    H1 4754   7.125   5.194   0.416  2.3442  0.9987  1.1336
 1606TIP3    H2 4755   7.028   5.310   0.422 -1.4849 -1.9732 -0.8927
 1607TIP3   OH2 4756   3.972   7.321   0.918  0.0585  0.0509 -0.0297
 1607TIP3    H1 4757   3.889   7.316   0.871  0.6037 -0.4374 -0.9670
 1607TIP3    H2 4758   4.022   7.388   0.872  0.6577 -0.5371 -0.2553
 1608TIP3   OH2 4759   4.746   6.040   0.048  0.1553  0.1457 -0.1873
 1608TIP3    H1 4760   4.675   6.069   0.105  0.4131  0.0156  0.2047
 1608TIP3    H2 4761   4.818   6.020   0.108  0.6884  0.7444 -0.6209
 1609TIP3   OH2 4762   1.110   0.258   5.947  0.2444  0.3924 -0.1982
 1609TIP3    H1 4763   1.052   0.254   6.022 -1.5750 -0.3128 -1.6044
 1609TIP3    H2 4764   1.053   0.248   5.871  2.0821  0.6396 -1.6740
 1610TIP3   OH2 4765   2.793   4.434   1.651  0.0436  0.2986 -0.5163
 1610TIP3    H1 4766   2.790   4.357   1.707  0.3041  0.2925 -0.5092
 1610TIP3    H2 4767   2.885   4.461   1.652 -0.3504  1.6238  0.8590
 1611TIP3   OH2 4768   1.857   0.402   6.967  0.1239 -0.2145  0.6061
 1611TIP3    H1 4769   1.893   0.331   6.914  3.2896  0.9010  1.0954
 1611TIP3    H2 4770   1.833   0.469   6.903  1.9956  0.2906  0.3724
 1612TIP3   OH2 4771   0.885   0.589   6.928  0.0961 -0.1900 -0.3016
 1612TIP3    H1 4772   0.973   0.551   6.923  0.3618  0.3023  0.7427
 1612TIP3    H2 4773   0.827   0.516   6.904  0.8671 -0.0477 -2.8119
 1613TIP3   OH2 4774   6.125   3.779   1.405  0.6079  0.3396 -0.2392
 1613TIP3    H1 4775   6.112   3.812   1.494 -0.6313 -2.0638  0.5337
 1613TIP3    H2 4776   6.064   3.830   1.351  0.5096  0.9937  0.4893
 1614TIP3   OH2 4777   2.017   7.598   1.793  0.3239  0.1095  0.1367
 1614TIP3    H1 4778   2.076   7.660   1.836  0.9311  0.1505 -0.7457
 1614TIP3    H2 4779   2.073   7.524   1.769 -0.3740 -0.7238  1.0667
 1615TIP3   OH2 4780   1.523   3.134   6.674  0.5053 -0.9471  0.0018
 1615TIP3    H1 4781   1.555   3.221   6.650  3.8103 -2.2092 -0.3840
 1615TIP3    H2 4782   1.431   3.134   6.647  0.6691  2.1174 -0.7258
 1616TIP3   OH2 4783   1.908   0.662   5.065 -0.2380  0.0504  0.3552
 1616TIP3    H1 4784   1.868   0.599   5.124 -0.4750 -0.4877 -0.3769
 1616TIP3    H2 4785   1.962   0.610   5.006  0.5546  0.6508  0.5363
 1617TIP3   OH2 4786   2.654   5.521   1.175  0.6663 -0.5350  0.1494
 1617TIP3    H1 4787   2.737   5.473   1.175  0.7600 -0.3895  1.2616
 1617TIP3    H2 4788   2.670   5.597   1.231 -0.6445 -1.2425  1.5124
 1618TIP3   OH2 4789   3.342   5.470   1.430  0.0496 -0.1285 -0.2036
 1618TIP3    H1 4790   3.382   5.556   1.418  0.4913 -0.4415 -1.0152
 1618TIP3    H2 4791   3.340   5.457   1.525  0.0957  0.7177 -0.0866
 1619TIP3   OH2 4792   2.982   5.018   1.271 -0.1395  0.4753  0.3821
 1619TIP3    H1 4793   3.071   4.991   1.294 -0.5345 -1.5340 -0.3365
 1619TIP3    H2 4794   2.936   5.023   1.355 -0.3188 -2.2017  0.5139
 1620TIP3   OH2 4795   0.468   3.900   5.992 -0.1054  0.4361  0.4516
 1620TIP3    H1 4796   0.561   3.921   5.981 -0.4839  1.3949 -1.1940
 1620TIP3    H2 4797   0.445   3.853   5.911 -0.6925 -1.1667  1.5224
 1621TIP3   OH2 4798   2.874   1.199   6.793  0.5127  0.3282  0.5170
 1621TIP3    H1 4799   2.966   1.227   6.798  0.9321 -1.1202  1.1845
 1621TIP3    H2 4800   2.866   1.133   6.861 -0.0660 -2.2652 -1.9849
 1622TIP3   OH2 4801   1.279   0.802   6.286 -0.7706  0.1231 -0.0291
 1622TIP3    H1 4802   1.361   0.759   6.309 -0.4015  1.1220  0.5380
 1622TIP3    H2 4803   1.239   0.744   6.221 -0.2809 -1.0777  0.7085
 1623TIP3   OH2 4804   0.193   1.702   6.651  0.4304 -0.2504  0.7605
 1623TIP3    H1 4805   0.118   1.685   6.594  0.9620 -3.7756  1.0004
 1623TIP3    H2 4806   0.231   1.616   6.667  3.4155  1.2575  2.2036
 1624TIP3   OH2 4807   1.542   3.280   4.267 -0.4077  0.0659 -0.3480
 1624TIP3    H1 4808   1.637   3.269   4.262 -0.5404 -0.8723 -0.9602
 1624TIP3    H2 4809   1.519   3.323   4.185 -0.5684 -0.0951 -0.3854
 1625TIP3   OH2 4810   4.045   7.246   0.267  0.2366  0.4348 -0.6026
 1625TIP3    H1 4811   4.089   7.270   0.348 -0.3278  3.0006 -1.0175
 1625TIP3    H2 4812   3.955   7.225   0.294  0.5387 -0.5258 -0.3329
 1626TIP3   OH2 4813   1.329   2.243   6.778 -0.3438  0.2790  0.0938
 1626TIP3    H1 4814   1.319   2.205   6.691  1.2775  0.2339 -0.0844
 1626TIP3    H2 4815   1.391   2.186   6.823  0.0487  1.2020  0.7396
 1627TIP3   OH2 4816   6.426   5.508   3.213  0.3162  0.2175 -0.6264
 1627TIP3    H1 4817   6.399   5.556   3.291  0.4501 -0.1313 -0.3661
 1627TIP3    H2 4818   6.468   5.574   3.158 -0.3257  0.5889 -0.6720
 1628TIP3   OH2 4819   1.937   6.093   0.364  0.4317 -0.1278 -0.1516
 1628TIP3    H1 4820   1.847   6.100   0.331  0.3119 -0.0778  0.1792
 1628TIP3    H2 4821   1.948   6.170   0.419  0.9392  0.2640 -0.8023
 1629TIP3   OH2 4822   4.450   5.651   1.225  0.1331  0.7009 -0.0392
 1629TIP3    H1 4823   4.537   5.633   1.261  0.7515  1.7871 -0.9458
 1629TIP3    H2 4824   4.390   5.600   1.280  1.1747  1.2777  1.6915
 1630TIP3   OH2 4825   5.166   5.436   1.116 -0.0823 -0.3840  0.4815
 1630TIP3    H1 4826   5.131   5.349   1.098  0.5202 -0.7510  1.0239
 1630TIP3    H2 4827   5.090   5.493   1.123 -0.4395 -0.7216 -0.6497
 1631TIP3   OH2 4828   1.069   2.976   4.475 -0.2552 -0.4052  0.1401
 1631TIP3    H1 4829   1.077   2.882   4.492  0.5765 -1.0366 -3.3133
 1631TIP3    H2 4830   1.044   2.982   4.383 -3.0056  2.7306  0.9683
 1632TIP3   OH2 4831   3.885   2.019   5.951  0.5333  0.7305 -0.1685
 1632TIP3    H1 4832   3.946   2.067   6.007  0.9231 -0.4828  0.4624
 1632TIP3    H2 4833   3.861   1.941   6.002  0.2664  0.0241 -1.3483
 1633TIP3   OH2 4834   5.254   3.653   0.642 -0.2712 -0.0664  0.7367
 1633TIP3    H1 4835   5.213   3.734   0.672  0.0084  0.6570 -0.8214
 1633TIP3    H2 4836   5.181   3.593   0.628 -0.6519  0.5745 -0.0766
 1634TIP3   OH2 4837   3.174   5.900   2.623 -0.5742  0.3338 -0.5717
 1634TIP3    H1 4838   3.219   5.980   2.652  0.1268 -0.9823  2.1361
 1634TIP3    H2 4839   3.085   5.929   2.603  0.3492  2.2321 -2.0482
 1635TIP3   OH2 4840   4.788   0.204   6.889  0.3885 -0.0438  0.0221
 1635TIP3    H1 4841   4.829   0.117   6.882  0.1923 -0.0954 -0.5139
 1635TIP3    H2 4842   4.847   0.262   6.842 -0.8520 -0.3584 -1.9702
 1636TIP3   OH2 4843   4.359   4.293   0.314  0.2622 -0.2738 -0.1709
 1636TIP3    H1 4844   4.449   4.286   0.282  1.0868 -0.1258  2.0796
 1636TIP3    H2 4845   4.361   4.366   0.376 -0.8284 -1.8988  1.8418
 1637TIP3   OH2 4846   4.708   4.742   1.292 -0.1514  0.1995 -0.0560
 1637TIP3    H1 4847   4.638   4.701   1.240  0.2229 -1.1330  0.4670
 1637TIP3    H2 4848   4.776   4.762   1.227  0.8723 -2.6721  0.0542
 1638TIP3   OH2 4849   5.181   5.972   1.725  0.4010 -0.0362  0.2101
 1638TIP3    H1 4850   5.101   6.019   1.702  1.2200  2.7601  2.8872
 1638TIP3    H2 4851   5.249   6.011   1.670  0.7265  0.5927  1.0531
 1639TIP3   OH2 4852   1.576   0.099   6.359  0.3436 -0.2850  0.0019
 1639TIP3    H1 4853   1.516   0.045   6.306  0.8998 -1.5092  0.6014
 1639TIP3    H2 4854   1.655   0.106   6.305 -0.2731  1.2053 -0.7245
 1640TIP3   OH2 4855   5.570   4.442   0.986  0.9994 -0.2843  0.0098
 1640TIP3    H1 4856   5.600   4.505   0.921  1.1615  0.7131  1.0252
 1640TIP3    H2 4857   5.650   4.411   1.028  0.7733  0.9827  1.4480
 1641TIP3   OH2 4858   0.218   6.698   6.918  0.2208  0.1595 -0.5676
 1641TIP3    H1 4859   0.140   6.720   6.866  0.7006  0.5326 -1.1317
 1641TIP3    H2 4860   0.285   6.760   6.889  1.2274 -1.2516 -1.3001
 1642TIP3   OH2 4861   2.208   5.350   1.570 -0.3948  0.2622 -0.0899
 1642TIP3    H1 4862   2.138   5.413   1.551 -0.7328 -0.2787 -0.6430
 1642TIP3    H2 4863   2.164   5.277   1.613 -0.3922 -0.6865 -1.6605
 1643TIP3   OH2 4864   6.327   4.860   1.445  0.5710  0.2017  0.1096
 1643TIP3    H1 4865   6.355   4.938   1.493  2.6600 -1.1455  1.1330
 1643TIP3    H2 4866   6.248   4.831   1.489  1.6780 -0.1916  1.8703
 1644TIP3   OH2 4867   2.891   0.957   5.242 -0.2624 -0.6443 -0.4612
 1644TIP3    H1 4868   2.891   0.995   5.154 -0.7884 -0.8892 -0.5728
 1644TIP3    H2 4869   2.940   1.019   5.295 -0.5672 -0.1238 -0.7795
 1645TIP3   OH2 4870   7.357   7.101   6.676 -0.3443 -0.1899 -0.4857
 1645TIP3    H1 4871   7.432   7.113   6.618 -1.8086 -0.1761 -2.4505
 1645TIP3    H2 4872   7.340   7.188   6.711  0.2929 -0.1090 -0.3701
 1646TIP3   OH2 4873   4.302   6.224   0.432 -0.1422 -0.2547  0.5930
 1646TIP3    H1 4874   4.295   6.319   0.436  3.4451  0.0515  1.1257
 1646TIP3    H2 4875   4.215   6.192   0.456 -1.4448  2.8714  0.2033
 1647TIP3   OH2 4876   5.095   4.141   0.565 -0.2213  0.4886 -0.3890
 1647TIP3    H1 4877   5.176   4.187   0.545 -0.1546  0.8740  0.7601
 1647TIP3    H2 4878   5.026   4.196   0.529  0.1956 -1.7115 -4.8612
 1648TIP3   OH2 4879   2.427   6.719   1.416  0.5178 -0.4873  0.4773
 1648TIP3    H1 4880   2.522   6.716   1.400  0.7818 -1.6689  2.1755
 1648TIP3    H2 4881   2.417   6.694   1.508 -1.5774 -2.1749 -0.1591
 1649TIP3   OH2 4882   1.303   1.071   6.416  0.0777 -0.2585 -0.1949
 1649TIP3    H1 4883   1.301   0.975   6.416  1.1711 -0.2957 -1.2921
 1649TIP3    H2 4884   1.352   1.094   6.495 -0.1321 -0.6052  0.0370
 1650TIP3   OH2 4885   1.556   0.251   1.480 -0.0050  0.0356 -0.3597
 1650TIP3    H1 4886   1.542   0.256   1.574  1.6506  1.2489 -0.1453
 1650TIP3    H2 4887   1.637   0.202   1.470  0.9590  1.6868 -1.0156
 1651TIP3   OH2 4888   2.577   2.187   5.219 -0.1549 -0.2071  0.7090
 1651TIP3    H1 4889   2.611   2.106   5.258  2.1112  1.3419  2.1250
 1651TIP3    H2 4890   2.533   2.231   5.291  0.2038  0.6549  0.4023
 1652TIP3   OH2 4891   6.674   3.724   0.763  0.0541  0.2006 -0.6854
 1652TIP3    H1 4892   6.767   3.725   0.742 -0.1150 -1.5249 -1.5629
 1652TIP3    H2 4893   6.630   3.725   0.678 -0.7190  0.3080 -0.2864
 1653TIP3   OH2 4894   4.808   4.637   0.866  0.1058 -0.3375  0.4928
 1653TIP3    H1 4895   4.726   4.627   0.816  0.5990 -0.0940 -0.3797
 1653TIP3    H2 4896   4.873   4.591   0.814  0.5566 -0.3904  1.1065
 1654TIP3   OH2 4897   6.403   3.123   2.360  0.1595  0.6831 -0.1185
 1654TIP3    H1 4898   6.444   3.204   2.391 -0.2411  0.1213  1.9792
 1654TIP3    H2 4899   6.402   3.131   2.265  0.9379  2.7407  0.0258
 1655TIP3   OH2 4900   0.246   5.457   1.483  0.0707 -0.0095 -0.0811
 1655TIP3    H1 4901   0.289   5.533   1.524  0.1953  0.4511 -1.0460
 1655TIP3    H2 4902   0.154   5.483   1.477 -0.5441 -1.3550  2.8080
 1656TIP3   OH2 4903   6.981   1.178   6.541  0.7672  0.4154 -0.0545
 1656TIP3    H1 4904   7.027   1.148   6.463 -0.8928 -2.2775 -0.0693
 1656TIP3    H2 4905   7.049   1.186   6.608  1.7905  0.0983 -1.0482
 1657TIP3   OH2 4906   0.553   6.693   1.694  0.1726  0.0608 -0.1181
 1657TIP3    H1 4907   0.563   6.785   1.669 -0.6341  0.1041 -0.2995
 1657TIP3    H2 4908   0.516   6.695   1.782  3.3557 -0.0940  1.2873
 1658TIP3   OH2 4909   2.326   6.706   0.465 -0.0138 -0.1771 -0.1251
 1658TIP3    H1 4910   2.384   6.711   0.541  0.2252  0.1751 -0.3296
 1658TIP3    H2 4911   2.314   6.797   0.438  0.4261 -0.3449 -0.9055
 1659TIP3   OH2 4912   0.671   7.844   0.099  0.1776  0.3559 -0.4538
 1659TIP3    H1 4913   0.732   7.893   0.044 -0.0428  0.9304 -0.1832
 1659TIP3    H2 4914   0.585   7.863   0.064  0.0400  0.6790  0.0549
 1660TIP3   OH2 4915   0.835   6.017   1.181 -0.0999 -0.0158  0.6013
 1660TIP3    H1 4916   0.820   6.025   1.087  1.3834  0.6781  0.4080
 1660TIP3    H2 4917   0.929   5.998   1.189 -0.2565 -0.2945  1.9277
 1661TIP3   OH2 4918   3.626   4.891   1.114  0.2612  0.3083  0.0192
 1661TIP3    H1 4919   3.561   4.960   1.100 -0.7941 -1.2000 -2.7953
 1661TIP3    H2 4920   3.699   4.915   1.057  0.2179 -0.4807 -0.3719
 1662TIP3   OH2 4921   7.232   1.514   6.424 -0.2788  0.0363  0.2117
 1662TIP3    H1 4922   7.202   1.469   6.345 -1.1181 -3.1636  2.2844
 1662TIP3    H2 4923   7.155   1.561   6.455 -0.1898  0.5574 -0.3280
 1663TIP3   OH2 4924   5.531   0.687   6.807 -0.3853 -0.2250 -0.0031
 1663TIP3    H1 4925   5.555   0.610   6.756  0.7419  0.4726 -0.5347
 1663TIP3    H2 4926   5.605   0.701   6.866 -0.5197  0.5324 -0.0075
 1664TIP3   OH2 4927   8.341   3.435   6.368 -0.1059 -0.2096  0.5192
 1664TIP3    H1 4928   8.347   3.342   6.388  1.8582 -0.2718 -0.2793
 1664TIP3    H2 4929   8.297   3.438   6.283  0.4410 -0.4366  0.2288
 1665TIP3   OH2 4930   2.875   5.477   1.365 -0.1381  0.3556  0.0933
 1665TIP3    H1 4931   2.826   5.396   1.351  0.0327  0.4045 -0.8658
 1665TIP3    H2 4932   2.811   5.538   1.401  0.2223 -0.8064  2.7901
 1666TIP3   OH2 4933   7.390   2.204   6.858 -0.2557 -0.5839  0.4384
 1666TIP3    H1 4934   7.358   2.133   6.914  1.1377 -0.0202  2.0006
 1666TIP3    H2 4935   7.485   2.206   6.875 -0.1324  0.9694 -0.3715
 1667TIP3   OH2 4936   1.878   7.584   0.730  0.1336 -0.0883  0.1780
 1667TIP3    H1 4937   1.951   7.594   0.668 -0.2187 -1.5473 -0.4930
 1667TIP3    H2 4938   1.861   7.490   0.732 -0.2737  0.0008  2.0348
 1668TIP3   OH2 4939   1.588   6.030   2.251 -0.0959  0.5389  0.6207
 1668TIP3    H1 4940   1.682   6.043   2.263 -0.2281  1.2897  0.8837
 1668TIP3    H2 4941   1.553   6.119   2.243 -1.1580  0.3995  3.3945
 1669TIP3   OH2 4942   4.337   5.714   1.629 -0.3442  0.4224  0.0133
 1669TIP3    H1 4943   4.332   5.632   1.580  0.3948  0.9817 -0.9975
 1669TIP3    H2 4944   4.334   5.687   1.721  3.1367 -1.0272 -0.2162
 1670TIP3   OH2 4945   2.035   6.171   0.778 -0.3130 -0.0214  0.0365
 1670TIP3    H1 4946   2.053   6.218   0.860 -2.3606  1.7130 -0.4822
 1670TIP3    H2 4947   2.017   6.082   0.805 -0.6022  0.4508  1.4382
 1671TIP3   OH2 4948   7.785   3.040   4.544  0.1218  0.3834  0.3820
 1671TIP3    H1 4949   7.790   3.108   4.611 -0.2266  0.2061  0.5926
 1671TIP3    H2 4950   7.870   2.997   4.547  0.7973  1.6150 -0.6171
 1672TIP3   OH2 4951   7.898   5.680   0.534 -0.6009  0.1963 -0.0312
 1672TIP3    H1 4952   7.894   5.774   0.551 -0.6184  0.1607  0.1597
 1672TIP3    H2 4953   7.957   5.672   0.459 -1.0287  0.3997 -0.3872
 1673TIP3   OH2 4954   0.361   6.808   1.332  0.1256 -0.4002 -0.6191
 1673TIP3    H1 4955   0.365   6.900   1.304  1.3482  0.3333  1.9009
 1673TIP3    H2 4956   0.434   6.798   1.393 -0.8729 -2.6765  0.2436
 1674TIP3   OH2 4957   3.369   0.742   2.318  0.0462  0.0086 -0.2521
 1674TIP3    H1 4958   3.294   0.767   2.373  0.7647 -0.1867  0.8266
 1674TIP3    H2 4959   3.442   0.792   2.353  0.3790  0.4006 -1.4748
 1675TIP3   OH2 4960   2.457   7.107   1.324  0.6363 -0.9900 -0.7514
 1675TIP3    H1 4961   2.459   7.059   1.407 -0.3325 -0.4824 -0.4290
 1675TIP3    H2 4962   2.446   7.198   1.349  1.5769 -0.6922 -1.4015
 1676TIP3   OH2 4963   1.587   6.677   1.191  0.6613 -0.1059 -0.7621
 1676TIP3    H1 4964   1.596   6.753   1.134 -0.9804 -0.7210 -1.8832
 1676TIP3    H2 4965   1.651   6.615   1.157  1.3448  0.4231 -0.4411
 1677TIP3   OH2 4966   4.455   6.378   1.109  0.2163 -0.4080  0.4424
 1677TIP3    H1 4967   4.507   6.379   1.189  1.4242 -0.3980 -0.3273
 1677TIP3    H2 4968   4.409   6.463   1.108  0.5178 -0.2425  0.9149
 1678TIP3   OH2 4969   7.909   1.253   5.841 -0.1485  0.1143 -0.2281
 1678TIP3    H1 4970   7.825   1.280   5.879  0.4115  1.1005  0.3358
 1678TIP3    H2 4971   7.893   1.252   5.747 -0.9203 -0.1451 -0.0993
 1679TIP3   OH2 4972   1.076   6.495   0.840 -0.0161  0.0909  0.0345
 1679TIP3    H1 4973   1.015   6.549   0.889 -2.0165 -1.8952 -0.1782
 1679TIP3    H2 4974   1.023   6.453   0.773  1.4003 -2.2759  0.3201
 1680TIP3   OH2 4975   7.230   2.917   5.693 -0.9472  0.0639 -0.1951
 1680TIP3    H1 4976   7.278   2.992   5.658 -3.4702  1.0964 -1.5398
 1680TIP3    H2 4977   7.166   2.895   5.625 -2.2037 -1.4490  1.4356
 1681TIP3   OH2 4978   5.871   3.384   6.846  0.2692  0.1220  0.0522
 1681TIP3    H1 4979   5.844   3.409   6.757  1.8579 -0.9606 -0.7684
 1681TIP3    H2 4980   5.967   3.388   6.843  0.3041  2.5146  2.4668
 1682TIP3   OH2 4981   7.363   3.857   2.442 -0.4857  0.0122  0.2712
 1682TIP3    H1 4982   7.330   3.777   2.483  1.0881  0.6594  2.9397
 1682TIP3    H2 4983   7.407   3.827   2.363 -0.0208 -1.7512  1.1744
 1683TIP3   OH2 4984   2.025   7.561   2.288  0.1837  0.5237 -0.3912
 1683TIP3    H1 4985   1.959   7.630   2.294 -0.1917  0.0565  1.0572
 1683TIP3    H2 4986   2.049   7.543   2.379  3.2312  1.5572 -0.9194
 1684TIP3   OH2 4987   3.105   7.780   1.974 -1.0459 -0.1001  0.4241
 1684TIP3    H1 4988   3.050   7.722   1.922 -0.3366 -0.0135 -0.4431
 1684TIP3    H2 4989   3.085   7.868   1.943  0.6502 -0.1668 -0.9852
 1685TIP3   OH2 4990   6.691   2.278   6.259 -0.3646  0.3774  0.3830
 1685TIP3    H1 4991   6.726   2.306   6.174 -2.3733  1.2148 -0.1807
 1685TIP3    H2 4992   6.755   2.214   6.290  0.1370 -0.3480 -2.0069
 1686TIP3   OH2 4993   5.975   0.172   0.487  0.0343 -0.1266  0.6840
 1686TIP3    H1 4994   6.027   0.127   0.554 -1.4880  0.4128  2.2508
 1686TIP3    H2 4995   5.977   0.113   0.411  2.2194 -0.4920  1.0033
 1687TIP3   OH2 4996   7.758   1.870   6.344 -0.6384 -0.4109  0.8945
 1687TIP3    H1 4997   7.733   1.822   6.265 -2.0488  2.4510 -0.4814
 1687TIP3    H2 4998   7.818   1.938   6.313  1.6086 -1.4687  2.8496
 1688TIP3   OH2 4999   7.179   4.523   5.568  0.2046 -0.5208  0.5469
 1688TIP3    H1 5000   7.120   4.461   5.611  0.8564 -0.3680  1.6837
 1688TIP3    H2 5001   7.267   4.490   5.589  0.6025  1.5469  2.3686
 1689TIP3   OH2 5002   3.027   7.125   0.185  0.0779  0.5626  0.6516
 1689TIP3    H1 5003   3.007   7.218   0.178  1.8598  0.9408  0.3956
 1689TIP3    H2 5004   2.985   7.085   0.109 -1.8356  0.9373  1.4784
 1690TIP3   OH2 5005   1.901   0.892   6.159 -0.2116 -0.4853 -0.1797
 1690TIP3    H1 5006   1.878   0.975   6.201  0.7933 -0.3571  0.1263
 1690TIP3    H2 5007   1.823   0.869   6.107 -1.8098 -1.0602  2.3843
 1691TIP3   OH2 5008   4.548   6.143   0.240  0.4499 -0.4674 -0.0151
 1691TIP3    H1 5009   4.466   6.099   0.262  0.5659 -0.6157  0.1136
 1691TIP3    H2 5010   4.521   6.233   0.218  0.1583 -0.7316 -0.7548
 1692TIP3   OH2 5011   2.695   7.808   2.697 -0.3098  0.6627 -0.4399
 1692TIP3    H1 5012   2.609   7.835   2.730 -1.3202  0.3079 -2.7004
 1692TIP3    H2 5013   2.685   7.715   2.679  0.1023  0.9092 -2.0253
 1693TIP3   OH2 5014   0.076   3.692   6.671  0.4507 -0.4243 -0.1941
 1693TIP3    H1 5015   0.002   3.656   6.720  1.4820 -1.1806  0.8352
 1693TIP3    H2 5016   0.138   3.619   6.664  0.8132 -0.0033 -1.6646
 1694TIP3   OH2 5017   0.888   6.433   0.637 -0.4009 -0.1038  0.2924
 1694TIP3    H1 5018   0.796   6.459   0.648 -0.3800 -0.1655  0.6063
 1694TIP3    H2 5019   0.892   6.396   0.549 -0.1948  2.0588 -0.6638
 1695TIP3   OH2 5020   2.302   3.059   6.670 -0.2574  0.3534 -0.3844
 1695TIP3    H1 5021   2.286   3.126   6.736 -0.1702  0.6156 -0.6266
 1695TIP3    H2 5022   2.247   2.985   6.696  1.8939 -0.6345  1.6039
 1696TIP3   OH2 5023   3.053   7.662   1.297  0.0583 -0.0451 -0.1716
 1696TIP3    H1 5024   2.971   7.688   1.339 -0.2990  0.8962 -1.4080
 1696TIP3    H2 5025   3.032   7.581   1.251 -0.4030  0.5734 -1.0859
 1697TIP3   OH2 5026   2.583   6.437   0.561  0.1647  0.6071 -0.6422
 1697TIP3    H1 5027   2.549   6.515   0.605 -0.3005 -0.5959  1.2062
 1697TIP3    H2 5028   2.506   6.385   0.540  0.5769 -0.1641 -0.2813
 1698TIP3   OH2 5029   2.403   2.332   5.882 -0.2541 -0.4822 -0.0420
 1698TIP3    H1 5030   2.468   2.263   5.868  0.5269  0.3327 -0.4797
 1698TIP3    H2 5031   2.443   2.391   5.946 -0.1568  0.5382 -1.0314
 1699TIP3   OH2 5032   7.799   3.062   6.201  0.5699  0.3736  0.5728
 1699TIP3    H1 5033   7.792   3.158   6.208  0.3907  0.3112  1.2430
 1699TIP3    H2 5034   7.796   3.045   6.107  0.9609  1.0575  0.4322
 1700TIP3   OH2 5035   3.378   3.163   0.961 -0.0282 -0.1309  0.6175
 1700TIP3    H1 5036   3.429   3.237   0.994  1.1974  0.2225 -1.9761
 1700TIP3    H2 5037   3.443   3.104   0.923 -1.1981 -1.5830  0.7971
 1701TIP3   OH2 5038   0.573   4.433   5.002  0.5265 -0.1462  0.2878
 1701TIP3    H1 5039   0.581   4.389   4.918  0.0101  1.1460 -0.4495
 1701TIP3    H2 5040   0.489   4.403   5.037 -1.1185  2.2845 -1.4415
 1702TIP3   OH2 5041   6.201   0.559   1.613  0.5079 -0.0014  0.3041
 1702TIP3    H1 5042   6.254   0.518   1.546  1.2442  1.1058  0.1914
 1702TIP3    H2 5043   6.157   0.486   1.658  0.6145 -0.7848 -0.8597
 1703TIP3   OH2 5044   0.915   1.317   6.684  0.8195 -0.0735  0.3110
 1703TIP3    H1 5045   0.857   1.242   6.671  1.5202 -0.6959  0.7871
 1703TIP3    H2 5046   0.865   1.377   6.739 -0.3597  0.5192 -1.3573
 1704TIP3   OH2 5047   7.406   2.498   5.342  0.3231 -0.4541  0.1082
 1704TIP3    H1 5048   7.442   2.527   5.427 -0.4691  1.7918 -0.2775
 1704TIP3    H2 5049   7.351   2.571   5.314 -2.2500 -2.6179 -0.6917
 1705TIP3   OH2 5050   6.641   1.455   0.389  0.4032 -0.1855 -0.1107
 1705TIP3    H1 5051   6.678   1.460   0.476 -1.3520 -2.1156  0.8002
 1705TIP3    H2 5052   6.687   1.382   0.347 -1.1301 -1.5164  0.4527
 1706TIP3   OH2 5053   1.915   3.644   6.112 -0.3006  0.1350 -0.0561
 1706TIP3    H1 5054   1.928   3.734   6.143  0.5093 -0.1255  0.3672
 1706TIP3    H2 5055   1.836   3.649   6.058 -0.6625  0.9603  0.5385
 1707TIP3   OH2 5056   0.568   3.646   6.856  0.0422  0.5880 -0.0773
 1707TIP3    H1 5057   0.663   3.644   6.867  0.1304 -0.0154 -0.8807
 1707TIP3    H2 5058   0.555   3.639   6.761 -0.8620 -2.3676  0.2107
 1708TIP3   OH2 5059   0.592   4.008   0.677 -0.5017 -0.0288 -0.1994
 1708TIP3    H1 5060   0.514   3.968   0.716 -1.0459  0.8905 -0.3341
 1708TIP3    H2 5061   0.599   4.093   0.720 -1.0144  0.9250 -1.9910
 1709TIP3   OH2 5062   6.887   1.795   0.176  0.6243 -0.0386 -0.2025
 1709TIP3    H1 5063   6.968   1.802   0.227 -0.1253  0.1836  0.9863
 1709TIP3    H2 5064   6.888   1.872   0.119  1.1991  0.0277 -0.1033
 1710TIP3   OH2 5065   1.367   6.773   1.287  0.3862 -0.3283  0.1095
 1710TIP3    H1 5066   1.450   6.742   1.251 -0.7517 -0.5834 -2.4187
 1710TIP3    H2 5067   1.323   6.814   1.213 -0.4918  2.4843  2.1187
 1711TIP3   OH2 5068   0.354   7.930   1.962 -0.6736  0.4870 -0.2291
 1711TIP3    H1 5069   0.392   7.933   2.050 -0.1778 -1.5866 -0.3214
 1711TIP3    H2 5070   0.273   7.880   1.973 -0.4040 -0.1359 -0.9879
 1712TIP3   OH2 5071   5.651   0.230   0.944  0.2519 -0.6686 -0.7671
 1712TIP3    H1 5072   5.637   0.316   0.905  0.3903 -1.1362 -1.8612
 1712TIP3    H2 5073   5.710   0.185   0.884  1.2970 -1.0406  0.5113
 1713TIP3   OH2 5074   2.896   5.664   0.318 -0.0269  0.7673  0.2020
 1713TIP3    H1 5075   2.882   5.598   0.250  1.1279  2.1077 -1.3579
 1713TIP3    H2 5076   2.808   5.679   0.354 -0.4462 -0.9107 -0.0605
 1714TIP3   OH2 5077   7.552   3.495   5.824 -0.0453  0.1071 -0.3010
 1714TIP3    H1 5078   7.512   3.582   5.827  1.3623  0.7528  0.2671
 1714TIP3    H2 5079   7.489   3.441   5.776  0.4500  2.1784 -3.4249
 1715TIP3   OH2 5080   8.201   3.903   5.724  0.0760  0.0787 -0.2321
 1715TIP3    H1 5081   8.110   3.893   5.698  0.1143 -0.9076  0.0156
 1715TIP3    H2 5082   8.200   3.974   5.789 -0.9327 -1.9103  1.9874
 1716TIP3   OH2 5083   3.015   6.751   0.824 -0.2922 -0.0803  0.1056
 1716TIP3    H1 5084   3.088   6.811   0.810 -1.2543  0.6392 -1.9956
 1716TIP3    H2 5085   2.964   6.792   0.894  0.4011  0.2702  0.4127
 1717TIP3   OH2 5086   3.571   7.395   1.663 -0.7513  0.3289 -0.2423
 1717TIP3    H1 5087   3.611   7.461   1.720  2.1270 -0.5795 -1.1065
 1717TIP3    H2 5088   3.497   7.361   1.713 -0.0933  1.6796  1.6957
 1718TIP3   OH2 5089   5.657   0.331   1.198  0.0563 -0.2758  0.1969
 1718TIP3    H1 5090   5.581   0.387   1.187  0.4665 -0.0380 -1.6706
 1718TIP3    H2 5091   5.636   0.252   1.149  1.9881  0.8170 -2.5773
 1719TIP3   OH2 5092   5.300   0.721   0.190  0.3483  0.0762  0.0677
 1719TIP3    H1 5093   5.310   0.704   0.096  0.1849 -1.8275  0.3737
 1719TIP3    H2 5094   5.382   0.692   0.229 -0.0284 -0.1884  0.6570
 1720TIP3   OH2 5095   3.107   7.324   0.446 -0.3221 -0.5611  0.4473
 1720TIP3    H1 5096   3.080   7.390   0.509 -0.7190  1.9801 -2.2588
 1720TIP3    H2 5097   3.078   7.358   0.361  3.7057 -1.8684 -1.6226
 1721TIP3   OH2 5098   5.697   0.931   0.695  0.5892 -0.2659 -0.4823
 1721TIP3    H1 5099   5.746   0.852   0.717 -0.9468 -0.9670  0.5082
 1721TIP3    H2 5100   5.712   0.944   0.602 -0.5905 -2.7794 -1.0613
 1722TIP3   OH2 5101   4.007   7.262   1.221  0.4444 -0.3467 -0.3008
 1722TIP3    H1 5102   4.017   7.175   1.259 -0.1208 -0.0207  0.6149
 1722TIP3    H2 5103   4.013   7.248   1.126  0.7708 -1.3190 -0.1417
 1723TIP3   OH2 5104   7.671   0.650   0.440 -0.0542  0.5077 -0.4618
 1723TIP3    H1 5105   7.672   0.718   0.372  0.2157 -0.7392 -1.7415
 1723TIP3    H2 5106   7.601   0.590   0.412 -0.1271  0.1344  0.5163
 1724TIP3   OH2 5107   6.025   0.034   0.729 -0.4581 -0.2357 -0.3442
 1724TIP3    H1 5108   6.066   0.041   0.815 -0.6592  1.0187 -0.3347
 1724TIP3    H2 5109   6.017  -0.060   0.713 -1.0661 -0.4776  1.3055
 1725TIP3   OH2 5110   4.349   5.928   1.170  0.2716 -0.0573  0.0703
 1725TIP3    H1 5111   4.413   5.863   1.198  0.9181  1.0569  1.2650
 1725TIP3    H2 5112   4.337   5.984   1.247 -1.3198  0.3981 -0.4878
 1726TIP3   OH2 5113   3.588   1.530   0.586 -0.0944  0.7848  0.2983
 1726TIP3    H1 5114   3.684   1.525   0.579 -0.1515 -1.0864  0.6653
 1726TIP3    H2 5115   3.572   1.562   0.675  0.1761 -0.0623  0.6555
 1727TIP3   OH2 5116   7.634   3.661   6.118 -0.0200  0.3083  0.4358
 1727TIP3    H1 5117   7.578   3.668   6.195 -1.5819  0.5988 -0.7033
 1727TIP3    H2 5118   7.608   3.578   6.077 -0.4402  1.0124 -0.7308
 1728TIP3   OH2 5119   4.397   7.318   1.973 -0.0453  0.4979 -0.1661
 1728TIP3    H1 5120   4.386   7.350   2.062  1.1906 -0.7344  0.4405
 1728TIP3    H2 5121   4.469   7.369   1.937 -0.9382  1.4245 -0.6960
 1729TIP3   OH2 5122   1.109   3.815   6.286  0.1427  0.3006 -0.4763
 1729TIP3    H1 5123   1.171   3.853   6.225  1.4060  0.7544  1.0547
 1729TIP3    H2 5124   1.154   3.738   6.322  0.8918  2.0954  2.5627
 1730TIP3   OH2 5125   6.522   0.952  -0.017  0.1739  0.3332 -0.2750
 1730TIP3    H1 5126   6.582   0.896   0.033  1.8763 -0.0924 -2.7260
 1730TIP3    H2 5127   6.555   1.041  -0.004  0.6249  0.2217 -0.6332
 1731TIP3   OH2 5128   8.394   0.933   0.790 -0.1469  0.0474 -0.8269
 1731TIP3    H1 5129   8.394   0.846   0.831  1.5370  0.7311  0.7355
 1731TIP3    H2 5130   8.399   0.915   0.696  2.2426 -1.5669 -0.4544
 1732TIP3   OH2 5131   2.092   5.395   0.785  0.5067 -0.5945  0.0885
 1732TIP3    H1 5132   2.152   5.322   0.800 -0.0000 -1.0126  0.1281
 1732TIP3    H2 5133   2.065   5.422   0.873  0.8680 -0.2146  0.0806
 1733TIP3   OH2 5134   2.179   5.121   0.361 -0.1326 -0.0425  0.3044
 1733TIP3    H1 5135   2.111   5.058   0.386 -0.6620 -0.1927 -1.4559
 1733TIP3    H2 5136   2.143   5.206   0.387  0.5343 -0.4340  2.5790
 1734TIP3   OH2 5137   1.417   4.508   6.431  0.7638  0.4501  0.0216
 1734TIP3    H1 5138   1.473   4.485   6.506 -1.3119 -3.4345  0.5012
 1734TIP3    H2 5139   1.471   4.491   6.354  1.6543  0.8510  0.5508
 1735TIP3   OH2 5140   7.348   0.499   0.498 -0.1787  0.2835 -0.0508
 1735TIP3    H1 5141   7.362   0.405   0.492  0.5402  0.3880 -0.0318
 1735TIP3    H2 5142   7.363   0.532   0.410  0.4644  0.4997  0.1410
 1736TIP3   OH2 5143   2.393   7.989   0.246 -0.3373  0.0929  0.2345
 1736TIP3    H1 5144   2.485   7.968   0.262 -0.1981 -0.1444 -0.8367
 1736TIP3    H2 5145   2.373   8.059   0.308  0.8874  0.9583 -0.3272
 1737TIP3   OH2 5146   2.041   5.666   0.676 -0.0708 -0.0814 -0.2763
 1737TIP3    H1 5147   2.107   5.648   0.610 -0.1813 -0.5914 -0.2505
 1737TIP3    H2 5148   2.018   5.580   0.711 -0.7456  0.0915 -0.2889
 1738TIP3   OH2 5149   8.452   2.882   5.842  0.2461 -0.5159 -0.1867
 1738TIP3    H1 5150   8.414   2.837   5.917 -0.4135 -1.6414 -1.1749
 1738TIP3    H2 5151   8.377   2.914   5.792  0.7118  1.4892  0.3750
 1739TIP3   OH2 5152   0.481   5.560   1.967  0.2879 -0.1931 -0.1290
 1739TIP3    H1 5153   0.490   5.577   2.061  1.0386  2.1862 -0.5929
 1739TIP3    H2 5154   0.422   5.485   1.961 -0.6859  0.3533  2.2171
 1740TIP3   OH2 5155   0.775   3.747   6.408  0.3582 -0.2452  0.0504
 1740TIP3    H1 5156   0.858   3.712   6.376  0.3728 -1.1501  1.0673
 1740TIP3    H2 5157   0.710   3.716   6.345  0.6411 -0.4620 -0.1336
 1741TIP3   OH2 5158   4.828   7.936   6.293 -0.2158 -0.7127 -0.3561
 1741TIP3    H1 5159   4.828   7.847   6.329  0.3305  0.0900  1.6684
 1741TIP3    H2 5160   4.764   7.984   6.345 -0.8255 -0.0043 -1.7161
 1742TIP3   OH2 5161   2.449   4.651   4.726  0.5458 -0.7744 -0.2485
 1742TIP3    H1 5162   2.428   4.558   4.717 -0.8607 -0.3287 -1.9153
 1742TIP3    H2 5163   2.422   4.690   4.642 -1.0190  1.5204  1.2481
 1743TIP3   OH2 5164   3.704   7.029   1.226  0.5527  0.1237  0.0768
 1743TIP3    H1 5165   3.615   7.062   1.238  0.1464 -1.3866  1.2683
 1743TIP3    H2 5166   3.746   7.042   1.311  1.8755  1.9821 -0.8260
 1744TIP3   OH2 5167   0.696   0.566   6.552  0.2105  0.5744  0.1023
 1744TIP3    H1 5168   0.737   0.652   6.558 -2.2683  1.7879  0.0806
 1744TIP3    H2 5169   0.677   0.542   6.642 -1.6258  1.3162 -0.0740
 1745TIP3   OH2 5170   1.575   3.343   6.475  1.0931  0.1756  0.5186
 1745TIP3    H1 5171   1.513   3.304   6.413  0.1374 -0.3493  1.7590
 1745TIP3    H2 5172   1.660   3.307   6.450  0.6320 -0.4808 -0.1312
 1746TIP3   OH2 5173   3.825   7.228   0.506  0.6285 -0.3156  0.1925
 1746TIP3    H1 5174   3.787   7.212   0.419  0.1815  1.3470  0.0596
 1746TIP3    H2 5175   3.841   7.141   0.541 -0.1381 -1.0244 -1.1527
 1747TIP3   OH2 5176   3.403   7.554   1.351 -0.2054  0.0598  0.3554
 1747TIP3    H1 5177   3.474   7.490   1.349  0.7256  1.0095  1.9307
 1747TIP3    H2 5178   3.344   7.527   1.281  0.9458 -1.6249  0.0167
 1748TIP3   OH2 5179   3.941   7.096   2.465  0.1708  0.2078  0.5173
 1748TIP3    H1 5180   3.999   7.037   2.514  1.0566  0.6428 -0.0045
 1748TIP3    H2 5181   3.966   7.184   2.494  0.7602  0.4774 -0.7695
 1749TIP3   OH2 5182   3.355   7.393   1.108 -0.4044  0.0880 -0.1997
 1749TIP3    H1 5183   3.362   7.422   1.017 -0.6605  0.8172  0.0074
 1749TIP3    H2 5184   3.316   7.306   1.103  2.1364 -1.0511 -0.9426
 1750TIP3   OH2 5185   2.642   3.525   6.917 -0.3384 -0.5354 -0.3286
 1750TIP3    H1 5186   2.625   3.432   6.907  0.4413 -0.6900 -0.2536
 1750TIP3    H2 5187   2.729   3.530   6.956 -0.6398  0.2095  0.2714
 1751TIP3   OH2 5188   3.101   5.636   1.318 -0.2499 -0.0464 -0.1286
 1751TIP3    H1 5189   3.043   5.710   1.300 -2.5921 -2.1418 -1.5976
 1751TIP3    H2 5190   3.042   5.562   1.329  2.0758 -1.8507  0.4941
 1752TIP3   OH2 5191   1.553   4.950   5.191  0.2415  0.2739  0.7520
 1752TIP3    H1 5192   1.647   4.936   5.176 -0.1278 -1.9580  0.3200
 1752TIP3    H2 5193   1.536   4.910   5.276 -0.4527  0.0979  0.5291
 1753TIP3   OH2 5194   1.207   2.119   5.717  0.2377 -0.3499 -0.3524
 1753TIP3    H1 5195   1.297   2.134   5.688 -0.1589 -0.0792 -1.4921
 1753TIP3    H2 5196   1.189   2.191   5.777  0.8704 -0.5681  0.1120
 1754TIP3   OH2 5197   7.576   0.378   1.658 -0.2845 -0.1441  0.3306
 1754TIP3    H1 5198   7.588   0.439   1.584  0.7406 -1.0043 -0.2217
 1754TIP3    H2 5199   7.664   0.359   1.688 -0.7263  0.7710  2.2860
 1755TIP3   OH2 5200   0.850   1.628   6.679 -0.3257 -0.7045 -0.3723
 1755TIP3    H1 5201   0.813   1.673   6.603 -0.3252 -0.9399 -0.5129
 1755TIP3    H2 5202   0.773   1.600   6.729 -0.3142  0.6564  0.4283
 1756TIP3   OH2 5203   4.187   7.717   1.281 -0.1440 -0.4884  0.6535
 1756TIP3    H1 5204   4.261   7.726   1.221 -0.6407 -1.0436 -0.0614
 1756TIP3    H2 5205   4.132   7.650   1.240 -2.5333  1.9919 -0.3476
 1757TIP3   OH2 5206   1.736   4.908   5.656 -0.2832  0.4056 -0.0440
 1757TIP3    H1 5207   1.719   4.924   5.749 -2.0724  0.4403 -0.3594
 1757TIP3    H2 5208   1.780   4.823   5.655 -0.4907  0.2758  0.8148
 1758TIP3   OH2 5209   6.986   7.086   2.970 -0.0854  0.2989 -0.2049
 1758TIP3    H1 5210   7.060   7.116   3.022 -0.2437 -0.0041  0.1950
 1758TIP3    H2 5211   6.914   7.144   2.996 -0.0444  0.4465 -0.4248
 1759TIP3   OH2 5212   0.937   7.608   5.728 -0.0242  0.0193  0.5243
 1759TIP3    H1 5213   0.907   7.545   5.794 -2.6944 -0.1364 -0.7779
 1759TIP3    H2 5214   0.959   7.554   5.652  0.9383  0.3898  0.5319
 1760TIP3   OH2 5215   7.444   7.923   5.396 -0.5746  0.0062 -0.5838
 1760TIP3    H1 5216   7.436   7.990   5.328 -1.2295  0.1387 -0.3763
 1760TIP3    H2 5217   7.456   7.841   5.347  0.6944  0.3250 -0.8301
 1761TIP3   OH2 5218   7.863   7.605   4.046  0.2930  0.0192 -0.1524
 1761TIP3    H1 5219   7.788   7.561   4.007  0.8995 -0.9721 -0.2120
 1761TIP3    H2 5220   7.938   7.553   4.019  0.9420  0.6446  0.4279
 1762TIP3   OH2 5221   7.012   7.482   3.909 -0.7084  0.1873 -0.0815
 1762TIP3    H1 5222   6.933   7.456   3.957 -1.4137 -0.3938 -1.5285
 1762TIP3    H2 5223   6.991   7.569   3.875 -0.8282 -0.0719 -0.6757
 1763TIP3   OH2 5224   8.293   7.703   2.708  0.1495 -0.1162 -0.4102
 1763TIP3    H1 5225   8.380   7.663   2.716  0.5971  0.9457  0.1563
 1763TIP3    H2 5226   8.242   7.663   2.779  0.9903  1.2866  1.0137
 1764TIP3   OH2 5227   6.376   6.777   6.353 -0.3610 -0.3763  0.4920
 1764TIP3    H1 5228   6.396   6.861   6.394 -1.5914  0.3927 -0.4648
 1764TIP3    H2 5229   6.282   6.767   6.363 -0.3652 -1.1572 -0.2995
 1765TIP3   OH2 5230   5.424   7.828   4.972  0.3437 -0.1866 -0.4767
 1765TIP3    H1 5231   5.470   7.873   5.042 -1.2559 -0.9887  1.1344
 1765TIP3    H2 5232   5.491   7.775   4.929  1.1142 -0.6166  1.2212
 1766TIP3   OH2 5233   1.484   1.107   4.713  0.6228  0.1693 -0.0567
 1766TIP3    H1 5234   1.521   1.190   4.683  0.0150  0.2700 -0.5437
 1766TIP3    H2 5235   1.539   1.040   4.673 -0.0760  0.3073 -1.2880
 1767TIP3   OH2 5236   7.695   7.783   4.987  0.0112  0.1802 -0.0177
 1767TIP3    H1 5237   7.616   7.745   5.025 -0.0672  0.0898 -0.2631
 1767TIP3    H2 5238   7.682   7.775   4.892  0.0023  0.7991 -0.0746
 1768TIP3   OH2 5239   6.720   7.209   2.536  0.5658  0.0477 -0.3386
 1768TIP3    H1 5240   6.805   7.232   2.496  1.8323 -0.7346  1.8317
 1768TIP3    H2 5241   6.739   7.132   2.589 -1.4547  0.0593  0.4197
 1769TIP3   OH2 5242   6.838   6.906   6.027  0.2856 -0.3949  0.3867
 1769TIP3    H1 5243   6.895   6.978   6.055  0.9009 -1.7981  2.9061
 1769TIP3    H2 5244   6.779   6.892   6.101 -1.2202 -1.0916 -0.9234
 1770TIP3   OH2 5245   7.709   7.497   4.358 -0.4180 -0.2737  0.1552
 1770TIP3    H1 5246   7.716   7.423   4.419  0.5874 -0.5219 -0.2584
 1770TIP3    H2 5247   7.795   7.539   4.360 -0.8147  0.5647 -0.0259
 1771TIP3   OH2 5248   0.182   7.145   3.570  0.4082 -0.5986  0.4181
 1771TIP3    H1 5249   0.089   7.131   3.587  0.2308  0.4632  0.4019
 1771TIP3    H2 5250   0.185   7.185   3.484  0.8683 -0.5171  0.4710
 1772TIP3   OH2 5251   7.380   7.739   3.844  0.4073  0.2186  0.1355
 1772TIP3    H1 5252   7.352   7.735   3.753  2.2529 -2.0440 -0.3659
 1772TIP3    H2 5253   7.300   7.724   3.895 -0.2909 -0.4507 -1.1493
 1773TIP3   OH2 5254   0.298   7.540   4.840  0.2331  0.1784 -0.5098
 1773TIP3    H1 5255   0.350   7.620   4.851  0.7965 -0.2371 -0.1394
 1773TIP3    H2 5256   0.336   7.478   4.901 -0.2319 -0.3661 -0.7705
 1774TIP3   OH2 5257   2.001   0.227   4.016 -0.0848  0.3503  0.1271
 1774TIP3    H1 5258   1.960   0.168   3.953 -1.3078 -0.1651  1.3760
 1774TIP3    H2 5259   2.070   0.272   3.966 -1.0932  0.0331 -1.5867
 1775TIP3   OH2 5260   2.040   0.266   3.620  0.6448 -0.0395 -0.0820
 1775TIP3    H1 5261   2.010   0.346   3.577  0.6399 -0.3397 -0.6342
 1775TIP3    H2 5262   2.135   0.277   3.627  0.6098  0.1421  0.1003
 1776TIP3   OH2 5263   2.644   1.552   3.680 -0.3104  0.1155  0.0848
 1776TIP3    H1 5264   2.729   1.564   3.722 -0.7926 -0.6987  1.3036
 1776TIP3    H2 5265   2.607   1.474   3.721 -0.5233 -1.0887 -2.2923
 1777TIP3   OH2 5266   0.311   7.294   2.969 -0.5282  0.0022 -0.4209
 1777TIP3    H1 5267   0.339   7.365   3.027  0.8487  1.4672 -2.8036
 1777TIP3    H2 5268   0.389   7.240   2.959 -1.1459 -1.0013  0.1607
 1778TIP3   OH2 5269   1.167   0.624   5.540  0.2159 -0.5026  0.0359
 1778TIP3    H1 5270   1.237   0.604   5.602  0.5803  0.4446 -0.0725
 1778TIP3    H2 5271   1.109   0.684   5.587  1.6138  1.9056 -1.2505
 1779TIP3   OH2 5272   0.195   7.159   4.180 -0.0800 -0.2675 -0.5321
 1779TIP3    H1 5273   0.222   7.068   4.187 -0.4940 -0.2903  1.0099
 1779TIP3    H2 5274   0.163   7.181   4.267  2.5382  2.1405 -0.0767
 1780TIP3   OH2 5275   2.635   1.141   4.975  0.0366  0.2375  0.1715
 1780TIP3    H1 5276   2.661   1.084   4.902  2.2790 -1.0179  1.8602
 1780TIP3    H2 5277   2.547   1.112   4.998  0.3835 -1.2283 -0.2753
 1781TIP3   OH2 5278   6.361   7.649   1.841  0.1539  0.5378 -0.1683
 1781TIP3    H1 5279   6.321   7.643   1.928 -0.0216 -0.4414 -0.3136
 1781TIP3    H2 5280   6.356   7.560   1.806 -0.6669  1.1262 -1.5810
 1782TIP3   OH2 5281   7.379   7.883   4.961 -0.7440 -0.1977 -0.2356
 1782TIP3    H1 5282   7.300   7.937   4.954 -1.4146 -0.9057  1.5531
 1782TIP3    H2 5283   7.411   7.875   4.871 -1.1386  2.4138 -0.6696
 1783TIP3   OH2 5284   0.151   7.297   3.301 -0.8511 -0.0846 -0.2209
 1783TIP3    H1 5285   0.056   7.303   3.296 -0.9998 -0.4357  1.5945
 1783TIP3    H2 5286   0.180   7.385   3.326 -0.9669 -0.6164  1.9568
 1784TIP3   OH2 5287   6.656   6.819   3.737 -0.1312  0.3240 -0.0537
 1784TIP3    H1 5288   6.706   6.765   3.799 -1.4897  1.8895  2.4697
 1784TIP3    H2 5289   6.566   6.812   3.767 -0.9670  0.3652 -2.4577
 1785TIP3   OH2 5290   0.458   5.658   3.363 -0.5660 -0.0549  0.2869
 1785TIP3    H1 5291   0.549   5.662   3.392  0.1992 -0.8989 -1.9015
 1785TIP3    H2 5292   0.427   5.748   3.369  1.4622  0.8582 -2.1596
 1786TIP3   OH2 5293   6.791   6.998   1.753  0.1165 -0.6012 -0.5456
 1786TIP3    H1 5294   6.816   6.955   1.835 -0.0399 -1.5694 -1.0011
 1786TIP3    H2 5295   6.865   6.983   1.694 -0.2417 -0.8748 -0.9351
 1787TIP3   OH2 5296   8.304   7.333   2.438 -0.5701  0.2228 -0.4651
 1787TIP3    H1 5297   8.277   7.307   2.526 -0.2537  2.2401  0.2483
 1787TIP3    H2 5298   8.399   7.342   2.444 -0.5025 -0.0102 -1.1290
 1788TIP3   OH2 5299   6.972   7.432   5.036  0.2014  0.5294 -0.5240
 1788TIP3    H1 5300   6.916   7.405   5.108  0.9460  0.7863  0.1559
 1788TIP3    H2 5301   7.000   7.520   5.059  0.5983  0.5398 -1.0333
 1789TIP3   OH2 5302   1.924   0.419   3.362 -0.6318 -0.1203 -0.0362
 1789TIP3    H1 5303   1.921   0.481   3.434 -0.7760  0.6989 -0.7392
 1789TIP3    H2 5304   1.883   0.465   3.289 -0.6985 -1.0235 -0.5773
 1790TIP3   OH2 5305   5.263   4.048   0.043  1.0862  0.1141  0.5592
 1790TIP3    H1 5306   5.188   4.107   0.033  2.9932  2.3522 -1.1675
 1790TIP3    H2 5307   5.303   4.074   0.126  0.5024 -0.4332  1.0126
 1791TIP3   OH2 5308   1.847   0.961   4.482 -0.4826  0.0292  0.4859
 1791TIP3    H1 5309   1.828   0.916   4.564 -2.6086  1.6526  0.9126
 1791TIP3    H2 5310   1.829   0.896   4.414 -1.1638 -0.5208  1.1908
 1792TIP3   OH2 5311   0.320   2.635   5.263  0.7964  0.2429  0.1280
 1792TIP3    H1 5312   0.402   2.593   5.287  0.7788  1.5275  2.6340
 1792TIP3    H2 5313   0.347   2.719   5.224  0.7016  0.3806  0.3568
 1793TIP3   OH2 5314   7.640   7.087   3.889  0.2030 -0.2284 -0.1930
 1793TIP3    H1 5315   7.714   7.089   3.949  0.3254 -1.0545 -0.3082
 1793TIP3    H2 5316   7.621   6.993   3.877 -0.1010 -0.0636 -1.0793
 1794TIP3   OH2 5317   3.893   2.882   2.187  0.0974  0.2123  0.7159
 1794TIP3    H1 5318   3.798   2.894   2.183 -0.0230 -0.5797  1.0089
 1794TIP3    H2 5319   3.907   2.833   2.268  0.7531  0.2907  0.6492
 1795TIP3   OH2 5320   0.185   7.102   4.876  0.2023 -0.3408  0.4666
 1795TIP3    H1 5321   0.264   7.142   4.841  0.5003 -1.1243  0.2396
 1795TIP3    H2 5322   0.185   7.014   4.840 -1.6986  0.2121 -1.0010
 1796TIP3   OH2 5323   0.468   6.338   2.095 -0.1387  0.2604  0.0321
 1796TIP3    H1 5324   0.473   6.247   2.066  0.1073  0.1042  0.5600
 1796TIP3    H2 5325   0.380   6.366   2.071 -0.7514 -0.5901  1.2558
 1797TIP3   OH2 5326   4.625   1.129   3.647 -0.6081 -0.6720 -0.1099
 1797TIP3    H1 5327   4.650   1.158   3.734 -3.0595 -1.8099  1.0267
 1797TIP3    H2 5328   4.593   1.208   3.603 -0.4719 -0.3061  0.4513
 1798TIP3   OH2 5329   6.924   6.382   3.955 -0.1539 -0.3549  0.5091
 1798TIP3    H1 5330   7.019   6.380   3.961 -0.2093 -1.6573  1.0354
 1798TIP3    H2 5331   6.897   6.290   3.956 -1.3606 -0.0473 -0.7045
 1799TIP3   OH2 5332   8.319   7.398   2.954 -0.5440  0.3567 -0.0140
 1799TIP3    H1 5333   8.395   7.340   2.960 -0.8110  0.0627  0.6297
 1799TIP3    H2 5334   8.355   7.486   2.965  0.1011  0.4822 -2.8162
 1800TIP3   OH2 5335   7.735   6.323   2.432 -0.0584 -0.2158 -0.1046
 1800TIP3    H1 5336   7.701   6.236   2.456 -1.1847  0.3017  0.1789
 1800TIP3    H2 5337   7.805   6.304   2.370 -0.7345 -1.3049 -0.5611
 1801TIP3   OH2 5338   2.713   0.428   3.887 -0.2550 -0.2020  0.4156
 1801TIP3    H1 5339   2.806   0.407   3.881 -0.3343 -0.2813 -0.6102
 1801TIP3    H2 5340   2.709   0.524   3.882 -0.2996 -0.2513 -0.7215
 1802TIP3   OH2 5341   2.577   0.753   2.487 -0.3113  0.2306 -0.7405
 1802TIP3    H1 5342   2.504   0.717   2.537 -0.4400 -1.8190 -2.3461
 1802TIP3    H2 5343   2.591   0.690   2.416  2.7356  0.8316 -0.7156
 1803TIP3   OH2 5344   1.199   7.307   3.325  0.3757 -0.4597  0.5058
 1803TIP3    H1 5345   1.213   7.216   3.300 -0.9694 -0.0052 -2.0251
 1803TIP3    H2 5346   1.287   7.343   3.334  0.9162 -1.4898 -0.4933
 1804TIP3   OH2 5347   3.490   0.414   3.570 -0.1500 -0.1236 -0.1482
 1804TIP3    H1 5348   3.472   0.324   3.597  0.2828 -0.5550 -1.2553
 1804TIP3    H2 5349   3.568   0.407   3.514  0.5839  1.0844  0.6856
 1805TIP3   OH2 5350   2.827   0.289   2.315  0.1571 -0.5319 -0.7635
 1805TIP3    H1 5351   2.787   0.213   2.359  0.2454  1.1064  2.2800
 1805TIP3    H2 5352   2.837   0.354   2.384  1.5796  1.6978 -2.9871
 1806TIP3   OH2 5353   0.513   6.976   4.320  0.3683  0.4220  0.1549
 1806TIP3    H1 5354   0.433   6.923   4.326  2.1888 -2.3347  0.8552
 1806TIP3    H2 5355   0.496   7.051   4.377 -2.1045  0.4229 -0.5042
 1807TIP3   OH2 5356   7.400   6.554   3.541 -0.1828  0.1230  0.0464
 1807TIP3    H1 5357   7.351   6.634   3.560  0.9543  0.4487  1.6391
 1807TIP3    H2 5358   7.409   6.510   3.625 -1.7570 -2.2629 -0.9759
 1808TIP3   OH2 5359   7.131   6.333   2.826 -0.1267 -0.3193  0.2915
 1808TIP3    H1 5360   7.128   6.422   2.861 -0.2506 -0.8052  1.5125
 1808TIP3    H2 5361   7.040   6.306   2.821 -0.1976  0.1103 -1.3971
 1809TIP3   OH2 5362   0.182   6.202   4.190 -0.0765  0.0752  0.1795
 1809TIP3    H1 5363   0.224   6.117   4.184  1.1826  0.5371  1.9862
 1809TIP3    H2 5364   0.234   6.260   4.135  1.2208  0.4675  1.7902
 1810TIP3   OH2 5365   2.499   7.019   2.902  0.1944  0.1341  0.6202
 1810TIP3    H1 5366   2.414   7.057   2.882  0.0791 -0.2933  0.2855
 1810TIP3    H2 5367   2.522   6.968   2.824  0.7441  0.2255  0.7166
 1811TIP3   OH2 5368   3.239   0.115   2.853  0.0603  0.4296  0.0666
 1811TIP3    H1 5369   3.234   0.072   2.767  0.8714  1.5948 -0.5699
 1811TIP3    H2 5370   3.273   0.047   2.911 -2.8422 -1.1332  0.0193
 1812TIP3   OH2 5371   5.912   0.375   3.918 -0.3836  0.1643  0.2212
 1812TIP3    H1 5372   5.944   0.401   3.831 -0.1832 -0.9091 -0.0464
 1812TIP3    H2 5373   5.837   0.318   3.899 -1.1286  0.9548  0.7918
 1813TIP3   OH2 5374   1.315   0.305   5.587  0.0156  0.0298  0.0411
 1813TIP3    H1 5375   1.377   0.329   5.656  1.0589 -1.5882 -0.2963
 1813TIP3    H2 5376   1.322   0.376   5.523 -0.4665  1.2020  1.2557
 1814TIP3   OH2 5377   1.338   7.841   3.685 -0.3136  0.4132  0.1560
 1814TIP3    H1 5378   1.433   7.837   3.675 -0.0844 -2.2043  2.7421
 1814TIP3    H2 5379   1.309   7.750   3.675 -2.0818  0.6021  3.1680
 1815TIP3   OH2 5380   2.580   1.446   4.098  0.4605 -0.1547  0.3347
 1815TIP3    H1 5381   2.672   1.468   4.082  1.1462  0.1796  4.1515
 1815TIP3    H2 5382   2.583   1.370   4.157 -1.6375  1.2001  2.2866
 1816TIP3   OH2 5383   2.594   1.011   2.906 -0.3215 -0.0157 -0.2894
 1816TIP3    H1 5384   2.625   1.003   2.996 -0.3241  0.8035 -0.2102
 1816TIP3    H2 5385   2.498   1.006   2.912 -0.5058  3.1082  0.1235
 1817TIP3   OH2 5386   2.755   0.402   6.876 -0.6895 -0.6183  0.4566
 1817TIP3    H1 5387   2.740   0.462   6.949  1.1166 -0.7589  0.9709
 1817TIP3    H2 5388   2.728   0.451   6.799  1.4626  1.1919  0.7864
 1818TIP3   OH2 5389   1.281   7.155   2.981 -0.5013 -0.0375 -0.2297
 1818TIP3    H1 5390   1.197   7.190   2.951  0.0872  0.5121 -1.2576
 1818TIP3    H2 5391   1.339   7.163   2.905  0.1607 -1.5124  0.0898
 1819TIP3   OH2 5392   1.118   7.713   4.563 -0.1540 -0.2566 -0.1948
 1819TIP3    H1 5393   1.151   7.705   4.652 -0.8814  0.7828  0.1927
 1819TIP3    H2 5394   1.185   7.674   4.507  1.5813  1.5247  0.5829
 1820TIP3   OH2 5395   3.645   1.302   5.020  0.6768 -0.4424  0.2912
 1820TIP3    H1 5396   3.675   1.232   5.077  2.5448  0.2188  0.1567
 1820TIP3    H2 5397   3.614   1.370   5.079 -0.1989 -0.9646  0.4409
 1821TIP3   OH2 5398   4.287   1.801   3.004 -0.4448 -0.1673 -0.2017
 1821TIP3    H1 5399   4.364   1.762   3.045 -1.4326 -0.6459  1.2370
 1821TIP3    H2 5400   4.213   1.753   3.041 -1.4323  0.0289 -1.8348
 1822TIP3   OH2 5401   6.271   7.332   3.409  0.6851 -0.0447  0.1334
 1822TIP3    H1 5402   6.247   7.240   3.392 -0.6273  0.2885  0.1549
 1822TIP3    H2 5403   6.321   7.328   3.490  1.2109 -0.8227 -0.2123
 1823TIP3   OH2 5404   3.711   0.297   4.535  0.3460  0.0538  0.2121
 1823TIP3    H1 5405   3.760   0.231   4.584 -1.8726 -2.2519 -0.6013
 1823TIP3    H2 5406   3.670   0.249   4.463 -1.3120  2.3100 -0.4219
 1824TIP3   OH2 5407   1.305   0.061   2.866  0.9064  0.4050 -0.3987
 1824TIP3    H1 5408   1.306   0.153   2.839  0.7755  0.2772 -0.8275
 1824TIP3    H2 5409   1.372   0.056   2.935 -0.3395  1.2204  0.9165
 1825TIP3   OH2 5410   4.655   0.615   2.483 -0.0919  0.1442  0.2765
 1825TIP3    H1 5411   4.604   0.536   2.463 -1.0577  1.2039 -1.5410
 1825TIP3    H2 5412   4.733   0.583   2.528 -0.8100 -1.7823  0.1802
 1826TIP3   OH2 5413   6.506   7.582   3.775  0.2235  0.1905  0.3778
 1826TIP3    H1 5414   6.533   7.660   3.824 -0.1475 -0.8596  2.3465
 1826TIP3    H2 5415   6.422   7.605   3.736  1.4042  1.6819 -1.3501
 1827TIP3   OH2 5416   0.728   7.529   3.149 -0.3368 -0.4053 -0.4059
 1827TIP3    H1 5417   0.686   7.531   3.235 -0.8513 -1.5025 -0.6196
 1827TIP3    H2 5418   0.814   7.568   3.163 -0.8733  0.5539  0.3427
 1828TIP3   OH2 5419   3.737   0.860   3.994  0.5821 -0.1285  0.0472
 1828TIP3    H1 5420   3.690   0.811   4.061  1.1527  0.2459  0.7243
 1828TIP3    H2 5421   3.818   0.811   3.981  0.1191 -0.6402 -0.9444
 1829TIP3   OH2 5422   8.064   7.767   1.178  0.6910  0.3677 -0.0040
 1829TIP3    H1 5423   8.094   7.698   1.119  0.9440 -1.2239  1.9677
 1829TIP3    H2 5424   8.130   7.770   1.247 -0.8882  0.5532  1.5039
 1830TIP3   OH2 5425   8.252   7.823   4.826 -0.2368  0.1708 -0.2525
 1830TIP3    H1 5426   8.183   7.888   4.839 -0.5016  0.0223 -0.8778
 1830TIP3    H2 5427   8.239   7.760   4.897 -0.2122  0.6002  0.1314
 1831TIP3   OH2 5428   0.946   7.015   1.671 -0.0526 -0.1278  0.0916
 1831TIP3    H1 5429   0.911   6.947   1.728 -0.4051  0.8281  1.0476
 1831TIP3    H2 5430   0.877   7.030   1.606 -0.0187 -0.5974 -0.0552
 1832TIP3   OH2 5431   6.958   7.679   3.344 -0.0242 -0.4953  0.0291
 1832TIP3    H1 5432   7.022   7.737   3.303  0.0699 -0.5145  0.1498
 1832TIP3    H2 5433   6.963   7.598   3.293  1.1897 -1.0633  1.0202
 1833TIP3   OH2 5434   7.558   6.281   3.378 -0.7706 -0.4882  0.3264
 1833TIP3    H1 5435   7.492   6.213   3.368 -0.3313 -0.6759 -1.5076
 1833TIP3    H2 5436   7.519   6.359   3.340 -0.5239 -0.2053  0.6458
 1834TIP3   OH2 5437   3.391   1.027   2.978 -0.0121 -0.3069 -0.1991
 1834TIP3    H1 5438   3.343   0.954   2.940 -0.9869 -1.6171  3.4262
 1834TIP3    H2 5439   3.457   0.986   3.034  0.8113  1.5762  0.2583
 1835TIP3   OH2 5440   3.225   1.902   1.812 -0.2346 -0.1509  0.1733
 1835TIP3    H1 5441   3.132   1.915   1.793 -0.0221 -0.3158 -1.0450
 1835TIP3    H2 5442   3.233   1.916   1.906 -1.7279 -1.5427  0.5197
 1836TIP3   OH2 5443   7.336   8.000   2.224 -0.1973 -0.2914 -0.6208
 1836TIP3    H1 5444   7.261   7.941   2.213 -1.5777  1.2278  0.3818
 1836TIP3    H2 5445   7.348   8.005   2.318  0.4823  0.3199 -0.7389
 1837TIP3   OH2 5446   1.298   0.088   0.980  0.3515  0.1294  0.1357
 1837TIP3    H1 5447   1.313   0.004   1.022  2.9077  0.8590  0.8217
 1837TIP3    H2 5448   1.280   0.148   1.052  1.6169  0.7622 -0.0607
 1838TIP3   OH2 5449   3.533   0.759   4.218  0.4014  0.2867  0.0274
 1838TIP3    H1 5450   3.530   0.854   4.220 -1.6157  0.2237  0.8278
 1838TIP3    H2 5451   3.490   0.731   4.298  1.6631 -1.3088  0.1877
 1839TIP3   OH2 5452   6.641   7.978   2.882  0.7359  0.3103  0.0858
 1839TIP3    H1 5453   6.735   7.997   2.884  1.0712 -1.3629  2.4091
 1839TIP3    H2 5454   6.624   7.931   2.964 -1.6931 -1.4096 -1.3294
 1840TIP3   OH2 5455   1.004   7.688   6.405 -0.1430  0.3270 -0.6151
 1840TIP3    H1 5456   1.065   7.727   6.342  1.3303  0.9806  1.1651
 1840TIP3    H2 5457   1.056   7.621   6.450 -0.8306  0.6786  0.7170
 1841TIP3   OH2 5458   2.499   0.061   3.225 -0.1711  0.0573 -0.0357
 1841TIP3    H1 5459   2.431   0.067   3.157  1.1420 -1.7746 -1.5507
 1841TIP3    H2 5460   2.468  -0.010   3.282  0.2335 -0.4868 -0.4837
 1842TIP3   OH2 5461   2.936   1.940   1.857 -0.2194 -0.2015  0.7275
 1842TIP3    H1 5462   2.867   1.878   1.882 -0.0374 -0.9710 -0.5885
 1842TIP3    H2 5463   2.930   2.010   1.921 -1.8864 -0.5211  0.9513
 1843TIP3   OH2 5464   0.381   6.641   4.526 -0.0472 -0.6463 -0.5210
 1843TIP3    H1 5465   0.359   6.679   4.441 -1.4266  0.5169  0.3326
 1843TIP3    H2 5466   0.326   6.563   4.532  0.5735 -1.1292 -0.9842
 1844TIP3   OH2 5467   7.052   6.489   4.419  0.2569  0.8140  0.1146
 1844TIP3    H1 5468   7.079   6.422   4.356  0.3667  2.0327 -1.1418
 1844TIP3    H2 5469   6.966   6.518   4.388 -0.0326  0.8775  0.9689
 1845TIP3   OH2 5470   3.193   1.259   3.096  0.1477 -0.4264 -0.2738
 1845TIP3    H1 5471   3.161   1.325   3.034 -1.0045 -0.3209  0.4176
 1845TIP3    H2 5472   3.276   1.229   3.059 -0.2256  0.0857 -1.5378
 1846TIP3   OH2 5473   7.525   7.280   3.245  0.5777  0.9274  0.2266
 1846TIP3    H1 5474   7.611   7.295   3.284  1.4022  0.8522 -1.5164
 1846TIP3    H2 5475   7.493   7.368   3.223  0.9012  0.8618 -0.5378
 1847TIP3   OH2 5476   1.431   0.473   1.785  0.0454  0.2307 -0.6030
 1847TIP3    H1 5477   1.480   0.391   1.780  1.5769  1.1701 -1.3790
 1847TIP3    H2 5478   1.471   0.521   1.858 -0.4221  0.5556 -0.5577
 1848TIP3   OH2 5479   0.773   8.007   3.132 -0.0261 -0.5528  0.1649
 1848TIP3    H1 5480   0.782   7.986   3.225  0.7575 -0.1730  0.1736
 1848TIP3    H2 5481   0.739   7.926   3.093  0.5957 -1.0385  0.6208
 1849TIP3   OH2 5482   6.559   7.184   3.528 -0.1282  0.2034  0.2612
 1849TIP3    H1 5483   6.626   7.121   3.555 -0.0669 -0.4764 -1.3821
 1849TIP3    H2 5484   6.501   7.134   3.471 -1.1897  1.1594  0.4952
 1850TIP3   OH2 5485   3.732   2.481   3.092  0.7690 -0.8562  0.1480
 1850TIP3    H1 5486   3.808   2.479   3.149  1.2035  0.4438 -0.3796
 1850TIP3    H2 5487   3.766   2.503   3.005 -0.0851 -1.2211 -0.2967
 1851TIP3   OH2 5488   2.348   0.113   4.010 -0.4963 -0.2591  0.3624
 1851TIP3    H1 5489   2.285   0.044   3.992 -0.0939 -0.1726 -1.4071
 1851TIP3    H2 5490   2.386   0.135   3.925 -0.0653  1.6059  0.9984
 1852TIP3   OH2 5491   7.735   7.756   2.004 -0.2884  0.6328  0.6063
 1852TIP3    H1 5492   7.778   7.688   2.055  0.1342  1.8456  1.9184
 1852TIP3    H2 5493   7.643   7.731   2.001  0.2365 -1.2176 -0.9569
 1853TIP3   OH2 5494   4.419   0.557   4.636 -0.4627 -0.8466  0.5205
 1853TIP3    H1 5495   4.364   0.517   4.567 -1.0742  1.0843 -0.1486
 1853TIP3    H2 5496   4.358   0.574   4.708 -0.8591  1.6494 -0.3671
 1854TIP3   OH2 5497   2.100   0.067   2.318  0.2493 -0.2211  0.2795
 1854TIP3    H1 5498   2.105   0.159   2.345  1.5558 -0.0274 -0.5849
 1854TIP3    H2 5499   2.011   0.040   2.341 -0.8493  1.8578 -1.3804
 1855TIP3   OH2 5500   1.056   6.841   2.735 -0.3559  0.1192  0.1185
 1855TIP3    H1 5501   1.089   6.924   2.702  0.6751 -0.6691 -0.8657
 1855TIP3    H2 5502   0.965   6.838   2.708 -0.1250  0.4990 -0.7109
 1856TIP3   OH2 5503   8.472   7.910   4.457  0.2501  0.6454  0.1226
 1856TIP3    H1 5504   8.520   7.978   4.506  1.2544 -0.1330  0.2418
 1856TIP3    H2 5505   8.504   7.919   4.367  1.5491 -0.6753  0.4387
 1857TIP3   OH2 5506   1.730   1.298   5.389 -0.0524  0.1914 -0.3713
 1857TIP3    H1 5507   1.810   1.350   5.378 -0.3275  0.8108  0.5053
 1857TIP3    H2 5508   1.751   1.213   5.350  1.7747 -0.3792  1.7278
 1858TIP3   OH2 5509   7.937   5.745   3.340  0.0026 -0.0112 -0.0191
 1858TIP3    H1 5510   7.943   5.680   3.410  1.0613 -0.0256 -0.1095
 1858TIP3    H2 5511   7.923   5.693   3.260 -1.3863  0.0176  0.2058
 1859TIP3   OH2 5512   2.477   1.616   2.161  0.0339 -0.5007  0.1298
 1859TIP3    H1 5513   2.503   1.526   2.139 -0.0226 -0.7266  0.9829
 1859TIP3    H2 5514   2.507   1.668   2.087  2.3707 -0.8467  0.7944
 1860TIP3   OH2 5515   3.258   0.391   4.127  0.6708  0.4481  0.4339
 1860TIP3    H1 5516   3.181   0.429   4.171  0.6039  0.5624  0.2201
 1860TIP3    H2 5517   3.333   0.432   4.171  0.6022  0.6719  0.3472
 1861TIP3   OH2 5518   2.284   0.175   3.458 -0.0535 -0.0510 -0.3887
 1861TIP3    H1 5519   2.361   0.230   3.438  0.2554  0.1497  1.2774
 1861TIP3    H2 5520   2.303   0.138   3.544 -2.2905  0.7911  0.4850
 1862TIP3   OH2 5521   1.191   7.328   3.763  0.4633  0.2719 -0.1495
 1862TIP3    H1 5522   1.158   7.242   3.738  1.7183 -0.1937 -0.2490
 1862TIP3    H2 5523   1.211   7.320   3.856  2.6335 -0.2477 -0.6189
 1863TIP3   OH2 5524   7.445   7.100   3.586 -0.0533  0.0527 -0.1615
 1863TIP3    H1 5525   7.518   7.059   3.634 -0.1533 -0.3162 -0.3233
 1863TIP3    H2 5526   7.454   7.194   3.605  1.3262  0.1828 -1.3352
 1864TIP3   OH2 5527   5.553   1.500   3.071  0.5335  0.4491 -0.3202
 1864TIP3    H1 5528   5.466   1.507   3.110  0.9706 -0.5628  0.9133
 1864TIP3    H2 5529   5.557   1.570   3.006 -1.2531  0.3962 -0.5096
 1865TIP3   OH2 5530   1.447   7.797   2.492  0.3516  0.1943 -0.0046
 1865TIP3    H1 5531   1.485   7.806   2.580 -0.8540  1.4772  0.3936
 1865TIP3    H2 5532   1.354   7.783   2.507  0.4381 -1.7208 -1.0303
 1866TIP3   OH2 5533   2.123   0.886   1.056  0.2043 -0.3159  0.0908
 1866TIP3    H1 5534   2.160   0.818   1.000 -0.8046  0.6082 -1.7368
 1866TIP3    H2 5535   2.143   0.968   1.011  1.0957  0.5932  2.0865
 1867TIP3   OH2 5536   0.238   0.624   1.911 -0.0784  0.5558 -0.7547
 1867TIP3    H1 5537   0.327   0.660   1.913 -0.8725  2.5085  0.2890
 1867TIP3    H2 5538   0.186   0.684   1.964 -1.9474 -0.8236 -0.9636
 1868TIP3   OH2 5539   6.497   6.850   1.236 -0.1100 -0.5445 -0.1560
 1868TIP3    H1 5540   6.523   6.914   1.302  0.4640 -0.3160 -0.5882
 1868TIP3    H2 5541   6.525   6.766   1.271  0.7176 -0.3626 -0.3525
 1869TIP3   OH2 5542   0.991   1.682   1.956  0.0003  0.3469 -0.4320
 1869TIP3    H1 5543   0.918   1.683   2.018 -1.4114  2.4651 -2.0476
 1869TIP3    H2 5544   0.973   1.608   1.898 -0.1407  0.0571 -0.0201
 1870TIP3   OH2 5545   2.745   2.428   3.899  0.1549  0.0845  0.3773
 1870TIP3    H1 5546   2.733   2.434   3.804  1.7676 -0.1555  0.1494
 1870TIP3    H2 5547   2.798   2.350   3.912 -0.8613 -0.4221  1.5600
 1871TIP3   OH2 5548   4.559   1.377   4.317 -0.4654 -0.1949 -0.2645
 1871TIP3    H1 5549   4.543   1.464   4.353  0.6546  0.4357 -1.2826
 1871TIP3    H2 5550   4.611   1.392   4.238 -0.2837 -1.7827 -0.4664
 1872TIP3   OH2 5551   1.686   7.023   2.816 -0.3298  0.2840  0.0656
 1872TIP3    H1 5552   1.701   6.935   2.781  0.1165 -0.6740  2.5541
 1872TIP3    H2 5553   1.747   7.079   2.767  1.0536 -1.2005  0.0476
 1873TIP3   OH2 5554   2.273   0.031   3.045 -0.1323  0.4372 -0.4599
 1873TIP3    H1 5555   2.208   0.098   3.025 -0.3523  0.0459 -1.0610
 1873TIP3    H2 5556   2.329   0.028   2.968  0.0060  0.0805 -0.3469
 1874TIP3   OH2 5557   0.327   1.274   0.863  0.2711  0.0706 -0.4729
 1874TIP3    H1 5558   0.358   1.185   0.878  0.6426  0.2047 -0.4450
 1874TIP3    H2 5559   0.358   1.323   0.939  1.1923  0.5081 -1.1277
 1875TIP3   OH2 5560   3.652   3.132   6.019  0.3976  0.0165 -0.5125
 1875TIP3    H1 5561   3.682   3.206   5.965  2.1272 -1.4204 -1.5676
 1875TIP3    H2 5562   3.729   3.106   6.069 -0.6931  0.0724  1.2500
 1876TIP3   OH2 5563   2.764   0.069   4.063  0.1644  0.7144  0.0375
 1876TIP3    H1 5564   2.702   0.019   4.010  1.5884 -0.9422 -0.1020
 1876TIP3    H2 5565   2.710   0.113   4.129 -1.2617  0.1123 -0.7256
 1877TIP3   OH2 5566   6.293   7.909   2.088 -0.1366 -0.0280  0.0586
 1877TIP3    H1 5567   6.242   7.976   2.134  0.6783  1.0841 -0.6515
 1877TIP3    H2 5568   6.381   7.944   2.083  0.5400 -1.6107  0.5727
 1878TIP3   OH2 5569   6.840   5.641   0.699  0.0920 -0.3246 -0.5632
 1878TIP3    H1 5570   6.868   5.731   0.686 -0.3494 -0.0179  0.5250
 1878TIP3    H2 5571   6.774   5.626   0.631 -1.1463  0.7667  0.3892
 1879TIP3   OH2 5572   2.070   0.201   4.469  0.3016 -0.2066  0.1298
 1879TIP3    H1 5573   2.037   0.159   4.389  0.6720 -1.6388  0.7051
 1879TIP3    H2 5574   2.109   0.283   4.439  1.4257 -1.2422 -1.3169
 1880TIP3   OH2 5575   3.560   1.880   5.343 -0.0365 -0.7195  0.2544
 1880TIP3    H1 5576   3.501   1.954   5.359  1.1791  1.2015 -3.4132
 1880TIP3    H2 5577   3.514   1.826   5.278  0.8083 -0.9747 -0.1379
 1881TIP3   OH2 5578   2.479   0.064   1.619 -0.2241  0.1432 -0.0406
 1881TIP3    H1 5579   2.521  -0.022   1.616 -0.2325  0.0741  1.4576
 1881TIP3    H2 5580   2.544   0.123   1.580  1.3798  0.0637  2.3693
 1882TIP3   OH2 5581   1.416   0.586   3.648 -0.6769  0.0026 -0.1894
 1882TIP3    H1 5582   1.510   0.566   3.652 -0.6138 -0.3151 -2.4507
 1882TIP3    H2 5583   1.401   0.644   3.722  1.6613  1.3950 -0.7456
 1883TIP3   OH2 5584   3.599   0.497   2.488 -0.1270  0.6441 -0.3299
 1883TIP3    H1 5585   3.666   0.550   2.446  0.3389  0.4484  0.1642
 1883TIP3    H2 5586   3.613   0.408   2.455  0.9972  0.2635  1.1505
 1884TIP3   OH2 5587   7.401   6.919   3.020  0.4136 -0.3675  0.5819
 1884TIP3    H1 5588   7.458   6.905   2.944 -1.4767  0.8195 -1.1256
 1884TIP3    H2 5589   7.460   6.916   3.095  2.6003 -0.0204 -1.0567
 1885TIP3   OH2 5590   2.804   0.957   4.422 -0.2366 -0.8829  0.2452
 1885TIP3    H1 5591   2.786   1.047   4.450  0.3995 -0.5273 -0.4833
 1885TIP3    H2 5592   2.879   0.930   4.474  1.4608  0.0639 -1.6746
 1886TIP3   OH2 5593   4.853   1.594   2.551 -0.3094  0.2772 -0.2396
 1886TIP3    H1 5594   4.775   1.548   2.520  0.2431  0.3796 -1.8187
 1886TIP3    H2 5595   4.833   1.617   2.641 -1.7560 -0.4874 -0.3568
 1887TIP3   OH2 5596   6.679   7.622   1.124 -0.1673 -0.3907 -0.4481
 1887TIP3    H1 5597   6.602   7.620   1.180 -0.7701 -2.4453 -1.2902
 1887TIP3    H2 5598   6.667   7.700   1.069 -0.0871  1.0258  1.5268
 1888TIP3   OH2 5599   1.220   7.685   3.920 -0.0614  0.2663  0.4361
 1888TIP3    H1 5600   1.312   7.668   3.937  0.2727  1.0265 -0.5515
 1888TIP3    H2 5601   1.193   7.614   3.862  0.1155  0.4864  0.0823
 1889TIP3   OH2 5602   2.757   1.525   2.240  0.0941 -0.0380 -0.2453
 1889TIP3    H1 5603   2.841   1.556   2.274 -0.0786  2.0043 -1.5630
 1889TIP3    H2 5604   2.694   1.543   2.310  0.3498  0.7469 -0.2072
 1890TIP3   OH2 5605   7.830   6.304   4.147 -0.8561 -0.1727 -0.3253
 1890TIP3    H1 5606   7.747   6.294   4.101 -0.4573 -2.2678 -0.6402
 1890TIP3    H2 5607   7.851   6.216   4.178  1.0774  0.3946  0.0516
 1891TIP3   OH2 5608   3.996   0.815   6.432  0.3777  0.2539 -0.0434
 1891TIP3    H1 5609   3.938   0.773   6.369 -0.4655  0.3363  0.6764
 1891TIP3    H2 5610   4.080   0.820   6.387  0.0075 -0.4980 -0.8291
 1892TIP3   OH2 5611   0.453   7.926   3.022 -0.3804 -0.2270 -0.1324
 1892TIP3    H1 5612   0.525   7.867   3.004 -1.1534 -0.8922 -1.0525
 1892TIP3    H2 5613   0.415   7.894   3.104  0.7256  0.4805  0.6650
 1893TIP3   OH2 5614   7.806   7.615   2.256  0.2085  0.0982  0.3791
 1893TIP3    H1 5615   7.837   7.530   2.225 -2.6613 -0.8765  0.0307
 1893TIP3    H2 5616   7.882   7.652   2.302  1.1179 -3.2838  1.8354
 1894TIP3   OH2 5617   0.889   0.291   5.793 -0.0924 -0.3067  0.4413
 1894TIP3    H1 5618   0.811   0.235   5.787 -1.6737  1.8694 -0.3509
 1894TIP3    H2 5619   0.927   0.289   5.705  1.4681 -2.3123  1.1355
 1895TIP3   OH2 5620   0.555   7.225   5.703  0.5532  0.2209 -0.3201
 1895TIP3    H1 5621   0.622   7.259   5.644 -0.2601  0.0467 -1.3453
 1895TIP3    H2 5622   0.554   7.287   5.776  1.4276  0.5394 -0.5640
 1896TIP3   OH2 5623   8.326   6.846   6.122  0.0275  0.3479 -0.1822
 1896TIP3    H1 5624   8.310   6.764   6.076  0.0567  1.2798 -1.9231
 1896TIP3    H2 5625   8.421   6.857   6.120  0.1952 -0.5528  1.8384
 1897TIP3   OH2 5626   7.056   6.200   0.367 -0.5348  0.5332  0.1798
 1897TIP3    H1 5627   6.987   6.240   0.315 -0.5837  2.5214  1.6934
 1897TIP3    H2 5628   7.134   6.252   0.347  1.0466 -2.8863 -2.9891
 1898TIP3   OH2 5629   0.056   7.748   5.594 -0.7182 -0.2372  0.0519
 1898TIP3    H1 5630   0.043   7.653   5.597  1.3478 -0.5206  0.4324
 1898TIP3    H2 5631  -0.010   7.783   5.655  0.5512 -1.6704  2.3231
 1899TIP3   OH2 5632   7.817   7.950   3.941  0.1457 -0.6867  0.0635
 1899TIP3    H1 5633   7.766   7.987   3.868  2.2685  0.5123 -0.8551
 1899TIP3    H2 5634   7.756   7.890   3.984 -2.8954  2.5124  0.5287
 1900TIP3   OH2 5635   2.793   6.066   3.895 -0.1560 -0.5256  0.2847
 1900TIP3    H1 5636   2.800   6.067   3.799 -2.1777 -0.7858  0.1089
 1900TIP3    H2 5637   2.874   6.108   3.925 -0.0817  0.7302 -1.5623
 1901TIP3   OH2 5638   2.524   6.923   6.780 -0.0130 -0.3260  0.1894
 1901TIP3    H1 5639   2.592   6.857   6.794  0.6494 -0.0047 -1.3185
 1901TIP3    H2 5640   2.452   6.876   6.738  1.1578  0.2044 -2.5163
 1902TIP3   OH2 5641   1.938   6.155   4.119  0.1854 -0.2595 -0.1658
 1902TIP3    H1 5642   1.974   6.231   4.073  2.2971 -0.8630  0.4269
 1902TIP3    H2 5643   1.884   6.110   4.054 -1.4998  1.9808 -0.3918
 1903TIP3   OH2 5644   7.208   7.966   3.083  0.1403 -0.2281 -0.3321
 1903TIP3    H1 5645   7.160   7.890   3.050  0.6929 -0.5815 -0.3389
 1903TIP3    H2 5646   7.281   7.929   3.131  0.9373  0.3000 -1.1107
 1904TIP3   OH2 5647   8.168   7.555   4.640  0.1582 -0.2203  0.3432
 1904TIP3    H1 5648   8.211   7.544   4.725  2.2591 -0.4780 -0.7405
 1904TIP3    H2 5649   8.235   7.533   4.575 -1.7223 -1.0497 -1.3882
 1905TIP3   OH2 5650   5.203   7.329   3.516 -0.3980  0.3058  0.3497
 1905TIP3    H1 5651   5.184   7.337   3.423  0.9501 -1.9656 -0.1849
 1905TIP3    H2 5652   5.178   7.413   3.554 -0.6993  1.3591 -2.1045
 1906TIP3   OH2 5653   3.417   0.242   4.961 -0.1984  0.0068 -0.2653
 1906TIP3    H1 5654   3.503   0.278   4.981  0.0354 -1.8917  2.4640
 1906TIP3    H2 5655   3.365   0.258   5.040 -0.8044 -3.2604  0.0825
 1907TIP3   OH2 5656   3.474   1.689   5.548 -0.3855  0.5506  0.1543
 1907TIP3    H1 5657   3.504   1.762   5.494  1.2102 -1.0535 -1.2045
 1907TIP3    H2 5658   3.554   1.656   5.590 -0.8730 -1.1861 -0.2389
 1908TIP3   OH2 5659   7.945   6.027   1.356  0.3229 -0.1224  0.3517
 1908TIP3    H1 5660   7.978   6.114   1.333  2.7848 -1.1712 -0.1696
 1908TIP3    H2 5661   7.850   6.039   1.360  0.4381  2.1151 -1.8242
 1909TIP3   OH2 5662   2.255   7.464   4.554 -0.2349  0.0943  0.1804
 1909TIP3    H1 5663   2.187   7.439   4.618 -1.3486  1.8539 -0.2950
 1909TIP3    H2 5664   2.326   7.499   4.608 -0.2229 -0.5423  0.5941
 1910TIP3   OH2 5665   5.136   1.580   4.173 -0.1839  0.0369  0.0027
 1910TIP3    H1 5666   5.064   1.638   4.197 -0.6098 -0.7761  0.7190
 1910TIP3    H2 5667   5.135   1.578   4.077 -0.5940  0.6664 -0.0082
 1911TIP3   OH2 5668   0.587   7.822   3.401 -1.0206  0.1840 -0.9768
 1911TIP3    H1 5669   0.558   7.847   3.489  0.0187  0.3080 -0.6593
 1911TIP3    H2 5670   0.677   7.855   3.395 -0.5670 -1.1176 -1.5376
 1912TIP3   OH2 5671   3.123   1.284   4.036 -0.1496  0.2991 -0.0759
 1912TIP3    H1 5672   3.034   1.289   4.000 -1.2363  2.1267  2.7068
 1912TIP3    H2 5673   3.160   1.371   4.021  0.4799  0.1247  0.4558
 1913TIP3   OH2 5674   0.198   6.898   2.199 -0.0376  0.7877 -0.1672
 1913TIP3    H1 5675   0.115   6.939   2.222 -0.2475  0.4686 -0.3427
 1913TIP3    H2 5676   0.208   6.826   2.261 -0.3108  0.2984 -0.6912
 1914TIP3   OH2 5677   6.860   7.582   2.848 -0.0878  0.3576  0.3863
 1914TIP3    H1 5678   6.860   7.490   2.875 -0.8844  0.5361  1.0178
 1914TIP3    H2 5679   6.874   7.580   2.754  1.4933 -0.3444  0.6159
 1915TIP3   OH2 5680   7.617   7.548   3.446 -0.0313  0.0735  0.0426
 1915TIP3    H1 5681   7.705   7.565   3.414  0.5780  0.6271  1.9566
 1915TIP3    H2 5682   7.616   7.455   3.468 -0.8017 -0.5645 -2.6050
 1916TIP3   OH2 5683   6.440   6.673   1.970 -0.5063  0.1691 -0.9039
 1916TIP3    H1 5684   6.476   6.672   1.881  0.3225 -0.8538 -0.5596
 1916TIP3    H2 5685   6.453   6.763   2.000  0.1510  0.2517 -1.4317
 1917TIP3   OH2 5686   4.559   0.770   5.302  0.2075 -0.4881 -0.0952
 1917TIP3    H1 5687   4.507   0.843   5.270 -0.3329  0.0783  1.9801
 1917TIP3    H2 5688   4.505   0.693   5.285 -1.1274  0.0485  1.6029
 1918TIP3   OH2 5689   0.566   6.885   2.793  0.2647 -0.4668  0.7519
 1918TIP3    H1 5690   0.604   6.973   2.785 -1.8183  0.4330  0.3435
 1918TIP3    H2 5691   0.583   6.843   2.709 -0.9931  0.5075 -0.0116
 1919TIP3   OH2 5692   8.469   6.243   2.134 -0.3243 -0.6473  0.0783
 1919TIP3    H1 5693   8.472   6.329   2.092  0.0373 -1.8375 -2.4107
 1919TIP3    H2 5694   8.403   6.252   2.202  1.0788  2.1553  1.1406
 1920TIP3   OH2 5695   7.232   7.150   3.086 -0.0379 -0.1890  0.5749
 1920TIP3    H1 5696   7.214   7.163   3.179  0.1686  0.3769  0.5385
 1920TIP3    H2 5697   7.281   7.068   3.082 -0.6834 -0.6006  0.8885
 1921TIP3   OH2 5698   6.984   7.468   3.565  0.5271  0.5205 -0.0335
 1921TIP3    H1 5699   6.940   7.402   3.511  1.6820 -1.9771  1.9478
 1921TIP3    H2 5700   6.912   7.516   3.607 -0.3746 -1.1730  0.4301
 1922TIP3   OH2 5701   6.192   5.089   3.186  0.0357 -0.5212 -0.3126
 1922TIP3    H1 5702   6.141   5.036   3.247  0.3385 -0.8133 -0.3153
 1922TIP3    H2 5703   6.273   5.109   3.233 -0.3370  0.4553 -0.0796
 1923TIP3   OH2 5704   7.459   7.871   1.396  0.6199  0.4421 -0.1126
 1923TIP3    H1 5705   7.437   7.778   1.392 -1.9644  1.0385 -0.7527
 1923TIP3    H2 5706   7.551   7.875   1.373  0.8347 -1.9988  0.2277
 1924TIP3   OH2 5707   0.053   7.722   5.297  0.1299  0.1656 -0.2099
 1924TIP3    H1 5708   0.124   7.767   5.251 -0.7321  0.2804 -1.4513
 1924TIP3    H2 5709   0.080   7.723   5.389  2.0689 -0.4080 -0.7505
 1925TIP3   OH2 5710   2.511   1.303   3.802 -0.2387  0.1331  0.3969
 1925TIP3    H1 5711   2.498   1.224   3.855 -0.4246  0.1752  0.4151
 1925TIP3    H2 5712   2.448   1.365   3.837 -0.5151  0.0867 -0.0228
 1926TIP3   OH2 5713   2.187   7.774   2.473  0.3373  0.1880  0.1939
 1926TIP3    H1 5714   2.180   7.806   2.383  3.3236  0.7679  0.1185
 1926TIP3    H2 5715   2.200   7.853   2.526 -1.7809 -0.1085  1.2479
 1927TIP3   OH2 5716   2.510   1.739   5.176  0.3245 -0.1640 -0.1927
 1927TIP3    H1 5717   2.465   1.715   5.257 -1.0934 -1.6802 -1.4004
 1927TIP3    H2 5718   2.560   1.661   5.153  2.1729  0.8880  0.1549
 1928TIP3   OH2 5719   2.615   0.589   4.454  0.0719 -0.6267 -0.6569
 1928TIP3    H1 5720   2.589   0.667   4.502 -1.3156 -1.1149 -0.5901
 1928TIP3    H2 5721   2.681   0.619   4.392 -1.3194  0.8138 -1.4685
 1929TIP3   OH2 5722   5.488   1.403   3.646  0.1026  0.2063 -0.2065
 1929TIP3    H1 5723   5.479   1.498   3.643  0.5080  0.2347 -0.5325
 1929TIP3    H2 5724   5.542   1.381   3.570  2.5948  0.0240  1.5741
 1930TIP3   OH2 5725   2.799   0.752   2.650  0.0912  0.5764 -0.5360
 1930TIP3    H1 5726   2.832   0.838   2.676 -2.5272  0.9533  1.7930
 1930TIP3    H2 5727   2.713   0.770   2.612  0.1271 -0.9044 -1.3469
 1931TIP3   OH2 5728   0.310   7.637   2.844  0.5161 -0.1527 -0.4269
 1931TIP3    H1 5729   0.331   7.617   2.935  0.7030  1.5668 -0.0761
 1931TIP3    H2 5730   0.267   7.723   2.847 -1.4916 -1.0633 -1.7363
 1932TIP3   OH2 5731   3.769   1.696   2.110  0.0718 -0.1481  0.1911
 1932TIP3    H1 5732   3.788   1.700   2.017 -0.3933 -2.1380 -0.0151
 1932TIP3    H2 5733   3.693   1.753   2.121 -0.5749 -0.7823 -0.8586
 1933TIP3   OH2 5734   8.221   0.303   1.855 -0.7293  0.3041  0.5058
 1933TIP3    H1 5735   8.312   0.329   1.868 -1.0200  1.5780  0.0880
 1933TIP3    H2 5736   8.176   0.329   1.935 -0.9455  0.7459  0.2449
 1934TIP3   OH2 5737   1.933   1.899   4.634 -0.2789  0.1181 -0.2259
 1934TIP3    H1 5738   1.937   1.844   4.556 -0.5378  1.2934 -1.0971
 1934TIP3    H2 5739   1.999   1.967   4.619 -0.7219  0.6779  0.3113
 1935TIP3   OH2 5740   3.000   0.643   2.112 -0.1458 -0.0797 -0.2212
 1935TIP3    H1 5741   3.006   0.548   2.121 -0.9913 -0.1810 -0.6648
 1935TIP3    H2 5742   2.981   0.675   2.200  0.7755 -0.2594  0.0501
 1936TIP3   OH2 5743   1.386   2.061   2.972 -0.0470  0.1795 -0.0581
 1936TIP3    H1 5744   1.455   2.091   2.913  0.0543 -1.3206 -0.7289
 1936TIP3    H2 5745   1.319   2.129   2.969  0.8985  1.1171 -0.2582
 1937TIP3   OH2 5746   2.763   2.118   2.848  0.1079 -0.2544 -0.0847
 1937TIP3    H1 5747   2.743   2.129   2.941 -1.0923  0.3039 -0.3910
 1937TIP3    H2 5748   2.687   2.072   2.812  0.1004  0.4216 -0.9715
 1938TIP3   OH2 5749   7.228   6.292   0.659  0.0492 -0.4032  0.2823
 1938TIP3    H1 5750   7.175   6.235   0.714  0.9491  0.6389  2.2915
 1938TIP3    H2 5751   7.311   6.245   0.646 -0.1213 -0.6002 -0.1119
 1939TIP3   OH2 5752   6.543   1.845   3.280  0.2747  0.1735 -0.0769
 1939TIP3    H1 5753   6.544   1.856   3.184 -2.3565 -2.1159 -0.4233
 1939TIP3    H2 5754   6.564   1.752   3.293  0.3527  0.4142  1.5855
 1940TIP3   OH2 5755   0.116   8.012   3.271  0.2263 -0.1680  0.0980
 1940TIP3    H1 5756   0.078   8.036   3.355  0.0504  0.5125 -0.1740
 1940TIP3    H2 5757   0.191   7.957   3.292 -0.0460 -0.3169  0.6826
 1941TIP3   OH2 5758   5.353   3.037   4.709  0.3073  0.2858 -0.4758
 1941TIP3    H1 5759   5.413   3.085   4.765  1.7739 -1.2197 -0.7395
 1941TIP3    H2 5760   5.387   3.049   4.621  0.9285 -1.5520 -0.5041
 1942TIP3   OH2 5761   1.151   7.972   5.084 -0.1787 -0.3849 -0.1368
 1942TIP3    H1 5762   1.108   7.888   5.103  0.5722 -0.2491  2.3690
 1942TIP3    H2 5763   1.127   8.028   5.158  0.9692  0.9786 -0.7769
 1943TIP3   OH2 5764   1.984   7.828   2.847 -0.2513  0.1185 -0.3364
 1943TIP3    H1 5765   1.948   7.896   2.904  0.2373  0.6025 -0.6000
 1943TIP3    H2 5766   1.952   7.851   2.760  0.9241  0.7292 -0.6256
 1944TIP3   OH2 5767   0.737   7.410   2.645 -0.2802  0.3972 -0.1681
 1944TIP3    H1 5768   0.744   7.391   2.738  1.9302  1.4548 -0.0893
 1944TIP3    H2 5769   0.818   7.457   2.624 -0.9647  0.5796 -2.5146
 1945TIP3   OH2 5770   5.607   1.340   3.876 -0.2703 -0.0406 -0.1603
 1945TIP3    H1 5771   5.597   1.426   3.917  1.1157  0.0020  0.0860
 1945TIP3    H2 5772   5.569   1.351   3.788  0.2425  0.9226 -0.2668
 1946TIP3   OH2 5773   5.061   2.976   3.847 -0.1565 -0.1942  0.7320
 1946TIP3    H1 5774   5.000   2.966   3.920  0.3557  0.6281  1.2739
 1946TIP3    H2 5775   5.052   3.067   3.819  0.8645 -0.0484  0.8542
 1947TIP3   OH2 5776   5.951   1.217   3.166 -0.4749  0.4330  0.4192
 1947TIP3    H1 5777   5.976   1.308   3.151 -1.1909  0.3657 -1.3169
 1947TIP3    H2 5778   5.864   1.222   3.205 -0.0671  0.5219  1.3160
 1948TIP3   OH2 5779   4.020   1.232   1.668 -0.0113  0.8300  0.3393
 1948TIP3    H1 5780   4.104   1.188   1.659  0.8853  2.5383  0.2667
 1948TIP3    H2 5781   3.972   1.179   1.733  0.8640 -0.4774 -0.0536
 1949TIP3   OH2 5782   4.656   2.807   5.266 -0.3396 -0.2368  0.0336
 1949TIP3    H1 5783   4.699   2.890   5.246 -0.8885  0.5787  2.1057
 1949TIP3    H2 5784   4.569   2.832   5.297 -1.0791 -1.6777 -0.8093
 1950TIP3   OH2 5785   7.669   7.324   2.390  0.3575 -0.2716  0.0172
 1950TIP3    H1 5786   7.585   7.347   2.430 -0.0816  1.1488 -1.6139
 1950TIP3    H2 5787   7.684   7.394   2.326  2.0984 -1.2733 -0.6969
 1951TIP3   OH2 5788   4.206   2.150   2.152 -0.0825  0.4565 -0.1312
 1951TIP3    H1 5789   4.223   2.071   2.100  2.1855 -0.4416  1.8715
 1951TIP3    H2 5790   4.197   2.118   2.242 -0.3080  2.3675  0.5515
 1952TIP3   OH2 5791   3.588   0.459   1.461  0.1745 -0.9825 -0.0856
 1952TIP3    H1 5792   3.632   0.409   1.392  1.1991  0.4173 -0.4830
 1952TIP3    H2 5793   3.644   0.536   1.474 -1.8181  0.5123 -0.1340
 1953TIP3   OH2 5794   3.169   7.661   3.741  0.3010  0.1510  0.4836
 1953TIP3    H1 5795   3.256   7.621   3.741 -0.2028 -0.9617 -0.0362
 1953TIP3    H2 5796   3.138   7.651   3.651 -1.1537 -1.2306  1.1036
 1954TIP3   OH2 5797   3.604   2.720   1.894 -0.2244  0.5090  1.0257
 1954TIP3    H1 5798   3.560   2.660   1.954 -1.4015  0.1914 -0.1335
 1954TIP3    H2 5799   3.693   2.727   1.928 -1.0576  0.9249  3.2559
 1955TIP3   OH2 5800   4.594   3.119   1.588  0.2537  0.4474 -0.3938
 1955TIP3    H1 5801   4.553   3.168   1.660  0.6470  0.7300 -0.3581
 1955TIP3    H2 5802   4.551   3.034   1.590  0.7884  0.1865  0.6676
 1956TIP3   OH2 5803   8.178   7.426   1.474  0.2012  0.3794  0.7995
 1956TIP3    H1 5804   8.178   7.414   1.569  2.0345 -1.4106  0.6248
 1956TIP3    H2 5805   8.267   7.403   1.448 -0.7912 -0.9422 -1.5432
 1957TIP3   OH2 5806   7.559   3.286   4.695 -0.2338 -0.3994 -0.3190
 1957TIP3    H1 5807   7.573   3.252   4.784 -1.2798 -1.5190 -0.5711
 1957TIP3    H2 5808   7.641   3.268   4.650 -0.6685 -2.4207 -0.3731
 1958TIP3   OH2 5809   3.274   1.277   3.368  0.2899  0.7207  0.5292
 1958TIP3    H1 5810   3.248   1.367   3.388  0.5497  1.6106 -2.8216
 1958TIP3    H2 5811   3.251   1.266   3.276 -2.4530 -3.6434  1.5955
 1959TIP3   OH2 5812   6.359   1.543   4.799 -0.1511 -0.0299 -0.9963
 1959TIP3    H1 5813   6.407   1.482   4.855 -1.3559 -1.0418 -1.0554
 1959TIP3    H2 5814   6.391   1.630   4.824  0.9773 -0.6296 -0.3450
 1960TIP3   OH2 5815   6.422   0.681   3.849 -0.0666  0.0701  0.0196
 1960TIP3    H1 5816   6.391   0.679   3.940  2.7123  1.4222  1.0480
 1960TIP3    H2 5817   6.502   0.628   3.850 -0.1257 -0.0632 -1.7002
 1961TIP3   OH2 5818   2.095   6.942   2.992  0.4481  0.4573  0.3488
 1961TIP3    H1 5819   2.016   6.897   2.960  1.0318 -0.2895 -0.0439
 1961TIP3    H2 5820   2.116   6.897   3.074  0.8024  0.2833  0.1598
 1962TIP3   OH2 5821   2.759   7.631   1.211 -0.5699 -0.1175 -0.2033
 1962TIP3    H1 5822   2.818   7.575   1.160  1.6518  0.2543  1.8440
 1962TIP3    H2 5823   2.740   7.705   1.154 -1.9357 -1.9794 -2.2081
 1963TIP3   OH2 5824   4.293   1.135   2.225  0.2862 -0.0523 -0.5058
 1963TIP3    H1 5825   4.366   1.126   2.286  0.7581  0.4430 -0.9949
 1963TIP3    H2 5826   4.273   1.228   2.225 -0.5816 -0.2287 -0.1136
 1964TIP3   OH2 5827   4.018   7.843   1.021 -0.1806 -0.6393 -0.1117
 1964TIP3    H1 5828   4.068   7.896   1.082 -0.0092 -3.1235  1.9729
 1964TIP3    H2 5829   3.928   7.873   1.031  0.0438 -0.0934  0.2968
 1965TIP3   OH2 5830   6.470   0.672   2.122 -0.1543 -0.1561 -0.3440
 1965TIP3    H1 5831   6.424   0.693   2.204 -0.2921 -0.8780 -0.2361
 1965TIP3    H2 5832   6.500   0.757   2.090  0.9134  0.0136  1.0537
 1966TIP3   OH2 5833   6.011   1.886   4.102  0.7982  0.0374  0.0477
 1966TIP3    H1 5834   6.063   1.923   4.030 -0.9388  0.7133 -0.8712
 1966TIP3    H2 5835   5.925   1.926   4.094  0.4657 -0.1325  2.3220
 1967TIP3   OH2 5836   5.785   1.082   1.733 -0.0898  0.1727  0.2981
 1967TIP3    H1 5837   5.857   1.068   1.672  0.1351 -0.7660  0.7753
 1967TIP3    H2 5838   5.823   1.069   1.820 -0.4661  1.2630  0.6328
 1968TIP3   OH2 5839   2.578   7.967   2.228 -0.1888  0.2129  0.4172
 1968TIP3    H1 5840   2.547   8.057   2.222  0.2230  0.3405  0.2471
 1968TIP3    H2 5841   2.672   7.972   2.215 -0.0159 -0.1209  1.4399
 1969TIP3   OH2 5842   6.505   0.543   3.014 -0.1082 -0.2717  0.2156
 1969TIP3    H1 5843   6.557   0.620   3.037 -0.2822 -0.2424  0.5132
 1969TIP3    H2 5844   6.561   0.468   3.035 -0.4221 -0.2545  1.1183
 1970TIP3   OH2 5845   7.267   0.112   3.927  0.1098  0.2509 -0.5275
 1970TIP3    H1 5846   7.291   0.057   4.002  2.0381 -0.1843 -1.4244
 1970TIP3    H2 5847   7.188   0.072   3.892 -0.6061  0.2507  1.0661
 1971TIP3   OH2 5848   4.626   2.822   2.294  0.2006  0.6301 -0.5668
 1971TIP3    H1 5849   4.547   2.770   2.310  1.3985 -0.9372  0.3857
 1971TIP3    H2 5850   4.627   2.886   2.365  0.3740 -0.0623  0.0569
 1972TIP3   OH2 5851   3.615   0.163   4.277 -0.5153  0.2676 -0.9035
 1972TIP3    H1 5852   3.628   0.082   4.227 -0.5048  0.3227 -0.9896
 1972TIP3    H2 5853   3.641   0.233   4.218  0.1357  0.2965 -0.5893
 1973TIP3   OH2 5854   5.165   1.350   1.526 -0.6084 -0.3619  0.4878
 1973TIP3    H1 5855   5.195   1.277   1.579  0.1807  0.7272  1.5617
 1973TIP3    H2 5856   5.205   1.335   1.440 -0.3764 -1.1391  0.7280
 1974TIP3   OH2 5857   5.753   2.297   4.323  0.1200  0.5121  0.3213
 1974TIP3    H1 5858   5.709   2.305   4.239 -0.2266 -0.4475  0.4125
 1974TIP3    H2 5859   5.781   2.387   4.344 -0.9377  0.9605 -0.1869
 1975TIP3   OH2 5860   6.116   1.971   5.054  0.0256 -0.0753  0.7889
 1975TIP3    H1 5861   6.176   1.905   5.088  0.5131 -0.2455 -0.4174
 1975TIP3    H2 5862   6.157   2.004   4.974  0.5814  2.8620  2.2042
 1976TIP3   OH2 5863   3.472   0.667   6.003 -0.0010  0.3600  0.1166
 1976TIP3    H1 5864   3.428   0.593   6.046  3.0166 -1.1784  0.6585
 1976TIP3    H2 5865   3.505   0.720   6.075 -1.7763  2.0794 -0.2815
 1977TIP3   OH2 5866   2.201   7.131   2.126 -0.0755 -0.2059 -0.1742
 1977TIP3    H1 5867   2.113   7.117   2.161 -1.0622  0.8940 -2.1683
 1977TIP3    H2 5868   2.211   7.226   2.122  1.3707 -0.3169  0.4005
 1978TIP3   OH2 5869   1.351   6.873   1.732  0.2906 -0.2560  0.2430
 1978TIP3    H1 5870   1.289   6.867   1.659 -0.4991 -0.9454  0.9580
 1978TIP3    H2 5871   1.383   6.963   1.729 -0.1766 -0.1095 -0.5900
 1979TIP3   OH2 5872   2.182   0.304   2.400  0.1291  0.5052 -0.3138
 1979TIP3    H1 5873   2.121   0.374   2.374 -0.1968 -0.0571 -1.0972
 1979TIP3    H2 5874   2.168   0.294   2.494 -1.6651 -0.2302 -0.6360
 1980TIP3   OH2 5875   1.458   0.938   2.404 -0.2959  0.3356 -0.4491
 1980TIP3    H1 5876   1.387   0.908   2.462 -0.8749 -0.0810 -1.3636
 1980TIP3    H2 5877   1.527   0.873   2.416 -0.1793  0.5828  0.2283
 1981TIP3   OH2 5878   7.050   1.811   4.723 -0.1053  0.3770  0.2938
 1981TIP3    H1 5879   6.956   1.792   4.725 -0.1094  0.0538 -1.9251
 1981TIP3    H2 5880   7.056   1.906   4.727 -0.6165  0.4869 -1.3129
 1982TIP3   OH2 5881   5.658   1.158   4.254 -0.0242 -0.2228 -0.4315
 1982TIP3    H1 5882   5.595   1.086   4.263 -1.1095  0.5714 -1.4335
 1982TIP3    H2 5883   5.678   1.161   4.160  1.5978 -0.5280 -0.1112
 1983TIP3   OH2 5884   3.425   7.490   3.357  0.0930  0.1943  1.0789
 1983TIP3    H1 5885   3.452   7.581   3.364 -0.5015  0.4698 -0.0998
 1983TIP3    H2 5886   3.334   7.490   3.386  0.1124 -0.0371  1.1384
 1984TIP3   OH2 5887   2.674   1.430   1.690 -0.0562 -0.2204 -0.1240
 1984TIP3    H1 5888   2.761   1.440   1.728 -0.5753  1.1994  0.7440
 1984TIP3    H2 5889   2.622   1.391   1.761 -0.2251 -0.7157 -0.5161
 1985TIP3   OH2 5890   6.069   2.238   4.240 -0.7505  0.5070  0.5629
 1985TIP3    H1 5891   6.088   2.331   4.254 -2.7359  0.9562  0.3546
 1985TIP3    H2 5892   5.984   2.223   4.281 -1.0902 -0.8961 -0.5843
 1986TIP3   OH2 5893   3.917   1.953   0.889  0.8716 -0.8298 -0.1619
 1986TIP3    H1 5894   3.871   2.017   0.835  1.0907 -1.1807 -0.7783
 1986TIP3    H2 5895   3.995   1.998   0.920  0.5806 -0.5239  0.1299
 1987TIP3   OH2 5896   4.918   1.641   3.552  0.4518 -0.3067  0.3852
 1987TIP3    H1 5897   5.005   1.610   3.527  0.7345  1.3422 -0.7641
 1987TIP3    H2 5898   4.893   1.701   3.482 -0.7766  0.7328  1.6740
 1988TIP3   OH2 5899   4.469   0.488   3.982 -0.0756 -0.0745 -0.3709
 1988TIP3    H1 5900   4.393   0.441   4.015  0.3822  0.5697  1.6780
 1988TIP3    H2 5901   4.517   0.423   3.931 -0.1199 -1.4977  1.3368
 1989TIP3   OH2 5902   7.930   0.682   5.074 -0.5696 -0.1532 -0.4103
 1989TIP3    H1 5903   7.930   0.588   5.091  1.2293  0.3680  2.9558
 1989TIP3    H2 5904   7.838   0.707   5.078 -0.8659 -1.4116  0.9572
 1990TIP3   OH2 5905   1.570   7.319   2.356  0.5894 -0.1896 -0.1740
 1990TIP3    H1 5906   1.619   7.279   2.428 -2.4030  0.3375  2.2223
 1990TIP3    H2 5907   1.546   7.246   2.299  0.5684 -0.9718  0.8343
 1991TIP3   OH2 5908   1.215   7.700   3.141  0.4423  0.0430  0.2321
 1991TIP3    H1 5909   1.222   7.628   3.077  0.2105  1.4830 -1.4483
 1991TIP3    H2 5910   1.269   7.672   3.214 -0.0365 -2.0807 -0.1822
 1992TIP3   OH2 5911   4.136   0.004   3.455  0.0615 -0.1469  0.4683
 1992TIP3    H1 5912   4.141  -0.054   3.531 -0.9348  0.9306  1.3939
 1992TIP3    H2 5913   4.098   0.085   3.490  1.5594  1.1188 -0.7513
 1993TIP3   OH2 5914   4.663   0.901   1.647 -0.3988  0.0690  0.2346
 1993TIP3    H1 5915   4.754   0.923   1.666 -0.0166 -2.0854  1.0043
 1993TIP3    H2 5916   4.639   0.960   1.575  2.3680 -0.9364 -1.6131
 1994TIP3   OH2 5917   1.514   7.631   3.034  0.0285  0.2025  0.3963
 1994TIP3    H1 5918   1.433   7.581   3.030 -0.5433  1.0214  1.3639
 1994TIP3    H2 5919   1.579   7.569   3.066 -0.4825 -0.1423  0.7816
 1995TIP3   OH2 5920   6.322   0.240   2.565  0.2296  0.0416 -0.0437
 1995TIP3    H1 5921   6.360   0.323   2.595 -0.7397  0.8495 -0.9962
 1995TIP3    H2 5922   6.234   0.239   2.603  0.4532 -0.8514  0.4671
 1996TIP3   OH2 5923   0.239   7.228   2.497  0.0400 -0.0014  0.3311
 1996TIP3    H1 5924   0.235   7.186   2.583 -0.5868 -0.6453 -0.0067
 1996TIP3    H2 5925   0.330   7.256   2.488  0.1068  0.0628  1.2042
 1997TIP3   OH2 5926   1.415   0.500   1.292  0.1196  0.5201  0.5098
 1997TIP3    H1 5927   1.481   0.476   1.227 -1.1591  1.2471 -1.0892
 1997TIP3    H2 5928   1.448   0.580   1.332  0.0187  1.1045 -0.5761
 1998TIP3   OH2 5929   1.754   6.766   2.668 -0.1787  0.5162 -0.0582
 1998TIP3    H1 5930   1.830   6.747   2.613  0.9107  2.1294  0.8522
 1998TIP3    H2 5931   1.681   6.770   2.606  0.3189 -1.8716 -0.8361
 1999TIP3   OH2 5932   1.178   1.830   1.317  0.4804  0.4651 -0.3290
 1999TIP3    H1 5933   1.241   1.847   1.387 -0.6826  0.0185  0.8498
 1999TIP3    H2 5934   1.117   1.767   1.354 -0.6543  0.8681 -1.4652
 2000TIP3   OH2 5935   3.290   2.043   3.688 -0.5698 -0.4628  0.2135
 2000TIP3    H1 5936   3.224   2.097   3.645  0.1706  1.6158  1.6137
 2000TIP3    H2 5937   3.371   2.059   3.639 -0.8772 -2.3227 -0.9547
 2001TIP3   OH2 5938   5.323   0.084   3.650  0.5676  0.2262  0.0039
 2001TIP3    H1 5939   5.407   0.125   3.669  0.6386 -0.2459  0.7287
 2001TIP3    H2 5940   5.343  -0.010   3.646  0.0560  0.1025  0.3086
 2002TIP3   OH2 5941   4.041   3.397   4.541 -0.3251 -0.7055 -0.9737
 2002TIP3    H1 5942   4.061   3.486   4.570  0.3714 -1.4704  0.9810
 2002TIP3    H2 5943   3.956   3.378   4.581  0.0678 -1.3263 -0.4228
 2003TIP3   OH2 5944   3.225   0.854   5.346 -0.0867 -0.3908  0.1812
 2003TIP3    H1 5945   3.203   0.832   5.437  0.9537  4.0056  1.6119
 2003TIP3    H2 5946   3.141   0.873   5.305 -0.3703  0.0139  0.9335
 2004TIP3   OH2 5947   4.967   0.367   1.749  0.3224  0.2999 -0.2624
 2004TIP3    H1 5948   5.029   0.295   1.759  1.0735  0.8918 -0.5544
 2004TIP3    H2 5949   5.022   0.444   1.739 -0.4703  0.8522 -0.4265
 2005TIP3   OH2 5950   2.393   0.477   4.745 -0.3688 -0.3106 -0.2015
 2005TIP3    H1 5951   2.352   0.391   4.744 -0.0937 -0.4288 -1.8190
 2005TIP3    H2 5952   2.337   0.530   4.802 -0.0130 -1.8054  1.5957
 2006TIP3   OH2 5953   1.853   7.215   2.711 -0.3540  0.1327 -0.1425
 2006TIP3    H1 5954   1.915   7.167   2.766  0.5350 -0.8164 -1.9152
 2006TIP3    H2 5955   1.863   7.307   2.737  0.4599 -0.2344  0.8620
 2007TIP3   OH2 5956   6.260   1.004   3.900  0.1288 -0.3901 -0.4621
 2007TIP3    H1 5957   6.282   0.978   3.810 -2.4425  1.5564 -1.7174
 2007TIP3    H2 5958   6.166   0.988   3.907 -0.1499  1.7469  1.0771
 2008TIP3   OH2 5959   2.128   7.453   4.047 -0.1700  0.7626 -0.0184
 2008TIP3    H1 5960   2.158   7.464   3.957 -0.5735 -2.3368 -0.5866
 2008TIP3    H2 5961   2.192   7.393   4.086 -0.4812  1.3910  1.4947
 2009TIP3   OH2 5962   4.526   1.774   4.732 -0.5020 -0.2063 -0.3036
 2009TIP3    H1 5963   4.434   1.762   4.710 -0.5493 -0.0173 -0.2121
 2009TIP3    H2 5964   4.534   1.868   4.751 -0.8878 -0.6738  2.3931
 2010TIP3   OH2 5965   4.600   2.124   1.903 -0.4497 -0.1072  0.7294
 2010TIP3    H1 5966   4.649   2.205   1.890 -1.1083  0.4025  1.3465
 2010TIP3    H2 5967   4.633   2.089   1.986 -1.2337  0.3207  1.2262
 2011TIP3   OH2 5968   5.102   1.599   2.081  0.0751  0.1047 -0.2519
 2011TIP3    H1 5969   5.008   1.589   2.094 -0.0788 -0.4903 -1.7446
 2011TIP3    H2 5970   5.141   1.577   2.165 -1.0098 -1.3395 -0.1256
 2012TIP3   OH2 5971   4.081   6.290   2.080  0.1215 -0.2110 -0.0928
 2012TIP3    H1 5972   4.149   6.331   2.135 -0.6362  0.9899 -0.0436
 2012TIP3    H2 5973   4.105   6.315   1.991 -0.6781  0.8630 -0.0162
 2013TIP3   OH2 5974   5.674   0.268   5.145 -0.1169 -0.2857 -0.3772
 2013TIP3    H1 5975   5.723   0.258   5.063 -0.8888  1.0121 -1.0005
 2013TIP3    H2 5976   5.594   0.314   5.120 -1.7343 -2.4710  0.6277
 2014TIP3   OH2 5977   2.747   2.202   2.363  0.2916  0.0462  0.3466
 2014TIP3    H1 5978   2.693   2.280   2.353  0.0399 -0.1502  0.1667
 2014TIP3    H2 5979   2.687   2.135   2.396  0.4604 -0.1309  0.2960
 2015TIP3   OH2 5980   6.200   1.751   4.279  0.3033 -0.2308 -0.0398
 2015TIP3    H1 5981   6.172   1.791   4.196 -1.2225  0.9976  1.0278
 2015TIP3    H2 5982   6.119   1.723   4.320  1.1355 -1.6888  0.6264
 2016TIP3   OH2 5983   7.607   1.194   1.194 -0.0492 -0.0239  0.1877
 2016TIP3    H1 5984   7.663   1.118   1.206 -0.0835 -0.0717  0.0541
 2016TIP3    H2 5985   7.612   1.212   1.100 -1.6862 -1.1555 -0.1528
 2017TIP3   OH2 5986   4.889   2.822   4.368 -0.3253 -0.1786  0.6322
 2017TIP3    H1 5987   4.888   2.760   4.294 -1.0615  0.5743  0.0043
 2017TIP3    H2 5988   4.821   2.789   4.427 -0.3385 -0.2778  0.5630
 2018TIP3   OH2 5989   1.219   6.823   2.293 -0.2160  0.2203  0.1059
 2018TIP3    H1 5990   1.215   6.812   2.198 -1.9446 -0.3747  0.2473
 2018TIP3    H2 5991   1.241   6.736   2.327 -0.7568  0.1760  0.3376
 2019TIP3   OH2 5992   6.427   0.748   3.325 -0.4423 -0.4647  0.3111
 2019TIP3    H1 5993   6.435   0.756   3.420  0.4732  0.4616  0.1645
 2019TIP3    H2 5994   6.410   0.837   3.295  0.7757 -0.5070 -0.5333
 2020TIP3   OH2 5995   4.324   1.578   3.657 -0.4520 -0.5521 -0.5181
 2020TIP3    H1 5996   4.363   1.602   3.573 -0.1818  0.7250 -0.0406
 2020TIP3    H2 5997   4.230   1.580   3.641 -0.3995 -0.3527 -0.8095
 2021TIP3   OH2 5998   3.775   1.244   3.534  0.4653  0.1724 -0.3842
 2021TIP3    H1 5999   3.729   1.189   3.597 -0.0489  0.5761 -0.4125
 2021TIP3    H2 6000   3.821   1.308   3.588  0.5504  0.1143 -0.3872
 2022TIP3   OH2 6001   2.459   1.684   3.442  0.1815 -0.0690  0.3306
 2022TIP3    H1 6002   2.480   1.754   3.381 -0.1566  1.1178  1.5612
 2022TIP3    H2 6003   2.542   1.665   3.486  1.0783 -2.7915 -2.3283
 2023TIP3   OH2 6004   3.274   6.384   4.113  0.0537  0.0728 -0.0888
 2023TIP3    H1 6005   3.282   6.311   4.174 -1.8982  0.9689  1.2548
 2023TIP3    H2 6006   3.364   6.416   4.101  0.4963 -0.4059  1.9278
 2024TIP3   OH2 6007   4.003   3.209   1.872  0.2913  0.0481 -0.3667
 2024TIP3    H1 6008   4.077   3.237   1.926  0.1130  1.3459 -0.7756
 2024TIP3    H2 6009   3.987   3.283   1.813 -0.6375 -0.6543 -1.0104
 2025TIP3   OH2 6010   5.452   1.306   4.870  0.2545  0.0945 -0.1858
 2025TIP3    H1 6011   5.481   1.297   4.780 -0.8474 -1.1232 -0.4422
 2025TIP3    H2 6012   5.528   1.341   4.917  0.4745  1.8529 -1.7837
 2026TIP3   OH2 6013   4.094   0.769   2.847 -0.4526 -0.8330  0.2963
 2026TIP3    H1 6014   4.080   0.677   2.824 -1.8629 -0.3984 -0.6032
 2026TIP3    H2 6015   4.040   0.818   2.786 -0.4620  0.5609  1.3998
 2027TIP3   OH2 6016   6.552   1.099   4.908  0.0412 -0.1361  0.4312
 2027TIP3    H1 6017   6.519   1.101   4.818  0.4568 -2.9550  0.1724
 2027TIP3    H2 6018   6.564   1.006   4.927 -0.8000  0.3719  3.6957
 2028TIP3   OH2 6019   2.583   7.527   2.893  0.7222 -0.1855 -0.1995
 2028TIP3    H1 6020   2.646   7.538   2.822  1.2232  0.3551  0.3283
 2028TIP3    H2 6021   2.635   7.495   2.967  0.6104  1.4816  0.6222
 2029TIP3   OH2 6022   3.370   0.871   2.724 -0.5051  0.1232 -0.5483
 2029TIP3    H1 6023   3.329   0.829   2.800  1.2895 -1.2353 -0.3060
 2029TIP3    H2 6024   3.456   0.831   2.718  0.1224  1.6514 -2.1320
 2030TIP3   OH2 6025   1.814   7.661   2.143  0.6022 -0.0124 -0.1883
 2030TIP3    H1 6026   1.829   7.741   2.092  1.0943 -1.1578 -1.9047
 2030TIP3    H2 6027   1.833   7.590   2.081 -0.9305 -1.4609  0.9666
 2031TIP3   OH2 6028   0.353   7.841   3.246 -0.1279 -0.1619 -0.4343
 2031TIP3    H1 6029   0.317   7.767   3.295  0.6395 -0.0573  0.2882
 2031TIP3    H2 6030   0.433   7.864   3.292  0.3779  0.2189 -1.4863
 2032TIP3   OH2 6031   3.209   0.303   3.873  0.3717  0.3393  0.2527
 2032TIP3    H1 6032   3.231   0.342   3.958  1.9299 -0.5953  0.2972
 2032TIP3    H2 6033   3.293   0.294   3.829  0.0738 -2.9924  0.2556
 2033TIP3   OH2 6034   1.985   7.737   3.667  0.3222 -0.0050  0.4726
 2033TIP3    H1 6035   2.065   7.757   3.618 -0.4092  0.5969 -0.4914
 2033TIP3    H2 6036   1.922   7.803   3.639 -0.1810  0.2106  2.0718
 2034TIP3   OH2 6037   5.945   0.471   0.462 -0.2196 -0.0267 -0.2282
 2034TIP3    H1 6038   5.990   0.387   0.468 -0.3509 -0.0853 -0.0303
 2034TIP3    H2 6039   5.992   0.519   0.394  0.6931  0.2425  0.5729
 2035TIP3   OH2 6040   2.419   7.512   2.659  0.1841  0.2777  0.1160
 2035TIP3    H1 6041   2.440   7.506   2.752  1.7408 -1.2716 -0.3088
 2035TIP3    H2 6042   2.343   7.455   2.649  0.0775  0.3647  0.4126
 2036TIP3   OH2 6043   3.620   0.578   3.771  0.2490 -0.1558  0.1199
 2036TIP3    H1 6044   3.572   0.520   3.712 -3.2960  2.1736  0.5545
 2036TIP3    H2 6045   3.587   0.557   3.858  0.1766  1.2888  0.4614
 2037TIP3   OH2 6046   2.227   6.624   2.554 -0.2660 -0.3762 -0.0287
 2037TIP3    H1 6047   2.271   6.647   2.473  0.0097 -1.1852 -0.1093
 2037TIP3    H2 6048   2.295   6.582   2.608 -0.8538 -1.3793 -0.0481
 2038TIP3   OH2 6049   1.865   7.918   2.604 -0.3749 -0.6272  0.3674
 2038TIP3    H1 6050   1.805   7.987   2.574 -0.3235 -0.2329  1.1370
 2038TIP3    H2 6051   1.951   7.947   2.574 -0.0959  0.5839  2.2252
 2039TIP3   OH2 6052   2.124   7.083   3.285  0.4649 -0.6410  0.5179
 2039TIP3    H1 6053   2.033   7.054   3.292  1.2245 -3.1275  0.3999
 2039TIP3    H2 6054   2.118   7.168   3.241 -1.7506 -1.0209 -0.0021
 2040TIP3   OH2 6055   4.787   1.275   3.390 -0.0784  0.4872  0.1181
 2040TIP3    H1 6056   4.804   1.312   3.476 -0.7797 -0.7942  0.8202
 2040TIP3    H2 6057   4.732   1.340   3.346  1.6386  1.9095  0.0122
 2041TIP3   OH2 6058   3.038   0.862   1.260 -0.1302 -0.0554 -0.4925
 2041TIP3    H1 6059   3.098   0.889   1.330  0.3444  0.7342 -1.1985
 2041TIP3    H2 6060   3.023   0.769   1.276 -1.0330  0.4055  1.4120
 2042TIP3   OH2 6061   0.562   7.230   3.894  0.3073 -0.2495  0.0564
 2042TIP3    H1 6062   0.591   7.147   3.931  1.0646 -0.5873 -1.2634
 2042TIP3    H2 6063   0.467   7.222   3.889  0.3616 -0.9734  0.1053
 2043TIP3   OH2 6064   4.264   2.428   2.247  0.3562  0.1801  0.2058
 2043TIP3    H1 6065   4.310   2.397   2.325 -0.7992  0.2925  0.9538
 2043TIP3    H2 6066   4.248   2.349   2.195  0.4291 -0.0063  0.4647
 2044TIP3   OH2 6067   3.387   7.427   3.966  0.1427 -0.0184  0.1239
 2044TIP3    H1 6068   3.336   7.498   4.005 -0.6290  0.0400 -0.9718
 2044TIP3    H2 6069   3.378   7.354   4.028 -2.7424 -0.5851 -0.8700
 2045TIP3   OH2 6070   3.942   1.417   2.006  0.5772 -0.0771 -0.1402
 2045TIP3    H1 6071   3.891   1.498   2.005 -2.4556 -1.8973  0.1215
 2045TIP3    H2 6072   3.961   1.399   1.914 -3.1938 -1.6480 -0.7347
 2046TIP3   OH2 6073   3.630   0.767   3.568 -0.7195 -0.1980 -0.6513
 2046TIP3    H1 6074   3.642   0.703   3.638 -1.5794 -0.0699 -0.3924
 2046TIP3    H2 6075   3.609   0.849   3.612  0.3732  0.2802 -0.9856
 2047TIP3   OH2 6076   8.374   6.875   1.578 -0.2198  0.4166 -0.0484
 2047TIP3    H1 6077   8.430   6.918   1.513 -0.5332  0.7620 -0.0897
 2047TIP3    H2 6078   8.423   6.796   1.603 -0.4896 -0.1721 -1.3426
 2048TIP3   OH2 6079   1.286   7.797   4.183  0.0019 -0.5600 -0.3588
 2048TIP3    H1 6080   1.374   7.764   4.199 -0.5934 -1.4523  1.1367
 2048TIP3    H2 6081   1.248   7.736   4.120  0.5383 -0.0036 -1.2365
 2049TIP3   OH2 6082   5.762   0.863   2.159 -0.0454  0.5833 -0.2459
 2049TIP3    H1 6083   5.748   0.846   2.065  0.7838  0.5811 -0.3727
 2049TIP3    H2 6084   5.839   0.810   2.181 -0.6226  0.0854  0.5922
 2050TIP3   OH2 6085   5.807   1.734   1.019  0.1408 -0.3748  0.2974
 2050TIP3    H1 6086   5.834   1.655   0.972 -1.0243  1.3015 -3.3988
 2050TIP3    H2 6087   5.818   1.805   0.955 -1.1580  2.0945  2.7022
 2051TIP3   OH2 6088   7.990   7.192   4.415 -0.2838 -0.4600  0.0126
 2051TIP3    H1 6089   8.060   7.194   4.480 -0.4474 -0.5292  0.1948
 2051TIP3    H2 6090   8.000   7.108   4.371 -0.8017 -0.8568  0.6517
 2052TIP3   OH2 6091   4.159   3.272   2.097  0.0646 -0.0826 -1.0163
 2052TIP3    H1 6092   4.139   3.362   2.124  1.0730  0.1010 -0.8598
 2052TIP3    H2 6093   4.142   3.219   2.175  0.8642  0.1645 -0.6688
 2053TIP3   OH2 6094   2.681   7.227   4.121 -0.2852 -0.3621  0.0587
 2053TIP3    H1 6095   2.587   7.216   4.129 -0.4888  1.8076  1.2265
 2053TIP3    H2 6096   2.718   7.160   4.179 -1.1273 -0.9387 -0.0717
 2054TIP3   OH2 6097   0.765   7.329   2.069 -0.4257  0.2096 -0.4225
 2054TIP3    H1 6098   0.822   7.365   2.002  1.1812  0.0636  0.8331
 2054TIP3    H2 6099   0.786   7.235   2.070 -0.7979  0.1298 -0.0663
 2055TIP3   OH2 6100   4.764   5.863   3.005  0.7010 -0.1115  0.5333
 2055TIP3    H1 6101   4.841   5.832   2.958  0.4084 -1.1954  0.7726
 2055TIP3    H2 6102   4.758   5.807   3.083 -0.2838  0.0135  0.5601
 2056TIP3   OH2 6103   4.230   0.121   1.230 -0.6183  0.0039 -0.2120
 2056TIP3    H1 6104   4.301   0.058   1.229  0.5859  1.3152  0.4249
 2056TIP3    H2 6105   4.170   0.090   1.298 -0.6047 -1.0476 -0.6804
 2057TIP3   OH2 6106   2.238   7.060   5.088 -0.0096  0.6227  0.5695
 2057TIP3    H1 6107   2.329   7.030   5.086  0.4557  1.7866  2.5458
 2057TIP3    H2 6108   2.244   7.155   5.080 -0.9000  0.8780  2.7265
 2058TIP3   OH2 6109   4.396   3.355   0.356 -0.3585  0.6301 -0.4801
 2058TIP3    H1 6110   4.327   3.420   0.352  1.0624  2.2077 -0.1993
 2058TIP3    H2 6111   4.359   3.284   0.408 -1.2118  2.1562  1.0581
 2059TIP3   OH2 6112   0.374   6.744   6.341  0.3630 -0.1680  0.1033
 2059TIP3    H1 6113   0.389   6.755   6.435  0.6149  0.9317 -0.0619
 2059TIP3    H2 6114   0.300   6.683   6.335 -1.4385  1.8760  1.0534
 2060TIP3   OH2 6115   0.078   7.638   5.991  0.9531 -0.5836 -0.7465
 2060TIP3    H1 6116   0.021   7.650   5.915 -1.2032 -0.1059  0.8939
 2060TIP3    H2 6117   0.019   7.638   6.066  3.1587  0.2710  1.0657
 2061TIP3   OH2 6118   0.084   6.896   6.070  0.0257 -0.2019  0.5946
 2061TIP3    H1 6119   0.106   6.980   6.028 -0.2968  0.2118  1.2472
 2061TIP3    H2 6120   0.105   6.830   6.004 -0.4170  0.4409 -0.1878
 2062TIP3   OH2 6121   4.769   1.398   4.122 -0.0980 -0.4159  0.2001
 2062TIP3    H1 6122   4.792   1.305   4.117  0.7972 -0.2482  0.9213
 2062TIP3    H2 6123   4.757   1.425   4.031  0.0207 -1.1524 -0.0363
 2063TIP3   OH2 6124   5.080   0.379   2.080 -0.3766 -0.1111  0.3407
 2063TIP3    H1 6125   5.071   0.324   2.158 -0.7805  0.9388  1.0573
 2063TIP3    H2 6126   5.087   0.468   2.115  0.1776  0.3009 -0.8001
 2064TIP3   OH2 6127   1.580   6.151   3.553 -0.1672  0.5499  0.7077
 2064TIP3    H1 6128   1.582   6.246   3.566  0.4015  0.6677 -0.2296
 2064TIP3    H2 6129   1.489   6.126   3.573 -0.5837  1.4371 -0.0409
 2065TIP3   OH2 6130   0.926   7.698   3.973  0.6718 -0.0649 -0.3044
 2065TIP3    H1 6131   0.887   7.676   3.889 -1.9937  1.7252  0.3894
 2065TIP3    H2 6132   1.018   7.713   3.954  0.2986 -0.7143 -2.7163
 2066TIP3   OH2 6133   0.508   7.956   1.703 -0.3726  0.2655 -0.7091
 2066TIP3    H1 6134   0.600   7.957   1.729 -0.2311  0.4432 -1.2222
 2066TIP3    H2 6135   0.461   7.979   1.783  0.0025 -0.1991 -0.3495
 2067TIP3   OH2 6136   4.923   1.177   2.328 -0.3791 -0.5995 -0.0081
 2067TIP3    H1 6137   4.876   1.187   2.411 -0.6226 -0.4385 -0.1622
 2067TIP3    H2 6138   4.947   1.085   2.325  0.9941 -0.2880  0.9645
 2068TIP3   OH2 6139   6.747   0.998   3.573 -0.2974 -0.2933  0.1854
 2068TIP3    H1 6140   6.690   1.015   3.648  0.4200  0.7254  0.5050
 2068TIP3    H2 6141   6.817   0.943   3.609  0.7088  1.2003  0.5593
 2069TIP3   OH2 6142   5.352   0.538   3.217  0.8774 -0.5058 -0.0885
 2069TIP3    H1 6143   5.375   0.483   3.292 -0.7436  2.1175  2.4126
 2069TIP3    H2 6144   5.266   0.505   3.189  0.7644 -0.4439  0.1896
 2070TIP3   OH2 6145   6.699   2.773   4.736  0.0288 -0.8426  0.1223
 2070TIP3    H1 6146   6.606   2.787   4.753  0.2579 -0.2337  0.9460
 2070TIP3    H2 6147   6.739   2.772   4.823  0.9313 -0.0534 -0.2722
 2071TIP3   OH2 6148   4.709   7.515   2.532  0.1595  0.1735 -0.1302
 2071TIP3    H1 6149   4.759   7.440   2.499 -0.9888 -0.2062 -1.0194
 2071TIP3    H2 6150   4.723   7.584   2.466 -0.5875  0.0206 -0.4578
 2072TIP3   OH2 6151   6.273   0.986   2.077  0.4673  0.4020 -0.6468
 2072TIP3    H1 6152   6.354   0.951   2.038  0.1387  1.0906 -1.9845
 2072TIP3    H2 6153   6.208   0.916   2.064  1.0256 -0.4801  1.1515
 2073TIP3   OH2 6154   5.835   0.988   3.375 -0.5279 -0.2402 -1.0071
 2073TIP3    H1 6155   5.854   0.941   3.456  1.5995  0.1883 -1.2086
 2073TIP3    H2 6156   5.798   1.072   3.403  0.0651 -0.1539 -0.4559
 2074TIP3   OH2 6157   6.393   1.507   1.043  0.0666  0.3203  0.9971
 2074TIP3    H1 6158   6.344   1.536   1.120 -0.5121  2.1521 -0.0415
 2074TIP3    H2 6159   6.484   1.527   1.064  0.0173 -0.0299  1.5676
 2075TIP3   OH2 6160   1.835   7.633   1.143  0.0221 -0.2621  0.0708
 2075TIP3    H1 6161   1.855   7.544   1.115  1.6850  0.1869 -0.2711
 2075TIP3    H2 6162   1.810   7.626   1.235  0.9479 -0.9845  0.2669
 2076TIP3   OH2 6163   5.658   0.654   2.321 -0.1083 -0.1101 -0.3422
 2076TIP3    H1 6164   5.693   0.740   2.299 -0.9771  1.3599  3.5198
 2076TIP3    H2 6165   5.722   0.616   2.381 -0.6562 -1.3340 -0.5084
 2077TIP3   OH2 6166   7.724   7.970   2.657 -0.1027 -0.3587  0.0525
 2077TIP3    H1 6167   7.755   8.059   2.673  0.7503 -0.3639 -1.4807
 2077TIP3    H2 6168   7.684   7.943   2.740 -0.6760  1.5669  0.4206
 2078TIP3   OH2 6169   5.918   1.902   3.762 -0.0265  0.0312  0.1700
 2078TIP3    H1 6170   6.008   1.924   3.790  0.0049 -0.4399  0.4369
 2078TIP3    H2 6171   5.928   1.869   3.673  0.1071 -0.3518  0.3270
 2079TIP3   OH2 6172   6.201   2.074   2.409 -0.3855  0.1242 -0.2831
 2079TIP3    H1 6173   6.220   2.096   2.317 -1.2097  2.2023  0.0141
 2079TIP3    H2 6174   6.126   2.015   2.404 -0.8623  0.7668 -0.9277
 2080TIP3   OH2 6175   0.593   3.374   6.363 -0.2428  0.2055 -0.4799
 2080TIP3    H1 6176   0.568   3.317   6.290 -1.6834  1.5280 -1.0465
 2080TIP3    H2 6177   0.578   3.321   6.441 -3.2913  0.3845 -0.8994
 2081TIP3   OH2 6178   2.811   7.981   3.231 -0.2409  0.2620 -0.1077
 2081TIP3    H1 6179   2.792   7.907   3.173 -0.0014 -0.4086  0.6450
 2081TIP3    H2 6180   2.813   8.057   3.174 -1.5032 -0.1683 -0.7650
 2082TIP3   OH2 6181   4.877   0.095   2.865  0.1990  0.0350  0.1609
 2082TIP3    H1 6182   4.798   0.125   2.909  0.4157  0.9487 -0.0641
 2082TIP3    H2 6183   4.906   0.170   2.813 -2.0823 -2.0985 -4.4797
 2083TIP3   OH2 6184   1.651   1.369   5.639 -0.0841 -0.0110 -0.0888
 2083TIP3    H1 6185   1.558   1.358   5.656 -0.0208 -0.2145  0.1348
 2083TIP3    H2 6186   1.666   1.321   5.557 -0.4822  1.3810 -0.9927
 2084TIP3   OH2 6187   5.317   1.242   3.821 -0.1009  0.3700  0.3074
 2084TIP3    H1 6188   5.340   1.173   3.759 -2.0981  0.6348 -0.7641
 2084TIP3    H2 6189   5.310   1.321   3.768 -1.4420  0.6762  0.9279
 2085TIP3   OH2 6190   5.915   1.445   2.710  0.3336 -0.4908  0.0222
 2085TIP3    H1 6191   5.882   1.375   2.766  0.6545 -0.4601  0.2500
 2085TIP3    H2 6192   5.939   1.515   2.771  0.2281 -0.2689 -0.1884
 2086TIP3   OH2 6193   4.276   2.287   3.607  0.2921 -0.4242  0.3396
 2086TIP3    H1 6194   4.317   2.207   3.639  1.8571  0.4932  0.6652
 2086TIP3    H2 6195   4.340   2.324   3.547 -0.5983  0.3794 -0.1257
 2087TIP3   OH2 6196   3.825   0.704   1.906 -0.3129 -0.7459  0.3305
 2087TIP3    H1 6197   3.830   0.660   1.820 -0.6352  0.4149 -0.2898
 2087TIP3    H2 6198   3.732   0.715   1.922 -0.2448 -0.7476  0.7207
 2088TIP3   OH2 6199   3.174   0.688   4.421  0.1915 -0.3284 -0.3018
 2088TIP3    H1 6200   3.254   0.722   4.461 -1.1146  0.0346  2.0889
 2088TIP3    H2 6201   3.193   0.595   4.406  1.1598 -0.1769 -0.0744
 2089TIP3   OH2 6202   5.467   3.086   2.428 -0.1337 -0.2356  0.3472
 2089TIP3    H1 6203   5.495   3.142   2.500 -0.0365 -0.7252  0.6989
 2089TIP3    H2 6204   5.509   3.122   2.351 -0.4381  0.4472  0.4937
 2090TIP3   OH2 6205   3.054   2.213   3.603  0.0452 -0.4596  0.3217
 2090TIP3    H1 6206   2.963   2.216   3.573 -0.5854 -1.2049  2.0671
 2090TIP3    H2 6207   3.093   2.294   3.572 -1.4779  0.2927  0.3570
 2091TIP3   OH2 6208   4.337   2.806   4.013 -0.2655  0.0244 -0.0200
 2091TIP3    H1 6209   4.370   2.814   3.923  0.6685 -2.6335  0.0655
 2091TIP3    H2 6210   4.252   2.850   4.011 -0.1796  0.1353 -2.1615
 2092TIP3   OH2 6211   1.504   7.273   3.296  0.3581  0.2119  0.4696
 2092TIP3    H1 6212   1.518   7.180   3.316 -1.7967 -0.4510 -0.9150
 2092TIP3    H2 6213   1.558   7.320   3.360  0.5965 -1.9825  1.9286
 2093TIP3   OH2 6214   4.486   3.900   3.060 -0.4734 -0.0752 -0.0817
 2093TIP3    H1 6215   4.476   3.926   3.151 -0.1970  0.0747 -0.0936
 2093TIP3    H2 6216   4.569   3.939   3.032  0.1709 -1.3427  0.0232
 2094TIP3   OH2 6217   6.216   2.018   4.777 -0.0599  0.3467 -0.4268
 2094TIP3    H1 6218   6.236   1.942   4.723  0.3080  1.2435 -1.5869
 2094TIP3    H2 6219   6.172   2.079   4.717 -0.7037  0.8855  0.5815
 2095TIP3   OH2 6220   5.317   0.674   1.907 -0.0796 -0.3779 -0.3392
 2095TIP3    H1 6221   5.381   0.634   1.965 -0.8855  0.2196  0.9961
 2095TIP3    H2 6222   5.369   0.709   1.835  0.9887 -0.7738  0.2201
 2096TIP3   OH2 6223   0.533   7.948   5.206 -0.1314  0.8495  0.3853
 2096TIP3    H1 6224   0.613   7.972   5.253  0.3602 -0.1770  0.0822
 2096TIP3    H2 6225   0.462   7.980   5.261  0.4874  2.5316  0.2540
 2097TIP3   OH2 6226   2.842   0.624   4.310  0.2591  0.1857  0.4921
 2097TIP3    H1 6227   2.864   0.691   4.244  0.3544 -0.3894 -0.0646
 2097TIP3    H2 6228   2.874   0.661   4.392 -0.4445  1.1987  0.3223
 2098TIP3   OH2 6229   4.280   1.944   3.266  0.2366 -0.5506  0.6992
 2098TIP3    H1 6230   4.267   2.038   3.257  1.1358 -0.3980  0.8904
 2098TIP3    H2 6231   4.291   1.913   3.176 -0.2215 -0.4927  0.6266
 2099TIP3   OH2 6232   5.184   3.083   2.305  0.0658  0.1015 -0.1169
 2099TIP3    H1 6233   5.248   3.028   2.260  0.5769  0.0586  0.6610
 2099TIP3    H2 6234   5.141   3.024   2.367 -0.9200  0.0672 -0.8133
 2100TIP3   OH2 6235   5.400   0.195   3.228 -0.5079  0.3290  0.4033
 2100TIP3    H1 6236   5.474   0.202   3.168 -1.5981  0.8244 -0.9285
 2100TIP3    H2 6237   5.386   0.100   3.237 -0.8219  0.2535 -0.7597
 2101TIP3   OH2 6238   2.914   0.671   3.005 -0.2028 -0.1794  0.2947
 2101TIP3    H1 6239   2.838   0.635   2.960 -0.8612  1.6755 -0.1212
 2101TIP3    H2 6240   2.878   0.724   3.077  0.6788  0.6440  0.1516
 2102TIP3   OH2 6241   5.941   1.184   4.375  0.4042 -0.0908  0.6825
 2102TIP3    H1 6242   5.971   1.168   4.285 -0.0003  0.5729  0.4245
 2102TIP3    H2 6243   5.846   1.196   4.367  0.4452  0.5596  1.1167
 2103TIP3   OH2 6244   3.294   6.558   2.642  0.4030  0.3179 -0.3741
 2103TIP3    H1 6245   3.225   6.548   2.708  1.1898  2.3367  0.8053
 2103TIP3    H2 6246   3.375   6.538   2.689  0.6768 -2.0320 -1.7440
 2104TIP3   OH2 6247   3.959   7.630   2.147  0.5425 -0.4472  0.2346
 2104TIP3    H1 6248   3.981   7.579   2.225  0.5163  0.0220  0.5451
 2104TIP3    H2 6249   4.003   7.584   2.075  0.0584 -1.2371  0.4326
 2105TIP3   OH2 6250   8.051   1.511   0.241  0.2805 -0.5383  0.5207
 2105TIP3    H1 6251   8.024   1.445   0.304  1.2618 -1.1360  0.3302
 2105TIP3    H2 6252   8.011   1.592   0.273 -2.3015 -1.5038 -0.1677
 2106TIP3   OH2 6253   6.205   0.693   2.632  0.2190 -0.3976 -0.3243
 2106TIP3    H1 6254   6.187   0.699   2.726 -0.2979 -1.4706 -0.3455
 2106TIP3    H2 6255   6.128   0.649   2.595  1.2228 -1.6648 -0.9723
 2107TIP3   OH2 6256   6.896   0.296   3.188  0.1351  0.1292 -0.7993
 2107TIP3    H1 6257   6.933   0.379   3.157  0.7585  1.0683  2.2262
 2107TIP3    H2 6258   6.971   0.236   3.192  0.2024  0.2281 -0.4958
 2108TIP3   OH2 6259   5.437   3.241   3.454 -0.4981  0.1567  0.4065
 2108TIP3    H1 6260   5.343   3.228   3.441 -0.7884  1.4049  1.1878
 2108TIP3    H2 6261   5.451   3.222   3.547  0.3111 -1.5972 -0.0489
 2109TIP3   OH2 6262   5.211   2.019   3.434 -0.2718  0.0894  0.0988
 2109TIP3    H1 6263   5.290   2.067   3.457 -0.8136  0.3866  1.3513
 2109TIP3    H2 6264   5.214   1.941   3.490  1.0179 -1.8124 -2.4647
 2110TIP3   OH2 6265   0.879   1.393   1.383 -0.2174 -0.6285  0.4992
 2110TIP3    H1 6266   0.930   1.383   1.303  1.6581  0.8706  1.4651
 2110TIP3    H2 6267   0.856   1.304   1.408 -0.1557 -1.1611 -1.2739
 2111TIP3   OH2 6268   0.524   1.158   1.415 -0.4240 -0.0365 -0.4557
 2111TIP3    H1 6269   0.510   1.251   1.397  0.7786 -0.0846 -1.7155
 2111TIP3    H2 6270   0.463   1.138   1.486 -0.3413  1.8256  0.1629
 2112TIP3   OH2 6271   6.209   1.663   2.436 -0.0589 -0.5718  0.5592
 2112TIP3    H1 6272   6.176   1.582   2.474  0.2750 -0.3865  1.2751
 2112TIP3    H2 6273   6.298   1.672   2.472  1.8977 -2.4850 -3.5362
 2113TIP3   OH2 6274   2.867   7.460   2.423 -0.0370  0.1627 -0.1392
 2113TIP3    H1 6275   2.935   7.393   2.412  1.2711  1.2845  0.9997
 2113TIP3    H2 6276   2.810   7.449   2.347 -0.8851 -3.4315  0.9176
 2114TIP3   OH2 6277   0.229   2.220   1.129  0.4432 -0.4228 -0.2740
 2114TIP3    H1 6278   0.150   2.199   1.178 -0.0826  0.4846 -0.7044
 2114TIP3    H2 6279   0.213   2.187   1.041  0.7610 -0.7109 -0.2244
 2115TIP3   OH2 6280   6.541   0.837   0.508 -0.4057  0.2094 -0.1195
 2115TIP3    H1 6281   6.571   0.921   0.475 -0.8048  0.9605  1.4093
 2115TIP3    H2 6282   6.621   0.794   0.540 -0.1983 -0.0194 -0.9335
 2116TIP3   OH2 6283   6.641   0.297   3.034  0.1533  0.1716  0.8384
 2116TIP3    H1 6284   6.717   0.299   3.092  0.0521 -0.6913  1.0196
 2116TIP3    H2 6285   6.677   0.296   2.946  0.3447  0.0185  0.9188
 2117TIP3   OH2 6286   7.297   1.141   5.068 -0.5067 -0.6242  0.4757
 2117TIP3    H1 6287   7.306   1.059   5.020 -0.3696 -0.2707 -0.1084
 2117TIP3    H2 6288   7.387   1.165   5.093 -0.3092  0.4403 -1.2029
 2118TIP3   OH2 6289   2.172   7.874   3.520  0.4991  0.0466 -0.1885
 2118TIP3    H1 6290   2.109   7.916   3.463  0.8548 -0.0915 -0.6864
 2118TIP3    H2 6291   2.186   7.936   3.592  0.7971  0.6455 -0.7641
 2119TIP3   OH2 6292   6.447   2.822   3.903  0.1484  0.6394 -0.1622
 2119TIP3    H1 6293   6.428   2.840   3.995 -1.1753  0.0094 -0.2929
 2119TIP3    H2 6294   6.361   2.821   3.861  0.5772 -1.0975 -1.0341
 2120TIP3   OH2 6295   5.949   1.202   2.863  0.3350 -1.2183 -0.7003
 2120TIP3    H1 6296   6.024   1.180   2.918  0.1689  1.5402  0.7331
 2120TIP3    H2 6297   5.874   1.201   2.922 -0.3026 -1.0379 -1.4953
 2121TIP3   OH2 6298   6.378   0.956   4.427  0.1938 -0.0997  0.2426
 2121TIP3    H1 6299   6.283   0.953   4.438  0.0812 -0.4815 -0.7920
 2121TIP3    H2 6300   6.413   0.963   4.517 -0.8147  0.4231  0.5996
 2122TIP3   OH2 6301   1.707   7.600   1.386 -0.3415  0.4799 -0.0243
 2122TIP3    H1 6302   1.771   7.536   1.415 -0.8979 -0.1145 -0.1092
 2122TIP3    H2 6303   1.623   7.563   1.411 -0.5453  2.4663  2.4627
 2123TIP3   OH2 6304   6.649   1.079   2.866  0.0419  0.0444 -0.4349
 2123TIP3    H1 6305   6.658   0.987   2.840 -1.3905  0.0955 -1.1671
 2123TIP3    H2 6306   6.558   1.101   2.846  0.0350  1.2765  0.8847
 2124TIP3   OH2 6307   6.306   0.746   4.111  0.3489 -0.3185 -0.1206
 2124TIP3    H1 6308   6.292   0.670   4.168  0.0809  0.8289  1.3492
 2124TIP3    H2 6309   6.376   0.795   4.153 -0.4218  0.9751 -0.3379
 2125TIP3   OH2 6310   5.845   0.082   3.396 -0.6775  0.3505 -0.6457
 2125TIP3    H1 6311   5.863   0.055   3.486  1.1881  1.1051 -0.7787
 2125TIP3    H2 6312   5.818   0.002   3.352  1.4366 -0.6482 -0.1806
 2126TIP3   OH2 6313   4.012   7.245   2.183 -0.0810  0.6849  0.2866
 2126TIP3    H1 6314   4.035   7.314   2.120 -0.2087  0.5328  0.0752
 2126TIP3    H2 6315   3.944   7.195   2.140 -0.1347  0.5497  0.5281
 2127TIP3   OH2 6316   5.052   6.761   1.947 -0.0213  0.0863 -0.3074
 2127TIP3    H1 6317   5.119   6.705   1.908  0.1708 -0.6127  0.9923
 2127TIP3    H2 6318   5.096   6.803   2.021 -0.8206  0.1882  0.1138
 2128TIP3   OH2 6319   1.057   7.856   2.908  0.0935 -0.1615 -0.1446
 2128TIP3    H1 6320   1.145   7.855   2.870 -0.7283  1.2848 -2.1225
 2128TIP3    H2 6321   1.033   7.948   2.913 -0.9679 -0.4940  1.2239
 2129TIP3   OH2 6322   6.521   1.890   3.015 -0.0754 -0.3844  0.4125
 2129TIP3    H1 6323   6.455   1.862   2.951  0.9474 -1.4252 -0.1946
 2129TIP3    H2 6324   6.586   1.937   2.963 -1.1866  2.2073  1.2504
 2130TIP3   OH2 6325   2.806   7.712   1.457  0.4325  0.3454  0.3712
 2130TIP3    H1 6326   2.745   7.781   1.482 -1.4642 -1.3231  0.4599
 2130TIP3    H2 6327   2.763   7.667   1.384  0.9067 -1.6953  1.2899
 2131TIP3   OH2 6328   6.433   1.684   3.577 -0.2450  0.0801  0.1692
 2131TIP3    H1 6329   6.421   1.645   3.664  0.8874  0.4943  0.5307
 2131TIP3    H2 6330   6.457   1.610   3.521  1.7897  0.2080  0.8266
 2132TIP3   OH2 6331   2.451   7.659   2.438  0.0245  0.2065 -0.2727
 2132TIP3    H1 6332   2.359   7.678   2.417 -0.6343 -1.0211  1.3489
 2132TIP3    H2 6333   2.446   7.597   2.512  2.1424 -0.7453 -0.8945
 2133TIP3   OH2 6334   3.887   6.335   1.637  0.4932  0.3116  0.1350
 2133TIP3    H1 6335   3.945   6.297   1.571 -0.3921 -0.7779 -0.0298
 2133TIP3    H2 6336   3.942   6.400   1.682  1.7181 -0.4067 -0.2834
 2134TIP3   OH2 6337   4.865   6.977   2.189 -0.4371  0.2823 -0.5923
 2134TIP3    H1 6338   4.956   6.991   2.167 -0.7272  1.1154 -1.2656
 2134TIP3    H2 6339   4.825   6.947   2.107 -0.6854 -0.5020 -0.1970
 2135TIP3   OH2 6340   8.131   2.982   3.219 -0.5223  0.1140 -0.0828
 2135TIP3    H1 6341   8.137   2.950   3.309 -2.1501 -1.1234 -0.3881
 2135TIP3    H2 6342   8.112   3.076   3.228 -0.8171 -0.0298  0.8689
 2136TIP3   OH2 6343   1.428   7.906   3.095  0.5666  0.4773  0.2134
 2136TIP3    H1 6344   1.335   7.921   3.111  1.0851  1.7027  2.3613
 2136TIP3    H2 6345   1.431   7.829   3.038 -1.8011  1.5742 -1.4593
 2137TIP3   OH2 6346   6.251   0.518   3.703 -0.2291  0.0114 -0.1850
 2137TIP3    H1 6347   6.317   0.564   3.754 -0.6892 -0.0726  0.4836
 2137TIP3    H2 6348   6.275   0.425   3.710 -0.0321  0.0392 -0.4914
 2138TIP3   OH2 6349   0.613   6.155   6.431  0.1537 -0.0533  0.0379
 2138TIP3    H1 6350   0.656   6.230   6.473  1.2341  0.7251 -2.3303
 2138TIP3    H2 6351   0.520   6.170   6.445  0.4694  0.1594  2.1316
 2139TIP3   OH2 6352   6.424   1.942   2.517  0.0338  0.1506 -0.3009
 2139TIP3    H1 6353   6.480   2.016   2.491  1.4280 -0.7334  0.1570
 2139TIP3    H2 6354   6.342   1.957   2.469  0.6998  1.3768 -1.1038
 2140TIP3   OH2 6355   6.666   0.612   3.543  0.0268 -0.1944 -0.5787
 2140TIP3    H1 6356   6.592   0.669   3.563 -0.2051 -0.5620 -0.3776
 2140TIP3    H2 6357   6.733   0.670   3.506 -1.4105 -0.2407 -3.4335
 2141TIP3   OH2 6358   7.726   0.225   1.105 -0.3216 -0.4012 -0.1493
 2141TIP3    H1 6359   7.804   0.182   1.069 -0.5446 -1.0585  0.1419
 2141TIP3    H2 6360   7.718   0.191   1.194  1.2350  2.5657  1.1880
 2142TIP3   OH2 6361   5.211   0.398   5.250 -0.2399  0.3675  0.3824
 2142TIP3    H1 6362   5.162   0.322   5.283  0.9110 -0.0034  1.2680
 2142TIP3    H2 6363   5.157   0.473   5.274 -0.9354 -0.1138  0.3399
 2143TIP3   OH2 6364   5.863   4.588   2.171  0.8883  0.5114 -0.2484
 2143TIP3    H1 6365   5.804   4.513   2.159  1.0386  0.2888  0.4256
 2143TIP3    H2 6366   5.929   4.577   2.103  0.2976  0.6239 -0.8471
 2144TIP3   OH2 6367   6.391   1.308   2.544  0.1559  0.3665 -0.0641
 2144TIP3    H1 6368   6.396   1.234   2.483  2.2754  1.3445 -1.1328
 2144TIP3    H2 6369   6.304   1.346   2.529 -0.0656 -0.5466 -1.1273
 2145TIP3   OH2 6370   6.719   1.736   3.710  0.0200  0.0492 -0.2342
 2145TIP3    H1 6371   6.634   1.712   3.746 -0.0758 -0.0530 -0.5291
 2145TIP3    H2 6372   6.698   1.784   3.630  0.2174  0.7474  0.1240
 2146TIP3   OH2 6373   6.510   1.956   3.532 -0.4645  0.1486 -0.1433
 2146TIP3    H1 6374   6.496   1.870   3.571  2.7550  0.1289  1.0717
 2146TIP3    H2 6375   6.516   1.939   3.438  0.4581 -1.0110  0.1191
 2147TIP3   OH2 6376   6.757   1.437   4.108  0.0304 -0.5198 -0.4021
 2147TIP3    H1 6377   6.762   1.383   4.029  2.9817 -0.9424  0.0041
 2147TIP3    H2 6378   6.780   1.525   4.080 -2.3659  0.0754 -0.6101
 2148TIP3   OH2 6379   2.051   5.531   6.572  0.1359  0.0114  0.4607
 2148TIP3    H1 6380   1.977   5.471   6.563  0.2101  0.0010 -0.1015
 2148TIP3    H2 6381   2.087   5.511   6.658 -0.2449 -0.2932  0.5518
 2149TIP3   OH2 6382   5.885   0.440   3.666 -0.3434  0.0729  0.0333
 2149TIP3    H1 6383   5.839   0.407   3.589 -0.1462  3.1766 -1.4771
 2149TIP3    H2 6384   5.949   0.502   3.631 -0.9574  2.3141  2.7365
 2150TIP3   OH2 6385   4.100   7.446   3.569  0.2640  1.0168  0.4054
 2150TIP3    H1 6386   4.089   7.361   3.610 -2.4543  0.9334 -0.4049
 2150TIP3    H2 6387   4.115   7.426   3.476 -0.2391  1.4108  0.2378
 2151TIP3   OH2 6388   5.289   7.122   2.044  0.5442  0.4591 -0.2024
 2151TIP3    H1 6389   5.199   7.128   2.014  1.1398  1.6760 -1.7714
 2151TIP3    H2 6390   5.282   7.125   2.140 -1.0811  0.3933 -0.3068
 2152TIP3   OH2 6391   2.450   7.956   2.480  0.8905 -0.3443  0.0072
 2152TIP3    H1 6392   2.458   7.874   2.530  0.7755 -1.5442 -1.8942
 2152TIP3    H2 6393   2.449   7.928   2.389 -2.1052  1.5203 -0.6078
 2153TIP3   OH2 6394   2.896   5.852   4.951  0.2900 -0.1768 -0.2803
 2153TIP3    H1 6395   2.910   5.929   5.007 -0.9965  0.8977 -1.4026
 2153TIP3    H2 6396   2.978   5.843   4.903  0.6115  0.2313  0.1824
 2154TIP3   OH2 6397   5.596   1.489   1.799 -0.2499 -0.2461 -0.1119
 2154TIP3    H1 6398   5.576   1.459   1.710  1.1604  0.8029 -0.8005
 2154TIP3    H2 6399   5.523   1.546   1.823 -1.6948 -2.1913  0.2433
 2155TIP3   OH2 6400   6.695   5.812   1.901  0.1190  0.4999  0.1087
 2155TIP3    H1 6401   6.692   5.852   1.988  0.8329 -1.5225  1.0951
 2155TIP3    H2 6402   6.723   5.883   1.843 -2.3017  2.4165  1.1814
 2156TIP3   OH2 6403   5.943   0.645   3.092 -0.4221 -0.8418 -0.2573
 2156TIP3    H1 6404   6.035   0.628   3.108 -0.0546  2.0169  0.9461
 2156TIP3    H2 6405   5.931   0.627   2.999  2.1135  1.7553 -1.1721
 2157TIP3   OH2 6406   6.376   1.051   4.156 -0.1881  0.8856  0.0880
 2157TIP3    H1 6407   6.363   1.077   4.247  1.2125 -1.8081  1.0854
 2157TIP3    H2 6408   6.287   1.041   4.121 -0.7339  1.8698  1.1488
 2158TIP3   OH2 6409   6.091   1.626   2.864 -0.0291 -0.7562 -0.0828
 2158TIP3    H1 6410   6.129   1.652   2.780  0.0136 -1.0708 -0.1624
 2158TIP3    H2 6411   6.116   1.696   2.924  1.2034 -1.2547  0.0047
 2159TIP3   OH2 6412   1.730   6.838   1.911  0.5512 -0.2429 -0.0054
 2159TIP3    H1 6413   1.794   6.796   1.969  0.0833  0.3740  0.9684
 2159TIP3    H2 6414   1.767   6.924   1.891  0.0325  0.1205  0.5687
 2160TIP3   OH2 6415   6.265   1.119   2.332  0.4939 -0.3392 -0.3050
 2160TIP3    H1 6416   6.275   1.070   2.250 -2.2616 -0.6116 -0.5138
 2160TIP3    H2 6417   6.171   1.115   2.351  1.2741 -1.5407  3.6722
 2161TIP3   OH2 6418   4.457   6.123   0.995  0.4244  0.6106 -0.0392
 2161TIP3    H1 6419   4.471   6.208   1.037 -0.3644  1.2350 -1.0131
 2161TIP3    H2 6420   4.435   6.064   1.067  1.6826  1.0624  0.7314
 2162TIP3   OH2 6421   5.497  -0.028   0.866 -0.2404 -0.2541 -0.0735
 2162TIP3    H1 6422   5.593  -0.027   0.865 -0.1922 -0.2330  1.8264
 2162TIP3    H2 6423   5.472   0.064   0.873 -0.4120 -0.2400 -0.8449
 2163TIP3   OH2 6424   3.347   7.249   1.472 -0.4132  0.7468  0.3379
 2163TIP3    H1 6425   3.275   7.297   1.432 -0.2530  2.6381  2.1914
 2163TIP3    H2 6426   3.314   7.222   1.558  0.4472 -0.0070  0.4408
 2164TIP3   OH2 6427   6.880   1.878   2.684  0.0772 -0.8360  0.1656
 2164TIP3    H1 6428   6.844   1.812   2.744  0.6129 -2.5371 -1.3459
 2164TIP3    H2 6429   6.975   1.872   2.697  0.0582  0.9009  1.2972
 2165TIP3   OH2 6430   4.060   1.394   3.929  0.0940  0.4244 -0.1841
 2165TIP3    H1 6431   4.012   1.429   3.854  1.9924  2.2459 -0.5977
 2165TIP3    H2 6432   4.115   1.466   3.958 -0.8142 -0.1439  3.1984
 2166TIP3   OH2 6433   7.480   0.695   5.379 -0.5573 -0.3846  0.1566
 2166TIP3    H1 6434   7.436   0.742   5.308 -1.6221 -3.1832 -1.1104
 2166TIP3    H2 6435   7.573   0.711   5.363 -0.8746  1.1008 -0.3455
 2167TIP3   OH2 6436   2.690   7.542   2.632 -0.1457 -0.2688 -0.1926
 2167TIP3    H1 6437   2.616   7.487   2.604  0.9339 -0.5975 -2.5397
 2167TIP3    H2 6438   2.762   7.516   2.574  1.7345  0.2555  1.8612
 2168TIP3   OH2 6439   3.390   6.954   0.606 -0.3055 -0.3363 -0.0214
 2168TIP3    H1 6440   3.440   6.955   0.524 -0.6157  0.2445 -0.2047
 2168TIP3    H2 6441   3.312   6.903   0.586 -0.3820 -0.1934 -0.0880
 2169TIP3   OH2 6442   0.299   2.594   2.575  0.1534 -0.1774  0.1973
 2169TIP3    H1 6443   0.298   2.686   2.548 -0.2239  0.2009  1.4789
 2169TIP3    H2 6444   0.283   2.596   2.670 -0.5595 -1.5977  0.1279
 2170TIP3   OH2 6445   4.500   7.902   4.091 -0.2521  0.0890 -0.0839
 2170TIP3    H1 6446   4.587   7.885   4.054 -0.2607 -0.0118 -0.0573
 2170TIP3    H2 6447   4.442   7.841   4.044 -0.3472  0.3229 -0.2714
 2171TIP3   OH2 6448   4.704   7.324   1.769 -0.2822  0.3256 -0.2424
 2171TIP3    H1 6449   4.788   7.297   1.732 -0.0371 -0.6518  0.9932
 2171TIP3    H2 6450   4.723   7.346   1.860 -1.0956  1.5615 -0.3567
 2172TIP3   OH2 6451   7.169   1.669   0.856  0.2868  0.0789 -0.3484
 2172TIP3    H1 6452   7.109   1.740   0.880  0.2832 -0.4531  1.2467
 2172TIP3    H2 6453   7.187   1.685   0.763 -2.3670  0.2169 -0.9068
 2173TIP3   OH2 6454   6.038   1.121   4.112 -0.3432 -0.4555 -0.1376
 2173TIP3    H1 6455   6.064   1.036   4.077  0.4861  0.4619 -1.8153
 2173TIP3    H2 6456   5.954   1.140   4.071 -1.3995 -1.2447  1.6039
 2174TIP3   OH2 6457   6.947   1.454   5.547  0.1966  0.4941  0.0891
 2174TIP3    H1 6458   6.972   1.385   5.609 -0.5575 -1.2582 -1.5213
 2174TIP3    H2 6459   7.027   1.474   5.500 -0.1845 -1.3332 -1.3930
 2175TIP3   OH2 6460  -0.007   2.648   4.657  0.3996  0.0842  0.6338
 2175TIP3    H1 6461   0.039   2.574   4.615  0.7211  0.5769  0.1026
 2175TIP3    H2 6462  -0.003   2.628   4.750  0.1163 -0.7846  0.4684
 2176TIP3   OH2 6463   6.377   0.598   0.851  0.2624  0.0407  0.2942
 2176TIP3    H1 6464   6.473   0.608   0.850  0.4996 -1.9799 -1.2802
 2176TIP3    H2 6465   6.346   0.660   0.785  0.3597  1.4651  1.5469
 2177TIP3   OH2 6466   5.473   0.616   2.118 -0.5889 -0.6222  0.4013
 2177TIP3    H1 6467   5.526   0.651   2.189 -0.4392 -0.8824  0.4195
 2177TIP3    H2 6468   5.483   0.521   2.125  0.2282 -0.6129 -0.5755
 2178TIP3   OH2 6469   6.541   2.630   3.747  0.5205 -0.2019 -0.2408
 2178TIP3    H1 6470   6.521   2.681   3.826 -0.0008  0.8180 -1.0122
 2178TIP3    H2 6471   6.525   2.691   3.675 -0.1053 -1.4555 -1.1859
 2179TIP3   OH2 6472   2.941   7.090   1.589 -0.4331 -0.0812  0.2714
 2179TIP3    H1 6473   2.968   7.018   1.646  0.5848  0.8900  1.0245
 2179TIP3    H2 6474   2.980   7.069   1.504 -0.9721 -0.9250  0.2218
 2180TIP3   OH2 6475   5.307   0.205   2.248 -0.1369 -0.0681  0.0589
 2180TIP3    H1 6476   5.371   0.276   2.257 -0.9825  0.6616  0.3201
 2180TIP3    H2 6477   5.238   0.226   2.310  0.7435 -2.4141  1.9284
 2181TIP3   OH2 6478   4.017   7.158   0.000 -0.5805 -0.1723 -0.0728
 2181TIP3    H1 6479   4.020   7.182   0.093  4.7303  0.7369 -0.2641
 2181TIP3    H2 6480   4.082   7.088  -0.008 -0.5109  0.2047 -3.1884
 2182TIP3   OH2 6481   6.073   1.665   1.952 -0.0545  0.0713  0.0280
 2182TIP3    H1 6482   6.055   1.632   2.040  0.6908 -0.6029 -0.0733
 2182TIP3    H2 6483   6.016   1.742   1.944 -0.0112  0.2307  1.1547
 2183TIP3   OH2 6484   4.711   1.518   3.278  0.0883 -0.5359 -0.3006
 2183TIP3    H1 6485   4.657   1.575   3.333 -2.2589 -0.7726 -2.2961
 2183TIP3    H2 6486   4.795   1.564   3.271 -0.5456  0.8747  1.0930
 2184TIP3   OH2 6487   2.472   7.457   2.205 -0.2431 -0.3714 -0.1111
 2184TIP3    H1 6488   2.466   7.551   2.188 -0.1365 -0.1136  1.2182
 2184TIP3    H2 6489   2.563   7.444   2.234 -1.2487 -0.2668  3.2533
 2185TIP3   OH2 6490   5.457   0.700   2.668 -0.1415  0.0767  0.2825
 2185TIP3    H1 6491   5.546   0.720   2.699  0.0101 -1.2781  0.7791
 2185TIP3    H2 6492   5.467   0.619   2.618 -0.8863  0.6630 -0.8189
 2186TIP3   OH2 6493   6.962   2.698   2.348  0.0519  0.3156 -0.1588
 2186TIP3    H1 6494   7.019   2.774   2.340  1.2770 -0.4872  0.7467
 2186TIP3    H2 6495   6.893   2.724   2.409  1.5301  0.0957  1.6488
 2187TIP3   OH2 6496   4.702   1.781   1.210 -0.1503  0.4729  0.3384
 2187TIP3    H1 6497   4.684   1.872   1.185  0.4857  0.7929  1.0174
 2187TIP3    H2 6498   4.643   1.729   1.155  0.4653  1.2164 -1.0506
 2188TIP3   OH2 6499   5.869   6.817   0.631  0.3236  0.0278  0.1874
 2188TIP3    H1 6500   5.897   6.754   0.698  0.2324  0.8107  0.9705
 2188TIP3    H2 6501   5.782   6.845   0.659  0.5178  0.7913  0.0569
 2189TIP3   OH2 6502   4.598   2.177   2.279 -0.1054  0.0048  0.0811
 2189TIP3    H1 6503   4.570   2.107   2.337  0.8243  1.0050  1.7490
 2189TIP3    H2 6504   4.685   2.151   2.248 -0.2360 -0.1098 -0.1956
 2190TIP3   OH2 6505   4.942   1.814   1.901  0.7181  0.2524 -0.0810
 2190TIP3    H1 6506   5.011   1.754   1.873  1.7156  1.1614  0.3749
 2190TIP3    H2 6507   4.953   1.891   1.846 -1.1333 -0.3015 -1.2909
 2191TIP3   OH2 6508   1.662   6.941   1.628 -0.1753  0.2173  0.2030
 2191TIP3    H1 6509   1.636   6.954   1.719  0.0447  1.8306  0.0593
 2191TIP3    H2 6510   1.606   7.001   1.579  0.5051  0.2014 -0.5952
 2192TIP3   OH2 6511   6.199   1.962   3.806 -0.4140  0.0880  0.0741
 2192TIP3    H1 6512   6.235   1.875   3.821 -0.5012  0.1222  0.4897
 2192TIP3    H2 6513   6.257   2.021   3.854 -1.1921  0.1141  0.9954
 2193TIP3   OH2 6514   6.087   0.435   2.344 -0.4022 -0.3421 -0.1223
 2193TIP3    H1 6515   6.014   0.464   2.398 -0.3232 -1.6342  0.6989
 2193TIP3    H2 6516   6.158   0.497   2.362 -1.0834  0.5256 -0.4284
 2194TIP3   OH2 6517   7.823   0.169   1.363  0.1173 -0.4843 -0.2731
 2194TIP3    H1 6518   7.818   0.262   1.386  0.3737 -0.8172  1.1816
 2194TIP3    H2 6519   7.917   0.149   1.365  0.0971 -0.6524 -1.0759
 2195TIP3   OH2 6520   0.148   3.049   1.398 -0.0241 -0.0065  0.4176
 2195TIP3    H1 6521   0.191   3.123   1.441  1.3288  0.1874 -1.2157
 2195TIP3    H2 6522   0.156   2.978   1.462 -0.8254  1.0904  1.7628
 2196TIP3   OH2 6523   6.578   1.070   1.265  0.3716 -0.5277  0.2234
 2196TIP3    H1 6524   6.630   1.002   1.308  1.1321  0.2201  0.4973
 2196TIP3    H2 6525   6.503   1.083   1.323  1.0508  0.0042  1.0108
 2197TIP3   OH2 6526   2.534   7.828   3.648 -0.0744 -0.1565 -0.3073
 2197TIP3    H1 6527   2.468   7.758   3.647 -0.4681  0.2257 -1.8062
 2197TIP3    H2 6528   2.613   7.784   3.679 -0.7969 -0.8132  0.6846
 2198TIP3   OH2 6529   6.107   1.426   2.146 -0.4842  0.2348 -0.4093
 2198TIP3    H1 6530   6.197   1.455   2.133 -0.7494  0.8722 -0.8591
 2198TIP3    H2 6531   6.113   1.331   2.158  0.3269  0.3798  0.3960
 2199TIP3   OH2 6532   5.040   1.194   2.760 -0.3209  0.7280  0.1455
 2199TIP3    H1 6533   5.067   1.126   2.822  0.2014 -0.0373 -0.9220
 2199TIP3    H2 6534   4.956   1.225   2.795 -0.7530 -0.7178  0.4465
 2200TIP3   OH2 6535   4.813   4.005   0.789 -0.2739  0.2045 -0.6709
 2200TIP3    H1 6536   4.834   3.938   0.723 -0.6490  1.1677 -1.7803
 2200TIP3    H2 6537   4.816   3.958   0.872  1.8715 -0.6767 -1.2006
 2201TIP3   OH2 6538   5.777   1.664   3.180 -0.2832  0.0139 -0.5264
 2201TIP3    H1 6539   5.818   1.750   3.178 -0.6257  0.1806 -0.4001
 2201TIP3    H2 6540   5.725   1.660   3.100  1.7110 -1.0562 -1.8040
 2202TIP3   OH2 6541   0.017   2.739   1.840 -0.4233 -0.2616  0.2552
 2202TIP3    H1 6542   0.096   2.774   1.882  0.0111 -0.3327 -0.4981
 2202TIP3    H2 6543   0.019   2.645   1.858 -0.8963 -0.1172  1.1365
 2203TIP3   OH2 6544   2.725   7.376   2.188  0.0414  0.0725  0.0367
 2203TIP3    H1 6545   2.703   7.382   2.095 -0.0303  0.4171  0.0730
 2203TIP3    H2 6546   2.775   7.295   2.196 -0.2257 -0.1198 -0.2468
 2204TIP3   OH2 6547   6.562   0.366   1.538 -0.5289  0.3479 -0.5097
 2204TIP3    H1 6548   6.511   0.329   1.465 -0.9478  1.1395 -0.6211
 2204TIP3    H2 6549   6.640   0.402   1.496  0.5373 -1.6048 -0.2415
 2205TIP3   OH2 6550   6.954   1.973   1.545 -0.6648 -0.0615 -0.4689
 2205TIP3    H1 6551   6.997   1.962   1.460  0.0505  1.6316 -0.3500
 2205TIP3    H2 6552   6.988   1.901   1.599  1.6025  0.8841 -0.5637
 2206TIP3   OH2 6553   6.274   0.662   1.167 -0.0417 -0.1600 -0.7172
 2206TIP3    H1 6554   6.243   0.572   1.166 -2.5690  0.6925 -0.8042
 2206TIP3    H2 6555   6.363   0.656   1.202 -1.2969 -2.3524  2.3368
 2207TIP3   OH2 6556   5.814   2.283   2.973 -0.4590  0.1561 -0.5007
 2207TIP3    H1 6557   5.835   2.346   3.042  0.3690  0.8573 -1.3650
 2207TIP3    H2 6558   5.890   2.287   2.914 -0.2376 -1.9051 -0.3913
 2208TIP3   OH2 6559   2.544   0.225   1.122 -0.6678 -0.4110 -0.2385
 2208TIP3    H1 6560   2.470   0.168   1.141 -0.2725 -1.3162 -1.3972
 2208TIP3    H2 6561   2.614   0.194   1.179 -1.2724  0.6668  1.1115
 2209TIP3   OH2 6562   6.773   1.647   5.273  0.2987  0.5767  0.3656
 2209TIP3    H1 6563   6.819   1.564   5.260  0.8186  1.0144 -0.7788
 2209TIP3    H2 6564   6.737   1.668   5.186 -1.4471  0.6112  1.0873
 2210TIP3   OH2 6565   6.560   0.233   1.802  0.0008 -0.1246  0.7287
 2210TIP3    H1 6566   6.561   0.265   1.711  1.5694 -0.4031  0.6277
 2210TIP3    H2 6567   6.582   0.310   1.854 -0.4179 -0.0746  0.8295
 2211TIP3   OH2 6568   6.678   0.637   2.307  0.1462  0.0159  0.1253
 2211TIP3    H1 6569   6.728   0.718   2.315  0.2661  0.1475 -1.8262
 2211TIP3    H2 6570   6.627   0.647   2.226 -2.4262 -0.4597  1.6112
 2212TIP3   OH2 6571   6.853   0.955   2.531 -0.1860  0.0547 -0.2897
 2212TIP3    H1 6572   6.834   0.965   2.624 -0.2676 -1.9872 -0.0613
 2212TIP3    H2 6573   6.854   1.044   2.497 -0.7676  0.7867  1.5452
 2213TIP3   OH2 6574   0.221   1.676   1.061 -0.3759 -0.0781  0.0892
 2213TIP3    H1 6575   0.300   1.729   1.072  1.2542 -1.3411 -4.5227
 2213TIP3    H2 6576   0.239   1.596   1.111  0.1343  0.7007  1.1866
 2214TIP3   OH2 6577   5.154   1.263   3.461 -0.3803  0.7785 -0.3527
 2214TIP3    H1 6578   5.082   1.201   3.466 -0.2685  0.5890 -0.9940
 2214TIP3    H2 6579   5.222   1.226   3.517 -0.5370  0.6194 -0.2710
 2215TIP3   OH2 6580   4.321   1.470   4.480 -0.1752 -0.4652  0.2153
 2215TIP3    H1 6581   4.365   1.392   4.516  0.0889 -0.0023  0.9036
 2215TIP3    H2 6582   4.364   1.544   4.523 -0.7372  0.0473 -0.0969
 2216TIP3   OH2 6583   2.272   6.993   2.599  0.1144  0.5169 -0.3080
 2216TIP3    H1 6584   2.305   6.914   2.556  1.3089  0.6568  0.3576
 2216TIP3    H2 6585   2.275   7.061   2.530 -0.8022  0.0333 -0.8443
 2217TIP3   OH2 6586   6.997   1.892   4.100  0.1332  0.3082  0.1259
 2217TIP3    H1 6587   7.086   1.926   4.113  0.4733 -0.3728 -0.3573
 2217TIP3    H2 6588   6.941   1.952   4.148  0.7113  1.6049 -0.7913
 2218TIP3   OH2 6589   7.308   0.226   4.612  0.4075  0.5878  0.2741
 2218TIP3    H1 6590   7.350   0.223   4.526  1.6007 -1.4614  0.9041
 2218TIP3    H2 6591   7.269   0.313   4.616 -0.6140  0.3231 -2.7840
 2219TIP3   OH2 6592   5.071   2.276   3.883  0.0667 -1.1336 -0.0355
 2219TIP3    H1 6593   5.082   2.183   3.903  2.0628 -1.2398 -1.5098
 2219TIP3    H2 6594   5.103   2.321   3.961  1.1768 -1.6542 -0.1846
 2220TIP3   OH2 6595   4.460   7.607   4.167 -0.4260  0.1676  0.6542
 2220TIP3    H1 6596   4.401   7.648   4.104  1.3121  0.7343 -0.6558
 2220TIP3    H2 6597   4.526   7.674   4.185  0.3625 -0.7781  1.3434
 2221TIP3   OH2 6598   5.330   2.840   2.364  0.4051 -0.8911 -0.2274
 2221TIP3    H1 6599   5.387   2.782   2.415 -0.2483 -1.6694 -0.3753
 2221TIP3    H2 6600   5.369   2.926   2.374 -0.0351 -0.9128  2.0759
 2222TIP3   OH2 6601   4.699   6.022   2.635 -0.8117  0.2068  0.0137
 2222TIP3    H1 6602   4.741   6.018   2.549 -1.0798 -1.4746 -0.0577
 2222TIP3    H2 6603   4.772   6.023   2.697 -0.5859 -4.0908 -0.0531
 2223TIP3   OH2 6604   2.933   7.149   2.192  0.4170 -0.0654 -0.2230
 2223TIP3    H1 6605   2.918   7.059   2.164  0.5091  0.1025 -0.8150
 2223TIP3    H2 6606   3.012   7.176   2.145  0.7760  0.1039  0.4629
 2224TIP3   OH2 6607   4.448   2.339   2.438  0.0878  0.2542 -0.3429
 2224TIP3    H1 6608   4.489   2.392   2.506 -0.5321  0.2809  0.0173
 2224TIP3    H2 6609   4.518   2.322   2.375  0.1506  2.0176 -0.7673
 2225TIP3   OH2 6610   5.983   1.651   2.251  0.8345  0.3749 -0.6968
 2225TIP3    H1 6611   6.037   1.713   2.300  1.4247 -1.3458  0.8557
 2225TIP3    H2 6612   6.039   1.575   2.238  0.0861  0.0940 -2.5142
 2226TIP3   OH2 6613   4.897   1.362   1.576  0.5028  0.2753  0.0876
 2226TIP3    H1 6614   4.993   1.363   1.576  0.5455 -1.6107  0.4435
 2226TIP3    H2 6615   4.874   1.338   1.666 -0.2805 -0.0659 -0.2072
 2227TIP3   OH2 6616   7.133   2.101   4.730  0.1989 -0.0584  0.0334
 2227TIP3    H1 6617   7.106   2.190   4.754 -1.0434 -0.6351  0.8397
 2227TIP3    H2 6618   7.203   2.080   4.791 -1.1792 -0.5386  1.4836
 2228TIP3   OH2 6619   0.386   2.617   4.181  0.3848  0.4972 -0.5677
 2228TIP3    H1 6620   0.398   2.636   4.274  1.5969  0.9960 -0.8172
 2228TIP3    H2 6621   0.307   2.666   4.157 -1.2102 -1.3768  0.6798
 2229TIP3   OH2 6622   5.597   0.918   0.996 -0.2352  0.3749 -0.5590
 2229TIP3    H1 6623   5.607   0.923   1.091  1.2369 -0.4952 -0.6520
 2229TIP3    H2 6624   5.611   0.825   0.975  0.9878  0.8179 -1.7738
 2230TIP3   OH2 6625   5.607   1.739   2.954  0.0006  0.1717  0.4222
 2230TIP3    H1 6626   5.670   1.805   2.924 -0.2052  0.4421  0.5889
 2230TIP3    H2 6627   5.526   1.787   2.966 -0.6294 -0.4325 -1.2010
 2231TIP3   OH2 6628   4.783   1.256   2.851 -0.5061  0.1754  0.0170
 2231TIP3    H1 6629   4.764   1.167   2.881 -0.5661  0.4617  0.8423
 2231TIP3    H2 6630   4.790   1.308   2.931  0.9534  0.6329 -0.3769
 2232TIP3   OH2 6631   7.155   1.195   5.324  0.1371 -0.2816  0.0405
 2232TIP3    H1 6632   7.237   1.166   5.363  0.4682 -0.4813 -0.7799
 2232TIP3    H2 6633   7.164   1.173   5.231 -1.1899 -1.0819  0.0927
 2233TIP3   OH2 6634   4.920   6.646   1.727  0.2904  0.5990  0.1726
 2233TIP3    H1 6635   4.973   6.667   1.804  2.4287 -0.0959 -1.0604
 2233TIP3    H2 6636   4.902   6.552   1.736  1.8044  0.1891 -0.8979
 2234TIP3   OH2 6637   6.015   0.670   1.365  0.0337 -0.7921 -0.1381
 2234TIP3    H1 6638   6.067   0.593   1.343  1.1701 -0.1235  0.1718
 2234TIP3    H2 6639   6.074   0.744   1.353 -0.2138 -0.1732  2.1850
 2235TIP3   OH2 6640   7.115   2.431   4.230 -0.0306  0.5213  0.2797
 2235TIP3    H1 6641   7.098   2.526   4.232  0.4658  0.5917  1.3808
 2235TIP3    H2 6642   7.133   2.408   4.321  2.4740 -0.1628 -0.3557
 2236TIP3   OH2 6643   7.110   2.173   3.999 -0.7451  0.0484 -0.5014
 2236TIP3    H1 6644   7.046   2.125   3.948 -0.0563 -1.4952  0.0575
 2236TIP3    H2 6645   7.174   2.107   4.027 -0.2128  1.1325  0.9561
 2237TIP3   OH2 6646   0.184   1.775   1.758  0.2498 -0.2338 -0.1859
 2237TIP3    H1 6647   0.091   1.764   1.741  0.5741 -1.1216 -1.5210
 2237TIP3    H2 6648   0.227   1.715   1.696  1.7079  0.4145  0.1663
 2238TIP3   OH2 6649   7.051   0.070   4.407 -0.0578 -0.4829 -0.2542
 2238TIP3    H1 6650   7.080   0.128   4.337 -1.5296  0.9419  0.2816
 2238TIP3    H2 6651   7.100   0.100   4.484 -1.2678  0.4782  0.1585
 2239TIP3   OH2 6652   2.876   7.187   5.154 -0.4386  0.6727  0.2598
 2239TIP3    H1 6653   2.912   7.238   5.083 -1.1297 -1.0661 -1.3902
 2239TIP3    H2 6654   2.921   7.102   5.148 -0.5040  0.4998  1.8904
 2240TIP3   OH2 6655   6.451   0.092   2.308 -0.7236 -0.5290  0.6868
 2240TIP3    H1 6656   6.419   0.157   2.371 -1.6780 -1.1906  0.9036
 2240TIP3    H2 6657   6.372   0.057   2.268 -0.1573 -0.7396 -0.2602
 2241TIP3   OH2 6658   6.100   0.293   2.939 -0.6383 -0.7277  0.2357
 2241TIP3    H1 6659   6.193   0.285   2.961 -0.5212 -0.8616 -0.2828
 2241TIP3    H2 6660   6.054   0.285   3.022 -0.1560 -0.1558  0.5587
 2242TIP3   OH2 6661   5.066   1.916   2.163  0.2032  0.0805  0.8247
 2242TIP3    H1 6662   5.031   1.868   2.239  2.2058 -2.2907  0.2795
 2242TIP3    H2 6663   5.052   1.858   2.089 -2.0729  2.5410 -0.7915
 2243TIP3   OH2 6664   5.644   0.193   3.084  0.2925  0.1059  0.2604
 2243TIP3    H1 6665   5.639   0.205   2.989  0.0877  1.9675  0.4808
 2243TIP3    H2 6666   5.729   0.230   3.109 -0.4091  1.2665  0.9995
 2244TIP3   OH2 6667   5.778   2.856   1.326  0.3848 -0.0578 -0.4066
 2244TIP3    H1 6668   5.779   2.946   1.359 -1.7320  0.2609 -1.1249
 2244TIP3    H2 6669   5.772   2.802   1.405 -0.8045  0.5477 -0.0655
 2245TIP3   OH2 6670   6.844   4.195   5.046 -0.8270 -0.2926 -0.1118
 2245TIP3    H1 6671   6.779   4.128   5.066 -0.5246 -0.9359 -1.2049
 2245TIP3    H2 6672   6.816   4.230   4.961 -1.0727  1.0892  0.5290
 2246TIP3   OH2 6673   4.575   3.159   3.629  0.3842  0.1615 -0.0656
 2246TIP3    H1 6674   4.615   3.205   3.555 -0.2632  2.4624  0.9697
 2246TIP3    H2 6675   4.639   3.168   3.700  0.1845 -0.4360  0.1950
 2247TIP3   OH2 6676   4.878   2.920   4.046 -0.0307  0.2897  0.0927
 2247TIP3    H1 6677   4.895   2.834   4.084 -0.0586 -0.1993 -0.9884
 2247TIP3    H2 6678   4.835   2.969   4.116 -3.5368 -1.7930 -0.4615
 2248TIP3   OH2 6679   6.622   2.038   4.674  0.0697  0.8457 -0.3184
 2248TIP3    H1 6680   6.598   2.071   4.760  0.3250  0.1280  0.0355
 2248TIP3    H2 6681   6.545   2.054   4.619 -1.2811 -1.5157  0.8229
 2249TIP3   OH2 6682   1.496   0.591   2.287 -0.0726 -0.2215 -0.4049
 2249TIP3    H1 6683   1.497   0.583   2.191  1.0572  1.6359 -0.5601
 2249TIP3    H2 6684   1.575   0.641   2.308 -1.3181  1.0673  1.3489
 2250TIP3   OH2 6685   4.746   1.169   2.545 -0.3743 -0.4045  0.7874
 2250TIP3    H1 6686   4.727   1.180   2.638 -1.0468  0.4378  0.5590
 2250TIP3    H2 6687   4.705   1.085   2.522 -0.6470 -0.3686  1.1380
 2251TIP3   OH2 6688   6.272   3.185   4.964 -0.5056  0.0871  0.0666
 2251TIP3    H1 6689   6.320   3.199   4.882  0.7339  0.4627  0.8486
 2251TIP3    H2 6690   6.192   3.141   4.937  0.6163 -1.2491 -1.2007
 2252TIP3   OH2 6691   6.087   0.144   2.685  0.6183 -0.0344 -0.0997
 2252TIP3    H1 6692   6.123   0.188   2.762  1.8887 -0.3743 -0.4864
 2252TIP3    H2 6693   6.006   0.191   2.666  0.5072  0.3193  1.1923
 2253TIP3   OH2 6694   5.552   2.201   2.086  0.0342 -0.0241 -0.3363
 2253TIP3    H1 6695   5.556   2.122   2.032  0.5408  0.4184 -0.9625
 2253TIP3    H2 6696   5.486   2.182   2.152  1.2568 -1.5692  0.4707
 2254TIP3   OH2 6697   3.570   7.824   1.421  0.4581  0.1337  0.2014
 2254TIP3    H1 6698   3.609   7.741   1.449 -0.5610 -0.4354 -0.0304
 2254TIP3    H2 6699   3.507   7.799   1.353 -0.3624  1.0250  0.6210
 2255TIP3   OH2 6700   7.172   2.442   1.595  0.3110  0.6546  0.0977
 2255TIP3    H1 6701   7.130   2.381   1.535 -1.6350  2.2730 -0.2265
 2255TIP3    H2 6702   7.122   2.434   1.676 -0.3434  2.2359 -0.1347
 2256TIP3   OH2 6703   4.546   3.552   0.584 -0.1967 -0.3535  0.6825
 2256TIP3    H1 6704   4.458   3.526   0.557 -0.7202 -1.7372  3.5200
 2256TIP3    H2 6705   4.551   3.646   0.565 -2.1072 -0.3697  0.0434
 2257TIP3   OH2 6706   7.092   1.975   2.087 -0.5395 -0.3171 -0.0311
 2257TIP3    H1 6707   7.129   1.962   2.174  3.5995 -1.5077 -1.8818
 2257TIP3    H2 6708   7.078   2.070   2.080  0.8793 -0.0120  1.2188
 2258TIP3   OH2 6709   7.854   0.348   1.633  0.1312  0.0714  0.3919
 2258TIP3    H1 6710   7.897   0.430   1.605  0.7129 -0.4650 -0.2973
 2258TIP3    H2 6711   7.916   0.279   1.609  0.0077 -0.5200  1.7173
 2259TIP3   OH2 6712   5.738   1.191   0.917 -0.2591 -0.0538  0.2910
 2259TIP3    H1 6713   5.745   1.277   0.876  1.9032 -0.7704 -0.9223
 2259TIP3    H2 6714   5.762   1.206   1.008 -1.9959  0.9890  0.6005
 2260TIP3   OH2 6715   5.711   0.624   1.383  0.2943 -0.4947  0.4729
 2260TIP3    H1 6716   5.806   0.622   1.377  0.1504 -1.6680 -2.2011
 2260TIP3    H2 6717   5.685   0.532   1.390 -0.7570 -0.3607 -1.4246
 2261TIP3   OH2 6718   0.592   2.044   4.936 -0.4377  0.0462  0.1752
 2261TIP3    H1 6719   0.591   1.954   4.903 -0.8201  0.0261  0.2362
 2261TIP3    H2 6720   0.508   2.081   4.906 -1.4223 -0.4000  2.3111
 2262TIP3   OH2 6721   7.247   2.893   2.271  0.3025  0.6564  0.5431
 2262TIP3    H1 6722   7.321   2.832   2.278 -1.6521 -1.7224  1.1389
 2262TIP3    H2 6723   7.225   2.913   2.362 -2.5546 -2.2177  0.5992
 2263TIP3   OH2 6724   7.643   2.536   2.107  0.2687 -0.2325 -0.6063
 2263TIP3    H1 6725   7.661   2.442   2.104 -0.3991 -0.4178  0.7876
 2263TIP3    H2 6726   7.718   2.573   2.154  0.0621 -0.1955 -0.3053
 2264TIP3   OH2 6727   6.574   3.333   2.453  0.0350 -0.3112  0.0365
 2264TIP3    H1 6728   6.624   3.413   2.433 -0.2758 -0.1622 -0.1411
 2264TIP3    H2 6729   6.641   3.264   2.456  0.2122 -0.1785 -0.5868
 2265TIP3   OH2 6730   7.574   3.065   0.936 -0.1804  0.4458 -0.7421
 2265TIP3    H1 6731   7.587   2.991   0.995  1.5205  1.3777  0.0937
 2265TIP3    H2 6732   7.604   3.032   0.851  2.3464  0.7054 -0.0034
 2266TIP3   OH2 6733   7.197   1.949   2.356 -0.4213  0.5653  0.2188
 2266TIP3    H1 6734   7.200   1.897   2.437  0.0069  0.7231  0.3074
 2266TIP3    H2 6735   7.194   2.040   2.387  2.1147  0.7539  0.0715
 2267TIP3   OH2 6736   1.281   1.597   4.769 -0.5216  0.2821 -0.2500
 2267TIP3    H1 6737   1.315   1.513   4.800 -1.2424 -0.8677 -2.4318
 2267TIP3    H2 6738   1.270   1.585   4.675 -0.5653  2.8706 -0.6170
 2268TIP3   OH2 6739   3.692   7.975   3.430  0.6784 -0.6030 -0.1640
 2268TIP3    H1 6740   3.744   8.055   3.430  0.8148 -0.6814  1.1051
 2268TIP3    H2 6741   3.723   7.925   3.506  1.0232 -2.1460 -1.2887
 2269TIP3   OH2 6742   6.334   1.161   1.423  0.2995  0.3744  0.0316
 2269TIP3    H1 6743   6.242   1.171   1.448  0.1411  1.8513 -1.0633
 2269TIP3    H2 6744   6.377   1.127   1.502 -1.2963 -1.0142  0.3335
 2270TIP3   OH2 6745   8.164   1.965   1.941  0.1430  0.4523 -0.8403
 2270TIP3    H1 6746   8.089   1.976   1.882 -2.5994 -0.9263  2.1863
 2270TIP3    H2 6747   8.178   2.051   1.979 -1.5234  0.2567  0.3109
 2271TIP3   OH2 6748   7.109   1.884   2.901 -0.5837 -0.2691  0.2001
 2271TIP3    H1 6749   7.119   1.789   2.896 -1.3749 -0.4486  1.7376
 2271TIP3    H2 6750   7.064   1.899   2.985 -0.0805  1.4816  0.1742
 2272TIP3   OH2 6751   4.485   5.668   2.864 -0.2115 -0.2586 -0.0440
 2272TIP3    H1 6752   4.523   5.755   2.875  0.1225 -0.3469 -0.4714
 2272TIP3    H2 6753   4.449   5.669   2.775  0.9347 -0.9872 -0.5243
 2273TIP3   OH2 6754   2.985   7.712   2.609  0.8413 -0.1064 -0.1964
 2273TIP3    H1 6755   2.896   7.724   2.642 -0.1889 -1.3927 -2.3482
 2273TIP3    H2 6756   3.010   7.798   2.576 -0.0719  0.0125 -0.5988
 2274TIP3   OH2 6757   5.864   0.908   1.316 -0.5573  0.2161  0.4118
 2274TIP3    H1 6758   5.914   0.827   1.329  0.0385  0.9624  3.1695
 2274TIP3    H2 6759   5.925   0.966   1.271  0.0821  0.1519  1.1848
 2275TIP3   OH2 6760   4.623   7.787   1.568 -0.7876  0.3088 -0.5594
 2275TIP3    H1 6761   4.611   7.693   1.571  1.7175 -0.0128  0.5768
 2275TIP3    H2 6762   4.630   7.808   1.475  0.4629 -0.8962 -0.7456
 2276TIP3   OH2 6763   5.771   2.168   3.290 -0.2521 -0.2835 -0.4095
 2276TIP3    H1 6764   5.843   2.224   3.264 -0.1555  1.2436  2.8712
 2276TIP3    H2 6765   5.784   2.154   3.384 -5.1078  1.5139  0.6903
 2277TIP3   OH2 6766   6.908   6.718   1.064  0.5709  0.1800  0.2064
 2277TIP3    H1 6767   6.933   6.672   0.984  2.3400  3.3520 -1.1745
 2277TIP3    H2 6768   6.959   6.676   1.133  1.3601 -0.5783 -0.8226
 2278TIP3   OH2 6769   8.273   1.820   5.224  0.6775 -0.0814  0.1576
 2278TIP3    H1 6770   8.269   1.897   5.280 -1.0531  0.1577 -0.2521
 2278TIP3    H2 6771   8.269   1.855   5.135  0.3581 -0.6215 -0.0405
 2279TIP3   OH2 6772   7.602   1.915   2.445  0.4669  0.0058 -0.4338
 2279TIP3    H1 6773   7.545   1.941   2.518  1.5152  0.4896  0.2282
 2279TIP3    H2 6774   7.550   1.853   2.395  0.0893 -1.0843  1.2782
 2280TIP3   OH2 6775   4.797   7.945   1.722  0.0599  0.9432 -0.4676
 2280TIP3    H1 6776   4.817   7.975   1.633 -0.0416  1.9117 -0.1726
 2280TIP3    H2 6777   4.748   7.864   1.709 -0.9795  1.6829 -1.3300
 2281TIP3   OH2 6778   1.788   5.702   6.642  0.3030 -0.5458  0.4247
 2281TIP3    H1 6779   1.860   5.643   6.617  1.1089  0.5587  0.0826
 2281TIP3    H2 6780   1.709   5.655   6.615  1.0408 -0.5052 -1.9247
 2282TIP3   OH2 6781   6.930   0.172   0.913 -0.3852  0.6469 -0.1790
 2282TIP3    H1 6782   6.893   0.157   1.000 -0.5238 -1.0548 -0.5234
 2282TIP3    H2 6783   6.867   0.132   0.853 -0.6905  2.5121 -1.1246
 2283TIP3   OH2 6784   7.070   0.172   0.643  0.0276  0.1444 -0.6324
 2283TIP3    H1 6785   7.020   0.167   0.724  0.6401  0.6349 -0.2176
 2283TIP3    H2 6786   7.078   0.266   0.625  0.1770  0.0472 -1.0802
 2284TIP3   OH2 6787   0.566   1.284   1.078 -0.0041  0.5295  0.1842
 2284TIP3    H1 6788   0.591   1.288   1.170  0.3343 -0.1588  0.1263
 2284TIP3    H2 6789   0.629   1.342   1.034 -0.2068  0.9094  0.3943
 2285TIP3   OH2 6790   7.682   7.053   2.273  0.3078 -0.0930 -0.4578
 2285TIP3    H1 6791   7.692   7.135   2.320 -1.1792 -0.2920  0.2476
 2285TIP3    H2 6792   7.761   7.045   2.220  1.9262  0.2441  1.8545
 2286TIP3   OH2 6793   2.023   0.046   4.217 -0.3650  0.2597  0.4824
 2286TIP3    H1 6794   2.055  -0.040   4.191  0.2272  0.7761 -0.5461
 2286TIP3    H2 6795   2.037   0.101   4.140  1.1631  1.7736  1.7877
 2287TIP3   OH2 6796   8.266   0.404   5.460  0.5696  0.3359 -0.0222
 2287TIP3    H1 6797   8.327   0.419   5.388 -1.5223  1.6858 -1.5702
 2287TIP3    H2 6798   8.228   0.490   5.478 -2.4270 -0.7860 -0.5754
 2288TIP3   OH2 6799   2.592   1.754   2.982 -0.3214  0.6140 -0.2968
 2288TIP3    H1 6800   2.528   1.719   3.044 -1.2822  2.6695 -0.0864
 2288TIP3    H2 6801   2.670   1.700   2.994 -0.9768  0.0804  1.6575
 2289TIP3   OH2 6802   1.946   3.141   6.196 -0.0130  0.0368  0.3154
 2289TIP3    H1 6803   1.869   3.102   6.154 -0.9835  0.0092  2.0915
 2289TIP3    H2 6804   2.016   3.077   6.182 -0.5957 -0.4643 -0.3129
 2290TIP3   OH2 6805   0.774   4.881   4.908  0.1266  0.4520 -0.4542
 2290TIP3    H1 6806   0.827   4.961   4.905 -1.4378  1.6517  2.0948
 2290TIP3    H2 6807   0.829   4.817   4.952  1.1907  0.2469 -2.0422
 2291TIP3   OH2 6808   0.659   1.715   5.255 -0.2580 -0.0004 -0.0779
 2291TIP3    H1 6809   0.667   1.810   5.251  1.7818 -0.2075 -2.0395
 2291TIP3    H2 6810   0.749   1.683   5.260 -0.8823 -1.8584 -0.0429
 2292TIP3   OH2 6811   3.046   2.090   3.269  0.0156  0.2301  0.1553
 2292TIP3    H1 6812   2.969   2.138   3.300 -0.9480 -0.8720 -0.4987
 2292TIP3    H2 6813   3.071   2.035   3.343 -0.1132  0.2323  0.2012
 2293TIP3   OH2 6814   5.797   6.874   2.769 -0.6757 -0.0954  0.2860
 2293TIP3    H1 6815   5.793   6.805   2.836 -0.0000  0.7127  1.1718
 2293TIP3    H2 6816   5.884   6.913   2.781 -2.1510  2.9039  1.8200
 2294TIP3   OH2 6817   7.520   6.047   2.210 -0.1911 -0.5579  0.4818
 2294TIP3    H1 6818   7.539   6.040   2.304 -1.4917  0.3096  0.8272
 2294TIP3    H2 6819   7.564   5.971   2.171 -0.0798 -1.2262  1.8642
 2295TIP3   OH2 6820   0.169   1.064   5.245 -0.1418  0.1676  0.3698
 2295TIP3    H1 6821   0.090   1.036   5.199  0.6027  0.9651 -1.4519
 2295TIP3    H2 6822   0.152   1.156   5.267 -0.3999 -0.1448  1.5065
 2296TIP3   OH2 6823   3.090   0.321   5.866  1.0059 -0.1464 -0.0129
 2296TIP3    H1 6824   3.058   0.370   5.791  0.1075 -1.6466 -0.6422
 2296TIP3    H2 6825   3.030   0.343   5.937  2.8408  2.5883  0.7790
 2297TIP3   OH2 6826   0.427   2.278   5.313 -0.3092  0.7014 -0.4129
 2297TIP3    H1 6827   0.483   2.314   5.245  0.5026  1.4521  0.6410
 2297TIP3    H2 6828   0.480   2.282   5.392 -0.8516 -1.1778  0.0634
 2298TIP3   OH2 6829   1.840   0.405   2.550  0.4321 -0.2511 -0.5442
 2298TIP3    H1 6830   1.846   0.359   2.466 -1.0843  0.8671 -1.3008
 2298TIP3    H2 6831   1.772   0.357   2.598  0.9807 -0.6152 -0.1265
 2299TIP3   OH2 6832   8.366   2.660   6.583  0.1866 -0.1182 -0.1959
 2299TIP3    H1 6833   8.355   2.695   6.495  1.4742 -0.6079 -0.5684
 2299TIP3    H2 6834   8.460   2.641   6.589  0.1821  0.2944  1.4229
 2300TIP3   OH2 6835   1.877   1.949   3.700  0.1451  0.1170 -0.4704
 2300TIP3    H1 6836   1.945   1.972   3.763 -0.4213  0.4296  0.0403
 2300TIP3    H2 6837   1.822   2.027   3.695 -0.1656 -0.1277 -0.8905
 2301TIP3   OH2 6838   0.116   2.919   4.597  0.6017  0.0349 -0.0132
 2301TIP3    H1 6839   0.154   2.899   4.512 -0.7502 -0.2838 -0.5641
 2301TIP3    H2 6840   0.074   2.838   4.625  0.6981  0.2476  0.7849
 2302TIP3   OH2 6841   0.392   2.891   6.024 -0.0978  0.2146 -0.2206
 2302TIP3    H1 6842   0.316   2.943   5.995  1.3832  2.1969 -0.6784
 2302TIP3    H2 6843   0.435   2.947   6.088  1.9649 -0.1288 -1.2755
 2303TIP3   OH2 6844   4.979   6.922   3.041  0.2279  0.0723 -0.6610
 2303TIP3    H1 6845   4.919   6.956   3.107  0.5082 -0.0750 -0.3281
 2303TIP3    H2 6846   5.016   6.843   3.081 -0.0582 -0.3579 -1.2377
 2304TIP3   OH2 6847   7.721   7.117   1.702  0.3079  0.0331  0.7147
 2304TIP3    H1 6848   7.706   7.112   1.608  0.9494  0.7789  0.5604
 2304TIP3    H2 6849   7.780   7.044   1.720  0.7838  0.3339  0.4032
 2305TIP3   OH2 6850   7.464   7.422   5.452  0.3069 -0.1711  0.2352
 2305TIP3    H1 6851   7.399   7.353   5.440  1.2184 -0.8358 -1.0074
 2305TIP3    H2 6852   7.424   7.500   5.413  0.3590 -0.6398 -0.7671
 2306TIP3   OH2 6853   2.690   2.626   4.079  0.8107  0.6993  0.0386
 2306TIP3    H1 6854   2.704   2.710   4.034  1.1699  0.6233  0.0072
 2306TIP3    H2 6855   2.718   2.560   4.016 -1.7295  0.4261 -0.8504
 2307TIP3   OH2 6856   2.963   1.702   3.665  0.3198  0.2215  0.5445
 2307TIP3    H1 6857   3.023   1.641   3.621 -1.9377 -1.0678 -0.8336
 2307TIP3    H2 6858   2.924   1.650   3.736  0.9575  1.1157  1.5714
 2308TIP3   OH2 6859   8.382   2.794   3.312 -0.0429 -0.0508 -0.1726
 2308TIP3    H1 6860   8.315   2.783   3.380  0.7421  0.2230  0.6527
 2308TIP3    H2 6861   8.363   2.879   3.274 -0.5508 -0.2501 -0.3774
 2309TIP3   OH2 6862   0.790   1.065   5.836 -0.1125 -0.2923 -0.1603
 2309TIP3    H1 6863   0.811   0.979   5.873 -0.3374 -0.9194 -1.4720
 2309TIP3    H2 6864   0.698   1.058   5.809  0.3245 -0.1679 -1.7166
 2310TIP3   OH2 6865   2.177   1.280   5.053  0.3029 -0.3491  0.3246
 2310TIP3    H1 6866   2.242   1.344   5.081  0.0959 -0.1256  0.2876
 2310TIP3    H2 6867   2.159   1.228   5.131  0.1609 -0.0988  0.4596
 2311TIP3   OH2 6868   2.209   0.207   4.711  0.3183  0.3462 -0.2021
 2311TIP3    H1 6869   2.168   0.157   4.781  0.7946  0.2896  0.0385
 2311TIP3    H2 6870   2.143   0.211   4.642  0.5783 -1.3269 -0.5649
 2312TIP3   OH2 6871   3.139   1.547   3.528 -0.2900  0.2474  0.0109
 2312TIP3    H1 6872   3.119   1.578   3.440  1.9774 -2.3453 -1.5262
 2312TIP3    H2 6873   3.220   1.594   3.552  0.7584 -1.2292 -0.5597
 2313TIP3   OH2 6874   0.209   2.126   5.820  0.2230 -0.3230  0.4785
 2313TIP3    H1 6875   0.303   2.109   5.833  0.1692  0.0696  1.4516
 2313TIP3    H2 6876   0.192   2.203   5.873 -0.6207 -0.2867  0.1531
 2314TIP3   OH2 6877   8.130   1.883   5.752  0.3804 -0.4279  0.2874
 2314TIP3    H1 6878   8.097   1.962   5.795 -0.5537 -0.5019 -0.2583
 2314TIP3    H2 6879   8.051   1.838   5.723  0.8551 -2.2115  1.7159
 2315TIP3   OH2 6880   1.372   1.787   4.539 -0.1078  0.2321 -0.9249
 2315TIP3    H1 6881   1.341   1.723   4.475  1.5857  0.5473 -2.0764
 2315TIP3    H2 6882   1.462   1.806   4.514  0.2369  1.1971  0.8997
 2316TIP3   OH2 6883   7.141   7.730   3.529 -0.0768 -0.4031  0.3708
 2316TIP3    H1 6884   7.226   7.689   3.541  0.8584  1.5023  0.5332
 2316TIP3    H2 6885   7.085   7.661   3.494  0.9422 -2.2378  2.3230
 2317TIP3   OH2 6886   8.020   6.691   5.949  0.1163 -0.5841  0.3199
 2317TIP3    H1 6887   7.954   6.760   5.956  0.1763 -0.5150  0.2131
 2317TIP3    H2 6888   8.103   6.737   5.953  0.1524 -0.5846 -0.3660
 2318TIP3   OH2 6889   2.262   2.957   1.840  0.3102 -0.3787  0.6405
 2318TIP3    H1 6890   2.258   2.947   1.935  1.4397 -2.0605  0.5229
 2318TIP3    H2 6891   2.211   2.884   1.806 -0.5885  0.5531 -0.0600
 2319TIP3   OH2 6892   6.986   2.547   3.115 -0.2709  0.3179 -0.5833
 2319TIP3    H1 6893   7.078   2.522   3.118  0.1152  1.8983  1.8239
 2319TIP3    H2 6894   6.981   2.626   3.167 -2.4872  2.0249 -3.2415
 2320TIP3   OH2 6895   0.920   3.415   3.510  0.1742 -0.4630 -0.1936
 2320TIP3    H1 6896   0.977   3.349   3.471 -0.0017  0.3187 -1.8440
 2320TIP3    H2 6897   0.840   3.411   3.458 -0.2742  0.2315  0.4430
 2321TIP3   OH2 6898   7.420   2.155   5.277 -0.1800  0.3492  0.1854
 2321TIP3    H1 6899   7.337   2.167   5.232  0.1259  0.1622 -0.4294
 2321TIP3    H2 6900   7.475   2.228   5.246  0.2436 -0.1453 -0.2409
 2322TIP3   OH2 6901   5.031   7.936   5.523 -0.1354 -0.0032  0.5483
 2322TIP3    H1 6902   4.985   7.871   5.576 -1.9353  0.8236  0.0588
 2322TIP3    H2 6903   4.963   8.000   5.499  1.2613  1.2203 -0.2689
 2323TIP3   OH2 6904   1.344   3.446   3.379 -0.2439  0.1405  0.0382
 2323TIP3    H1 6905   1.386   3.426   3.296 -1.2179  0.6526 -0.5836
 2323TIP3    H2 6906   1.380   3.530   3.405 -0.3339  0.2293 -0.1252
 2324TIP3   OH2 6907   1.274   3.251   3.563  0.0600 -0.5559 -0.1698
 2324TIP3    H1 6908   1.190   3.206   3.555 -0.1739 -0.2903  0.7743
 2324TIP3    H2 6909   1.277   3.310   3.487  0.9286 -3.0276 -2.1345
 2325TIP3   OH2 6910   0.876   0.844   1.328  0.0546 -0.3083 -0.0487
 2325TIP3    H1 6911   0.939   0.771   1.322  0.7483  0.3115 -0.3756
 2325TIP3    H2 6912   0.793   0.802   1.348  0.4557 -1.1991 -0.2212
 2326TIP3   OH2 6913   8.481   2.719   2.408 -0.0706 -0.5034  0.8668
 2326TIP3    H1 6914   8.512   2.717   2.499 -0.1296  2.6045  1.0120
 2326TIP3    H2 6915   8.391   2.751   2.415 -0.2415 -0.7392 -0.2493
 2327TIP3   OH2 6916   8.348   1.744   5.796 -0.4089  0.3326  0.3503
 2327TIP3    H1 6917   8.403   1.821   5.808 -0.1772  0.3182 -0.5702
 2327TIP3    H2 6918   8.259   1.780   5.785 -0.1277  0.5542 -1.3055
 2328TIP3   OH2 6919   2.311   1.465   4.633  0.0330 -0.6738 -0.0373
 2328TIP3    H1 6920   2.257   1.391   4.662  1.1992 -2.0494 -1.3014
 2328TIP3    H2 6921   2.394   1.454   4.679 -0.0757  0.3296  0.4085
 2329TIP3   OH2 6922   8.051   7.373   4.206  0.2600  0.1220 -0.6283
 2329TIP3    H1 6923   8.014   7.299   4.253  2.4606  0.2825  1.4275
 2329TIP3    H2 6924   8.028   7.450   4.259 -0.5902  0.7575 -1.8794
 2330TIP3   OH2 6925   7.179   0.672   4.289  0.0614 -0.0769 -0.1196
 2330TIP3    H1 6926   7.230   0.661   4.209 -2.2339 -2.3343 -1.3429
 2330TIP3    H2 6927   7.190   0.589   4.336  1.7517  1.3732  2.1958
 2331TIP3   OH2 6928   1.075   1.723   4.946 -0.2058  0.7204  0.2969
 2331TIP3    H1 6929   1.124   1.727   4.864  0.3797  0.7327  0.6435
 2331TIP3    H2 6930   1.074   1.630   4.969 -0.7749  0.6616  0.0335
 2332TIP3   OH2 6931   3.695   5.466   0.269  0.3300 -0.3051  0.1800
 2332TIP3    H1 6932   3.606   5.456   0.304  0.2646 -0.1649  0.0551
 2332TIP3    H2 6933   3.724   5.376   0.252 -0.0454 -0.3211 -0.4079
 2333TIP3   OH2 6934   8.080   6.868   1.994  0.3909 -0.3705 -0.4667
 2333TIP3    H1 6935   8.095   6.926   1.920  1.2352  0.8143  0.6021
 2333TIP3    H2 6936   8.167   6.839   2.020 -0.0368 -2.1994 -1.0462
 2334TIP3   OH2 6937   4.938   7.113   3.625  0.2683  0.7880  0.2186
 2334TIP3    H1 6938   4.972   7.072   3.705  0.6541 -0.1100 -0.4019
 2334TIP3    H2 6939   4.921   7.040   3.566 -0.1962  1.4385 -0.4592
 2335TIP3   OH2 6940   1.191   0.603   4.661 -0.0958  0.2158  0.6896
 2335TIP3    H1 6941   1.098   0.579   4.662 -0.4474  1.2647 -2.0891
 2335TIP3    H2 6942   1.191   0.699   4.658  1.0158  0.1736 -1.2914
 2336TIP3   OH2 6943   2.338   0.872   5.974  0.5515  0.3256 -0.3480
 2336TIP3    H1 6944   2.276   0.803   5.952  0.0552  1.1167 -1.4929
 2336TIP3    H2 6945   2.400   0.831   6.035 -0.2662 -0.8578 -0.3067
 2337TIP3   OH2 6946   7.518   6.910   1.991 -0.1702  0.2677 -0.1160
 2337TIP3    H1 6947   7.450   6.850   2.021 -1.5131  1.6907 -0.2764
 2337TIP3    H2 6948   7.600   6.870   2.021 -0.7915 -3.0104 -2.4790
 2338TIP3   OH2 6949   1.541   0.077   5.260 -0.3933 -0.4844  0.0871
 2338TIP3    H1 6950   1.500   0.043   5.340  0.4167  0.0368  0.7332
 2338TIP3    H2 6951   1.581   0.160   5.287  1.1136 -0.9988 -0.5061
 2339TIP3   OH2 6952   3.582   5.080   0.072 -0.0736  0.2952  0.0267
 2339TIP3    H1 6953   3.647   5.082   0.143 -0.8913  0.3847  0.7777
 2339TIP3    H2 6954   3.615   5.014   0.012  1.7754  1.7741 -0.6158
 2340TIP3   OH2 6955   6.975   7.510   5.363 -0.1632 -0.1635  0.1036
 2340TIP3    H1 6956   6.915   7.585   5.357 -0.5060 -0.5836 -2.4017
 2340TIP3    H2 6957   6.942   7.459   5.436  0.2873  2.2994  2.0836
 2341TIP3   OH2 6958   2.955   0.009   4.248  0.2286 -0.2406  0.0868
 2341TIP3    H1 6959   3.037   0.039   4.210  1.1831 -2.0928  0.6253
 2341TIP3    H2 6960   2.889   0.029   4.181  1.2329  0.4772 -0.7026
 2342TIP3   OH2 6961   2.298   2.625   3.801  0.1822 -0.1364  0.0043
 2342TIP3    H1 6962   2.208   2.598   3.783  0.0159 -0.2911  1.0554
 2342TIP3    H2 6963   2.353   2.557   3.762 -0.1729 -0.5589  0.2551
 2343TIP3   OH2 6964   0.803   2.201   4.925  0.2973  0.2426  0.0830
 2343TIP3    H1 6965   0.868   2.132   4.937  0.6248  0.7409  1.2086
 2343TIP3    H2 6966   0.719   2.155   4.932  0.5217 -0.1614  0.1596
 2344TIP3   OH2 6967   2.247   1.883   2.821  0.0037 -0.6977  0.3311
 2344TIP3    H1 6968   2.278   1.953   2.878  0.0570  0.2798 -0.8756
 2344TIP3    H2 6969   2.320   1.820   2.818  0.8437  0.2897 -0.3513
 2345TIP3   OH2 6970   7.664   6.517   5.137  0.7550  0.3009  0.0681
 2345TIP3    H1 6971   7.627   6.453   5.076  2.1475 -0.1511 -0.3168
 2345TIP3    H2 6972   7.723   6.466   5.192 -0.0508  0.8148  1.4308
 2346TIP3   OH2 6973   3.170   5.483   0.106 -0.0575 -0.7396 -0.3472
 2346TIP3    H1 6974   3.190   5.394   0.079  1.1812 -0.5842  0.0682
 2346TIP3    H2 6975   3.083   5.477   0.146  1.5886 -2.4326  3.1184
 2347TIP3   OH2 6976   5.066   6.922   6.222 -0.4221  0.0432  0.1093
 2347TIP3    H1 6977   5.035   7.008   6.193 -2.3572 -0.5806  0.2294
 2347TIP3    H2 6978   5.033   6.861   6.156 -0.1543 -0.7500  0.6999
 2348TIP3   OH2 6979   7.069   2.200   2.988 -0.2797  0.6300 -0.0661
 2348TIP3    H1 6980   7.132   2.221   3.057 -0.8684  1.1364  0.3275
 2348TIP3    H2 6981   7.023   2.122   3.021 -0.1516  0.5176 -0.1550
 2349TIP3   OH2 6982   2.203   1.875   3.484 -0.4113  0.8104 -0.5075
 2349TIP3    H1 6983   2.110   1.889   3.468 -0.2219  2.0542 -0.5412
 2349TIP3    H2 6984   2.236   1.838   3.401 -1.1145 -0.8479 -0.0629
 2350TIP3   OH2 6985   7.334   1.972   5.710 -0.0410  0.0181  0.4970
 2350TIP3    H1 6986   7.245   1.948   5.683  0.3487 -0.2294 -0.6059
 2350TIP3    H2 6987   7.351   2.055   5.665  0.4460 -0.1601  0.3453
 2351TIP3   OH2 6988   1.649   1.015   6.857 -0.2449  0.4055 -0.5411
 2351TIP3    H1 6989   1.735   0.985   6.827  0.0080  1.1693 -0.5880
 2351TIP3    H2 6990   1.662   1.107   6.878 -0.1666 -0.3387  2.8752
 2352TIP3   OH2 6991   1.939   2.959   2.126 -0.0617 -0.0032 -0.3242
 2352TIP3    H1 6992   1.871   2.897   2.102 -0.1703 -0.1639  0.3789
 2352TIP3    H2 6993   1.946   3.018   2.051 -0.8045 -0.1328 -0.4978
 2353TIP3   OH2 6994   1.866   2.397   4.715  0.1429 -0.2170 -0.3186
 2353TIP3    H1 6995   1.909   2.369   4.796 -1.2916 -0.8169  0.2625
 2353TIP3    H2 6996   1.775   2.413   4.741 -0.8578 -2.4716 -2.2173
 2354TIP3   OH2 6997   3.442   3.272   6.315  0.1688 -0.0613 -0.1675
 2354TIP3    H1 6998   3.395   3.190   6.304  1.8958 -1.0775 -0.2336
 2354TIP3    H2 6999   3.465   3.298   6.226  0.3233  0.0631 -0.0907
 2355TIP3   OH2 7000   0.362   1.652   4.949  0.0307 -0.0797 -0.1477
 2355TIP3    H1 7001   0.345   1.743   4.976  0.3407 -0.3990  1.1551
 2355TIP3    H2 7002   0.281   1.626   4.904  0.4857  1.3029 -1.8568
 2356TIP3   OH2 7003   0.812   3.000   4.605 -0.1625  0.5355  0.2176
 2356TIP3    H1 7004   0.748   3.036   4.543 -0.2731  0.7850  0.4720
 2356TIP3    H2 7005   0.890   2.982   4.552 -0.4730  0.1493 -0.1125
 2357TIP3   OH2 7006   8.252   0.902   5.494  0.3073 -0.4893  0.0721
 2357TIP3    H1 7007   8.233   0.906   5.400 -0.1807 -0.4309  0.1700
 2357TIP3    H2 7008   8.346   0.885   5.499  0.5790  0.8674 -0.4054
 2358TIP3   OH2 7009   2.746   3.284   3.824  0.6152 -0.5321 -0.4573
 2358TIP3    H1 7010   2.806   3.341   3.775 -0.2586  1.4030  0.6977
 2358TIP3    H2 7011   2.771   3.296   3.915 -0.7820 -0.5905 -0.0574
 2359TIP3   OH2 7012   0.992   1.993   4.943  0.2401  0.1879 -0.4486
 2359TIP3    H1 7013   0.973   1.900   4.959  1.1559 -0.3303 -2.1886
 2359TIP3    H2 7014   1.035   1.994   4.858 -0.0786  2.2700 -0.6121
 2360TIP3   OH2 7015   0.167   2.900   5.135 -0.6190  0.0104 -0.1292
 2360TIP3    H1 7016   0.172   2.962   5.208 -1.5762 -0.3661  0.2813
 2360TIP3    H2 7017   0.257   2.873   5.119 -0.5204 -0.8713  1.7838
 2361TIP3   OH2 7018   7.084   2.259   2.127  0.0211 -0.4565  0.2376
 2361TIP3    H1 7019   7.158   2.270   2.068 -0.2240  1.9874  0.3380
 2361TIP3    H2 7020   7.123   2.246   2.213  0.3801  1.7560  0.4435
 2362TIP3   OH2 7021   3.896   3.658   0.952 -0.3852 -0.4673  0.1454
 2362TIP3    H1 7022   3.890   3.754   0.959 -0.8226 -0.4016 -1.1003
 2362TIP3    H2 7023   3.986   3.638   0.975  0.3566  0.4610 -1.9273
 2363TIP3   OH2 7024   0.357   2.173   4.901 -0.6723 -0.2438 -0.8892
 2363TIP3    H1 7025   0.266   2.195   4.886 -1.7874 -2.0898  2.5459
 2363TIP3    H2 7026   0.400   2.256   4.922 -2.6100  0.1001  1.9975
 2364TIP3   OH2 7027   0.537   2.430   2.206  0.0438  0.1649 -0.5827
 2364TIP3    H1 7028   0.527   2.341   2.175 -0.0708 -0.3016  0.7493
 2364TIP3    H2 7029   0.569   2.479   2.130 -2.1534 -0.5039 -1.9687
 2365TIP3   OH2 7030   3.270   0.692   2.072 -0.3682  0.4452 -0.5183
 2365TIP3    H1 7031   3.175   0.696   2.083 -0.5686 -1.3234 -1.3435
 2365TIP3    H2 7032   3.306   0.721   2.156 -1.6878 -2.9688  1.3229
 2366TIP3   OH2 7033   0.653   3.086   4.818 -0.1612 -0.4275  0.1107
 2366TIP3    H1 7034   0.722   3.046   4.765  1.1734  0.9175  0.7722
 2366TIP3    H2 7035   0.630   3.165   4.771  1.7120  1.2745  1.9488
 2367TIP3   OH2 7036   1.862   0.599   6.044 -0.1629 -0.2366 -0.0478
 2367TIP3    H1 7037   1.840   0.516   6.087  1.0116 -0.4226  0.2183
 2367TIP3    H2 7038   1.873   0.661   6.116  3.4047 -0.9262  0.0970
 2368TIP3   OH2 7039   3.517   0.920   5.370 -0.2095 -0.3059 -0.3889
 2368TIP3    H1 7040   3.427   0.924   5.338  0.0864 -0.3167 -1.2156
 2368TIP3    H2 7041   3.550   1.010   5.363 -0.4378 -0.1242  0.7421
 2369TIP3   OH2 7042   1.843   0.937   4.771  0.1879  0.4537 -0.0490
 2369TIP3    H1 7043   1.762   0.925   4.820  0.1367  0.1997 -0.1948
 2369TIP3    H2 7044   1.905   0.971   4.835  0.0223  0.4577  0.1098
 2370TIP3   OH2 7045   2.976   2.264   3.961  0.3625 -0.1350  0.1083
 2370TIP3    H1 7046   2.941   2.302   4.042  0.1806  0.4799 -0.2569
 2370TIP3    H2 7047   3.065   2.237   3.983  1.6372  3.3973 -0.4953
 2371TIP3   OH2 7048   3.001   1.545   1.873 -0.1211 -0.2604  0.0062
 2371TIP3    H1 7049   3.093   1.573   1.867 -0.6078  1.2634 -0.7955
 2371TIP3    H2 7050   2.995   1.469   1.816  0.6615 -0.4191  0.1271
 2372TIP3   OH2 7051   1.633   3.254   3.927  0.0980 -0.1455  0.0516
 2372TIP3    H1 7052   1.718   3.286   3.898  0.7522 -0.2802  1.7874
 2372TIP3    H2 7053   1.594   3.328   3.974 -0.7287 -0.1026 -0.6748
 2373TIP3   OH2 7054   6.055   7.545   6.287  0.5620 -0.2513  0.1482
 2373TIP3    H1 7055   5.966   7.568   6.259 -0.3081 -0.6257  2.4562
 2373TIP3    H2 7056   6.083   7.478   6.225  0.1787  1.5320 -2.0456
 2374TIP3   OH2 7057   7.537   0.522   5.597 -0.5155 -0.2745  0.2957
 2374TIP3    H1 7058   7.520   0.430   5.576 -0.7690 -0.5646  1.7101
 2374TIP3    H2 7059   7.522   0.569   5.515 -2.8665 -1.1853  0.1791
 2375TIP3   OH2 7060   0.183   2.404   5.331 -0.4644  0.8187  0.1261
 2375TIP3    H1 7061   0.130   2.451   5.396 -1.8276 -0.7151  0.1523
 2375TIP3    H2 7062   0.258   2.462   5.315 -0.5239  1.5858  2.4348
 2376TIP3   OH2 7063   1.779   0.410   2.928 -0.1583 -0.1884  0.1073
 2376TIP3    H1 7064   1.801   0.499   2.901 -1.5758  0.2389  0.3002
 2376TIP3    H2 7065   1.858   0.359   2.910  1.3121  1.4560  1.6460
 2377TIP3   OH2 7066   7.577   1.810   6.075 -0.4507 -0.1309  0.2384
 2377TIP3    H1 7067   7.611   1.727   6.042  0.8137  0.1127  0.8785
 2377TIP3    H2 7068   7.558   1.861   5.997  1.1607 -0.0953 -0.1625
 2378TIP3   OH2 7069   1.398   1.577   5.291  0.5496 -0.1035 -0.3826
 2378TIP3    H1 7070   1.308   1.557   5.316  0.0162  2.1473 -0.3907
 2378TIP3    H2 7071   1.389   1.645   5.223  2.2099 -0.7439 -1.2673
 2379TIP3   OH2 7072   0.612   2.366   5.096 -0.0180  0.0921 -0.5874
 2379TIP3    H1 7073   0.700   2.362   5.057 -0.1540 -0.5884 -0.8359
 2379TIP3    H2 7074   0.554   2.386   5.023 -0.0607  0.6346 -0.4056
 2380TIP3   OH2 7075   8.109   1.259   4.877  0.2807 -0.1262  0.3309
 2380TIP3    H1 7076   8.018   1.277   4.855  0.8853 -0.1246 -2.3786
 2380TIP3    H2 7077   8.140   1.339   4.918  0.7469  2.3246 -4.4647
 2381TIP3   OH2 7078   7.533   2.426   5.106  0.3487 -0.1150  0.2654
 2381TIP3    H1 7079   7.510   2.449   5.196 -0.1474 -2.6263  0.8196
 2381TIP3    H2 7080   7.480   2.485   5.052  0.7347  1.4920  1.5939
 2382TIP3   OH2 7081   1.470   1.443   2.527 -0.3339  0.2503 -0.2889
 2382TIP3    H1 7082   1.560   1.419   2.548 -0.8611 -1.1625  0.4175
 2382TIP3    H2 7083   1.463   1.534   2.554  1.2212  0.7436 -1.4598
 2383TIP3   OH2 7084   2.332   0.525   5.216 -0.3455 -0.5456  0.1510
 2383TIP3    H1 7085   2.321   0.430   5.229  0.6670 -0.6372  0.4008
 2383TIP3    H2 7086   2.329   0.562   5.304  1.1643 -0.5654  0.2198
 2384TIP3   OH2 7087   1.544   1.995   5.490  0.0904 -0.1209 -0.6391
 2384TIP3    H1 7088   1.532   2.063   5.556  0.3551  1.8654 -2.5660
 2384TIP3    H2 7089   1.456   1.960   5.476 -0.6954  2.3452 -2.1928
 2385TIP3   OH2 7090   8.228   0.788   6.335  0.4698  0.2243  0.1062
 2385TIP3    H1 7091   8.257   0.786   6.426 -0.2495 -2.0141  0.3025
 2385TIP3    H2 7092   8.170   0.864   6.331  2.1635  1.6044  0.9667
 2386TIP3   OH2 7093   2.482   1.787   2.370 -0.2370 -0.1226 -0.4773
 2386TIP3    H1 7094   2.469   1.700   2.331  0.8498 -0.6301  0.2839
 2386TIP3    H2 7095   2.477   1.847   2.295 -0.1066 -0.9088 -1.1282
 2387TIP3   OH2 7096   2.182   2.574   5.545 -0.3848 -0.7547 -0.3519
 2387TIP3    H1 7097   2.180   2.577   5.449  0.6737  0.8142 -0.3445
 2387TIP3    H2 7098   2.258   2.627   5.569 -0.2941 -1.6284  1.3421
 2388TIP3   OH2 7099   0.423   0.361   5.285 -0.0755  0.0485  0.1187
 2388TIP3    H1 7100   0.414   0.439   5.230 -1.3495 -0.7097 -0.7643
 2388TIP3    H2 7101   0.493   0.311   5.245 -0.8682 -0.4066 -0.7033
 2389TIP3   OH2 7102   0.048   2.562   6.209  0.0164 -0.3896  0.0601
 2389TIP3    H1 7103   0.020   2.504   6.137  1.1506 -0.0426 -0.6738
 2389TIP3    H2 7104   0.134   2.592   6.183  1.5204 -2.1851  2.7101
 2390TIP3   OH2 7105   1.212   0.632   6.082  0.0901 -0.4940 -0.5353
 2390TIP3    H1 7106   1.242   0.557   6.029  1.0084 -1.4014  1.2217
 2390TIP3    H2 7107   1.121   0.612   6.102  0.8884 -2.1796  1.6074
 2391TIP3   OH2 7108   3.752   3.404   3.280 -0.0022  0.5152 -0.0007
 2391TIP3    H1 7109   3.828   3.346   3.272  1.4981  2.4758 -0.2982
 2391TIP3    H2 7110   3.757   3.460   3.203 -2.2195  0.1714 -0.4337
 2392TIP3   OH2 7111   2.047   1.411   4.780 -0.1231 -0.1561  0.2515
 2392TIP3    H1 7112   2.029   1.449   4.693 -2.7386  0.1308  0.8769
 2392TIP3    H2 7113   1.963   1.377   4.809  1.2854 -2.5786  1.6069
 2393TIP3   OH2 7114   0.813   1.065   6.191 -0.3447  0.0999  0.2468
 2393TIP3    H1 7115   0.773   1.143   6.153  0.7815 -0.3274 -1.9144
 2393TIP3    H2 7116   0.746   0.997   6.184 -0.5105  0.2925 -0.0454
 2394TIP3   OH2 7117   3.240   6.147   0.030  0.0992  0.3992 -0.2022
 2394TIP3    H1 7118   3.251   6.233   0.071  0.0353  0.1655  0.3056
 2394TIP3    H2 7119   3.272   6.085   0.095  2.0982  0.1541 -1.3700
 2395TIP3   OH2 7120   0.671   2.360   3.472 -0.2976 -0.2802  0.8866
 2395TIP3    H1 7121   0.651   2.419   3.399 -0.2377 -0.6737  0.5542
 2395TIP3    H2 7122   0.752   2.316   3.447 -0.7960 -1.1303  0.7593
 2396TIP3   OH2 7123   1.819   1.255   4.830  0.3148  0.2507  0.1962
 2396TIP3    H1 7124   1.884   1.198   4.872  0.7338 -0.5215 -1.4334
 2396TIP3    H2 7125   1.737   1.237   4.877  0.1656 -2.6737 -1.0498
 2397TIP3   OH2 7126   0.537   2.203   2.045  0.5466  0.4096 -0.0804
 2397TIP3    H1 7127   0.598   2.131   2.027 -0.1052  0.0313 -0.7652
 2397TIP3    H2 7128   0.452   2.161   2.053  0.0808  1.1706 -1.0237
 2398TIP3   OH2 7129   2.164   1.878   4.105  0.1166  0.1444 -0.4683
 2398TIP3    H1 7130   2.219   1.853   4.179  0.4591  1.6105 -0.2214
 2398TIP3    H2 7131   2.101   1.939   4.141  0.8926  1.6203 -1.5656
 2399TIP3   OH2 7132   3.083   1.927   6.044 -0.1379 -0.1772  0.1044
 2399TIP3    H1 7133   3.013   1.980   6.006 -0.0494 -0.4346 -0.4205
 2399TIP3    H2 7134   3.136   1.900   5.969  1.8166  1.8369  0.6826
 2400TIP3   OH2 7135   2.580   1.138   5.390 -0.8635  0.1825  0.1779
 2400TIP3    H1 7136   2.669   1.102   5.400 -0.0706  1.9115 -0.5395
 2400TIP3    H2 7137   2.578   1.213   5.449 -1.5135  0.7304 -0.5344
 2401TIP3   OH2 7138   1.006   2.078   1.272  0.2658  0.2220  0.0331
 2401TIP3    H1 7139   1.051   2.035   1.199 -0.3468  1.2204 -0.9405
 2401TIP3    H2 7140   1.068   2.071   1.345  0.8837 -0.7856 -0.5717
 2402TIP3   OH2 7141   1.633   0.599   5.882 -0.0510  0.0634 -0.7007
 2402TIP3    H1 7142   1.614   0.675   5.826 -0.0067  0.4126 -0.2441
 2402TIP3    H2 7143   1.712   0.624   5.931  0.3125 -0.5169 -0.9870
 2403TIP3   OH2 7144   1.696   3.203   1.747 -0.7598  0.3593  0.4121
 2403TIP3    H1 7145   1.684   3.227   1.655 -1.5407 -0.5410  0.2660
 2403TIP3    H2 7146   1.787   3.173   1.752 -1.0010 -0.5163 -0.2908
 2404TIP3   OH2 7147   3.309   2.688   2.170  0.4630 -0.5981  0.6767
 2404TIP3    H1 7148   3.383   2.630   2.149  0.9909  0.5432 -0.7087
 2404TIP3    H2 7149   3.300   2.744   2.093  0.7049  1.9251  2.4208
 2405TIP3   OH2 7150   6.212   1.655   3.321  0.1190 -0.0369  0.0887
 2405TIP3    H1 7151   6.189   1.720   3.255  0.0426 -0.3914 -0.2318
 2405TIP3    H2 7152   6.269   1.702   3.382  3.0890 -0.6113 -2.1142
 2406TIP3   OH2 7153   1.924   1.359   6.512 -0.3055  0.2260  0.0170
 2406TIP3    H1 7154   1.862   1.382   6.581 -0.3106  0.1192  0.0481
 2406TIP3    H2 7155   1.953   1.271   6.534  0.0108  0.3497  0.1127
 2407TIP3   OH2 7156   2.026   2.554   4.962 -0.3395 -0.5626  0.0016
 2407TIP3    H1 7157   1.952   2.610   4.939 -0.1091 -0.7038 -1.1027
 2407TIP3    H2 7158   1.988   2.487   5.019 -1.0719 -0.6560 -0.5878
 2408TIP3   OH2 7159   1.320   0.313   2.785  0.3669 -1.0575  0.7837
 2408TIP3    H1 7160   1.356   0.391   2.742 -0.6644 -0.0723  1.6562
 2408TIP3    H2 7161   1.232   0.304   2.749 -0.7167  0.1032  3.0234
 2409TIP3   OH2 7162   2.305   0.817   2.093 -0.2452 -0.3308 -0.0015
 2409TIP3    H1 7163   2.313   0.878   2.020 -1.6054  0.1365  0.2263
 2409TIP3    H2 7164   2.366   0.747   2.072  0.4719  0.5265 -0.8474
 2410TIP3   OH2 7165   2.316   0.631   4.952  0.5565 -0.6385 -0.1043
 2410TIP3    H1 7166   2.316   0.624   5.048 -0.9388 -0.2287 -0.0719
 2410TIP3    H2 7167   2.224   0.622   4.927  1.0460 -1.7898 -1.5865
 2411TIP3   OH2 7168   2.640   0.644   5.188  0.6067  0.4104 -0.3216
 2411TIP3    H1 7169   2.695   0.585   5.239  0.4113  0.6637  0.1844
 2411TIP3    H2 7170   2.645   0.610   5.099 -0.4160 -1.0382  0.1605
 2412TIP3   OH2 7171   3.573   2.587   2.636  0.0918  0.1771  0.2429
 2412TIP3    H1 7172   3.605   2.635   2.560 -0.7885  1.8437  0.9173
 2412TIP3    H2 7173   3.507   2.527   2.601 -0.3943  1.0209 -0.3047
 2413TIP3   OH2 7174   1.120   2.224   4.736 -0.2564  0.3820 -0.0984
 2413TIP3    H1 7175   1.071   2.160   4.684 -0.7007 -0.4958  1.3399
 2413TIP3    H2 7176   1.184   2.171   4.784 -0.3665  1.0669  0.8195
 2414TIP3   OH2 7177   0.452   2.564   3.614 -0.2638 -0.2064  0.2771
 2414TIP3    H1 7178   0.420   2.580   3.526 -1.3112 -1.0046  0.5065
 2414TIP3    H2 7179   0.493   2.478   3.610 -1.1525 -0.6583  0.7906
 2415TIP3   OH2 7180   1.484   1.806   4.917 -0.7362 -0.4129 -0.4108
 2415TIP3    H1 7181   1.548   1.833   4.852  0.7559  0.0904  1.2100
 2415TIP3    H2 7182   1.440   1.731   4.878  0.7042 -0.6400 -1.6472
 2416TIP3   OH2 7183   7.929   2.299   6.060  0.2897 -0.4684  0.2023
 2416TIP3    H1 7184   7.946   2.393   6.048  0.8723 -0.5177  0.6087
 2416TIP3    H2 7185   7.979   2.276   6.138 -0.2991 -0.9984  0.4232
 2417TIP3   OH2 7186   0.543   5.403   5.700 -0.0503  0.1087  0.4096
 2417TIP3    H1 7187   0.579   5.417   5.788  1.0162 -1.4396  0.2426
 2417TIP3    H2 7188   0.485   5.327   5.709 -2.8885  2.2180  0.5381
 2418TIP3   OH2 7189   1.334   1.591   2.823  0.0594 -1.0984 -0.3489
 2418TIP3    H1 7190   1.348   1.617   2.732 -1.0246 -1.7332 -0.7092
 2418TIP3    H2 7191   1.263   1.647   2.853  0.0155 -1.2983 -0.0769
 2419TIP3   OH2 7192   2.079   1.416   3.998 -0.2293 -0.1933 -0.0152
 2419TIP3    H1 7193   2.009   1.364   4.036  1.8880 -1.1759  2.7054
 2419TIP3    H2 7194   2.098   1.374   3.914 -2.0158 -0.6625 -0.1933
 2420TIP3   OH2 7195   6.430   1.654   5.576  0.3755 -0.3082 -0.1360
 2420TIP3    H1 7196   6.524   1.639   5.570  0.2776 -0.6620 -0.8753
 2420TIP3    H2 7197   6.406   1.624   5.663  1.1036  0.6568  0.4080
 2421TIP3   OH2 7198   8.243   1.139   5.682 -0.2054 -0.8245 -0.0600
 2421TIP3    H1 7199   8.175   1.075   5.661 -0.8883  0.2607 -1.1706
 2421TIP3    H2 7200   8.277   1.166   5.597 -0.1820  0.5778  0.3911
 2422TIP3   OH2 7201   7.983   3.792   4.739  0.9877  0.4211 -0.0830
 2422TIP3    H1 7202   8.068   3.753   4.718  0.4329 -0.1463 -1.3289
 2422TIP3    H2 7203   7.919   3.725   4.713  0.1328  1.1237  0.1900
 2423TIP3   OH2 7204   8.378   0.116   4.858  0.0876  0.6632 -0.3961
 2423TIP3    H1 7205   8.455   0.149   4.812 -0.0758  1.2690 -0.2372
 2423TIP3    H2 7206   8.413   0.076   4.937  0.3661 -0.3306 -1.0158
 2424TIP3   OH2 7207   0.377   3.066   4.523 -0.2118  0.4233  0.0359
 2424TIP3    H1 7208   0.365   3.044   4.430 -0.9548  0.7344  0.0537
 2424TIP3    H2 7209   0.414   2.987   4.561 -0.0570  0.2318 -0.4980
 2425TIP3   OH2 7210   7.628   2.075   4.863 -0.4752 -0.2393 -0.4350
 2425TIP3    H1 7211   7.671   2.090   4.779 -1.6938 -1.3282 -1.2645
 2425TIP3    H2 7212   7.679   2.127   4.925  1.0614 -0.2383 -1.6655
 2426TIP3   OH2 7213   1.880   1.121   3.382  0.4396 -0.1406  0.1097
 2426TIP3    H1 7214   1.814   1.179   3.342 -0.4176 -2.0162 -1.2726
 2426TIP3    H2 7215   1.961   1.172   3.379 -0.4017  1.1973 -0.5879
 2427TIP3   OH2 7216   1.176   1.526   6.347  0.6371 -0.1356 -0.3262
 2427TIP3    H1 7217   1.182   1.465   6.420  2.5868 -0.2882 -0.5941
 2427TIP3    H2 7218   1.174   1.613   6.388 -0.2449 -0.2805 -0.0349
 2428TIP3   OH2 7219   2.501   0.974   4.154  0.4996  0.2861 -0.1835
 2428TIP3    H1 7220   2.515   0.883   4.127 -1.4589 -0.3466  0.8185
 2428TIP3    H2 7221   2.541   1.026   4.085  2.8679 -1.3426 -0.0845
 2429TIP3   OH2 7222   0.110   7.680   2.341  0.6045 -0.4232  0.2015
 2429TIP3    H1 7223   0.084   7.763   2.380  0.3412 -0.2048 -0.4325
 2429TIP3    H2 7224   0.203   7.672   2.360  0.6198 -0.0018  0.2903
 2430TIP3   OH2 7225   1.484   2.305   3.343 -0.1179 -0.6854 -0.1623
 2430TIP3    H1 7226   1.549   2.246   3.382  0.8601  0.6133  0.2047
 2430TIP3    H2 7227   1.401   2.279   3.383  0.8668  0.6748  2.9023
 2431TIP3   OH2 7228   0.761   3.061   4.325  0.0287 -0.3952  0.4201
 2431TIP3    H1 7229   0.686   3.081   4.269  0.2297 -0.1350  0.2394
 2431TIP3    H2 7230   0.796   3.147   4.348  0.2726 -0.5174  0.5029
 2432TIP3   OH2 7231   1.392   3.440   0.960 -0.3956 -0.0979  0.1260
 2432TIP3    H1 7232   1.331   3.505   0.924  0.8349  0.0750 -1.6790
 2432TIP3    H2 7233   1.416   3.474   1.046 -0.5872  1.2992 -0.3706
 2433TIP3   OH2 7234   2.019   1.834   6.583  0.1063 -0.0156 -0.1921
 2433TIP3    H1 7235   1.927   1.861   6.579 -0.0137 -0.5722 -1.4949
 2433TIP3    H2 7236   2.028   1.772   6.511  1.3701 -0.3841  0.2829
 2434TIP3   OH2 7237   1.133   2.063   4.200  0.2975  0.0860  0.3323
 2434TIP3    H1 7238   1.228   2.062   4.210  0.2023 -0.8598  1.2241
 2434TIP3    H2 7239   1.109   2.155   4.203  1.1483  0.3072  0.4602
 2435TIP3   OH2 7240   2.875   2.753   3.098 -0.3055 -0.5577 -0.1297
 2435TIP3    H1 7241   2.863   2.708   3.015  1.0602 -2.6336  0.7502
 2435TIP3    H2 7242   2.934   2.826   3.079 -1.6486  0.2263 -1.3587
 2436TIP3   OH2 7243   0.939   1.695   5.216 -0.3686 -0.0787 -0.2310
 2436TIP3    H1 7244   0.974   1.771   5.261  1.8760 -0.9187 -0.4853
 2436TIP3    H2 7245   0.945   1.717   5.123 -1.1260  0.0312 -0.2524
 2437TIP3   OH2 7246   7.661   7.918   4.717 -0.5524 -0.1987 -0.1544
 2437TIP3    H1 7247   7.692   7.899   4.629 -1.1908 -1.3899 -0.1384
 2437TIP3    H2 7248   7.608   7.997   4.708 -0.0780  0.0601 -0.7147
 2438TIP3   OH2 7249   2.583   3.543   2.010 -0.0564 -0.5457  0.1915
 2438TIP3    H1 7250   2.532   3.624   2.002  0.1317 -0.4916 -0.5134
 2438TIP3    H2 7251   2.613   3.526   1.921 -0.6447 -1.7455  0.2217
 2439TIP3   OH2 7252   1.607   1.147   2.340  0.0534  0.2575 -0.7577
 2439TIP3    H1 7253   1.562   1.069   2.372 -0.0683  0.9974  0.9366
 2439TIP3    H2 7254   1.645   1.121   2.256  0.3045 -1.7149 -0.0444
 2440TIP3   OH2 7255   3.395   2.478   2.865 -0.1698 -0.3037  0.7788
 2440TIP3    H1 7256   3.317   2.528   2.841  0.0237  0.2491  1.2917
 2440TIP3    H2 7257   3.454   2.491   2.791  0.7781  2.1459  1.9054
 2441TIP3   OH2 7258   0.863   1.548   5.961 -0.0885  0.4272 -0.0177
 2441TIP3    H1 7259   0.935   1.533   6.022  0.7061  0.6497 -0.8990
 2441TIP3    H2 7260   0.844   1.642   5.970  0.8863  0.7319 -1.0449
 2442TIP3   OH2 7261   4.079   3.631   2.513  0.0263  0.2596 -0.2574
 2442TIP3    H1 7262   4.136   3.654   2.587 -1.6705 -1.6437  1.7202
 2442TIP3    H2 7263   4.042   3.714   2.484  0.3749  0.9876  1.3319
 2443TIP3   OH2 7264   0.818   7.826   2.400  0.3492  0.0204  0.5021
 2443TIP3    H1 7265   0.741   7.824   2.457 -0.6684  1.2035 -0.7929
 2443TIP3    H2 7266   0.829   7.735   2.373 -1.6630  0.0940 -0.6638
 2444TIP3   OH2 7267   3.511   0.558   4.021  0.2163  0.2132  0.0784
 2444TIP3    H1 7268   3.418   0.576   4.007  0.0815 -0.4478  0.1139
 2444TIP3    H2 7269   3.539   0.624   4.084 -0.7008 -0.7799  1.5717
 2445TIP3   OH2 7270   4.361   1.474   4.085  0.3033 -0.4673 -0.3951
 2445TIP3    H1 7271   4.303   1.508   4.153 -0.9790  0.7035 -2.0140
 2445TIP3    H2 7272   4.416   1.548   4.060  1.0220 -0.9898 -0.3768
 2446TIP3   OH2 7273   0.842   7.517   3.486 -0.0230 -0.8726 -0.1464
 2446TIP3    H1 7274   0.864   7.610   3.479  0.0336 -0.8395  0.4871
 2446TIP3    H2 7275   0.751   7.512   3.456  0.3068 -0.7660 -1.1709
 2447TIP3   OH2 7276   3.715   1.224   3.822 -0.8486 -0.3799 -0.3510
 2447TIP3    H1 7277   3.640   1.258   3.870  1.0875  2.1345  1.0391
 2447TIP3    H2 7278   3.767   1.301   3.801  0.8248 -1.9536 -2.2252
 2448TIP3   OH2 7279   2.894   1.415   4.900  0.2474  0.6079 -0.5440
 2448TIP3    H1 7280   2.927   1.369   4.823 -1.9853 -1.8040 -0.1140
 2448TIP3    H2 7281   2.888   1.506   4.873  1.3064  0.1019 -2.5905
 2449TIP3   OH2 7282   1.832   0.926   5.551 -0.2272  0.3308 -0.2671
 2449TIP3    H1 7283   1.888   0.848   5.555 -0.1163  0.2574 -2.8968
 2449TIP3    H2 7284   1.893   0.999   5.549 -0.3249  0.4750  1.0629
 2450TIP3   OH2 7285   3.695   3.121   4.261  0.1936  0.1897  0.3284
 2450TIP3    H1 7286   3.790   3.108   4.260  0.1812  0.1299 -1.1007
 2450TIP3    H2 7287   3.662   3.065   4.190 -0.7358  1.4554 -0.2662
 2451TIP3   OH2 7288   2.867   2.006   4.007 -0.1104  0.1687 -0.2387
 2451TIP3    H1 7289   2.853   1.953   3.929 -1.0488  0.0903 -0.0238
 2451TIP3    H2 7290   2.919   2.080   3.976  1.1609 -0.8336 -0.5484
 2452TIP3   OH2 7291   3.214   3.197   1.697 -0.7782 -0.5114  0.3999
 2452TIP3    H1 7292   3.210   3.205   1.792  0.0750  0.8946  0.3192
 2452TIP3    H2 7293   3.264   3.273   1.668 -1.5908 -0.5849 -1.2327
 2453TIP3   OH2 7294   2.877   0.799   4.090  0.0975 -0.5544 -0.0576
 2453TIP3    H1 7295   2.891   0.775   3.999  1.5606 -0.1250  0.0322
 2453TIP3    H2 7296   2.965   0.817   4.124 -0.4751 -0.1810  1.2858
 2454TIP3   OH2 7297   3.480   3.483   2.001  0.0347  0.0253  0.1741
 2454TIP3    H1 7298   3.455   3.410   1.945  2.2145 -0.5322 -0.0892
 2454TIP3    H2 7299   3.534   3.539   1.945 -0.1611  0.9453  0.8910
 2455TIP3   OH2 7300   4.638   1.865   4.405 -0.3374 -0.2532 -0.0263
 2455TIP3    H1 7301   4.685   1.895   4.327 -0.0896 -0.1665  0.1585
 2455TIP3    H2 7302   4.645   1.938   4.467 -0.5233 -0.3283  0.0825
 2456TIP3   OH2 7303   2.954   0.641   5.248 -0.4729  0.2686 -0.0914
 2456TIP3    H1 7304   2.897   0.717   5.237 -0.2251  0.6320  1.0762
 2456TIP3    H2 7305   2.995   0.654   5.333  0.8053 -0.3614 -0.6045
 2457TIP3   OH2 7306   4.354   3.069   3.375  0.3785 -1.0955  0.0268
 2457TIP3    H1 7307   4.338   3.080   3.469 -1.3649 -2.7391 -0.0462
 2457TIP3    H2 7308   4.283   3.118   3.333  2.5646  1.7401 -0.5114
 2458TIP3   OH2 7309   0.906   1.155   2.316 -0.3787 -0.3847  0.5334
 2458TIP3    H1 7310   0.865   1.145   2.230  0.8475  0.5895 -0.1770
 2458TIP3    H2 7311   0.867   1.235   2.352 -0.1693 -0.2520  0.4663
 2459TIP3   OH2 7312   3.163   1.336   4.457 -0.0155  0.3127 -0.4296
 2459TIP3    H1 7313   3.259   1.333   4.446 -0.0489  1.4819 -1.2474
 2459TIP3    H2 7314   3.129   1.288   4.382 -0.0908  1.6586 -1.2865
 2460TIP3   OH2 7315   2.782   0.597   1.395 -0.2442 -0.0652  0.2760
 2460TIP3    H1 7316   2.774   0.516   1.345 -1.7688 -0.5553  1.2969
 2460TIP3    H2 7317   2.876   0.614   1.397  0.0340 -1.4301 -0.5519
 2461TIP3   OH2 7318   1.918   1.582   3.727  0.2041 -0.1413  0.9634
 2461TIP3    H1 7319   1.850   1.645   3.705  0.4762  0.2665  1.2777
 2461TIP3    H2 7320   1.959   1.617   3.806  0.4078 -0.6750  1.1001
 2462TIP3   OH2 7321   5.193   3.332   2.445 -0.4466 -0.8716  1.1827
 2462TIP3    H1 7322   5.100   3.352   2.442 -0.2755 -0.1390  0.6933
 2462TIP3    H2 7323   5.202   3.250   2.397 -0.5285  0.2629 -0.8187
 2463TIP3   OH2 7324   3.704   2.178   5.044 -0.1398  0.5566 -0.2667
 2463TIP3    H1 7325   3.635   2.188   5.109 -0.5332  1.5849 -0.8174
 2463TIP3    H2 7326   3.785   2.194   5.092 -0.2492 -1.1165  0.4796
 2464TIP3   OH2 7327   2.150   4.652   2.766 -0.1793 -0.3600 -0.8198
 2464TIP3    H1 7328   2.210   4.590   2.724  0.4424  0.7696 -1.6300
 2464TIP3    H2 7329   2.069   4.646   2.714 -0.6123 -1.5151 -0.0320
 2465TIP3   OH2 7330   3.751   0.573   1.147 -0.0588 -0.3067  0.0960
 2465TIP3    H1 7331   3.766   0.505   1.213 -2.1630  1.8930  2.9238
 2465TIP3    H2 7332   3.672   0.545   1.101 -0.7911  0.0830  1.1033
 2466TIP3   OH2 7333   1.116   1.680   0.616 -0.6856 -0.1751  0.1072
 2466TIP3    H1 7334   1.190   1.620   0.628 -0.7358 -0.4982 -1.1667
 2466TIP3    H2 7335   1.133   1.723   0.532 -0.0457  2.4555  1.5013
 2467TIP3   OH2 7336   3.970   1.207   5.129  0.2225 -0.3992 -0.1290
 2467TIP3    H1 7337   4.028   1.193   5.054 -1.5232 -0.5352 -1.4723
 2467TIP3    H2 7338   3.923   1.124   5.139  1.5211 -0.9134  2.0957
 2468TIP3   OH2 7339   4.101   1.735   3.193 -0.3521  0.0760  0.1296
 2468TIP3    H1 7340   4.014   1.714   3.228 -1.5256 -0.4599 -2.8617
 2468TIP3    H2 7341   4.137   1.799   3.253 -2.3095 -0.6242  2.1241
 2469TIP3   OH2 7342   3.540   1.504   3.647  0.1857 -0.9768 -0.0556
 2469TIP3    H1 7343   3.553   1.424   3.595 -0.5505 -1.1200 -0.0217
 2469TIP3    H2 7344   3.629   1.538   3.660  0.5315 -1.9518  0.1936
 2470TIP3   OH2 7345   2.777   3.127   2.904 -0.6129 -0.5420 -0.3379
 2470TIP3    H1 7346   2.789   3.218   2.876  0.4301 -0.6858 -0.3980
 2470TIP3    H2 7347   2.857   3.082   2.874 -1.1589 -1.4959 -0.3894
 2471TIP3   OH2 7348   2.985   1.323   1.717  0.3802 -0.6982 -0.6983
 2471TIP3    H1 7349   3.080   1.320   1.707  0.4017 -1.2272 -0.3654
 2471TIP3    H2 7350   2.957   1.232   1.708 -0.0343 -0.6184 -0.2333
 2472TIP3   OH2 7351   1.764   3.227   4.642 -0.7297 -0.1984 -0.1440
 2472TIP3    H1 7352   1.763   3.281   4.721 -0.6545 -1.6506  0.8519
 2472TIP3    H2 7353   1.672   3.224   4.614 -0.6879  0.7350 -0.4229
 2473TIP3   OH2 7354   2.557   3.391   2.238 -0.1497  0.2781  0.0951
 2473TIP3    H1 7355   2.578   3.437   2.157  0.0091  1.1424  0.6203
 2473TIP3    H2 7356   2.473   3.428   2.266 -0.3016 -0.1574  0.2157
 2474TIP3   OH2 7357   3.454   1.277   3.899  0.5594 -0.2890  0.1433
 2474TIP3    H1 7358   3.417   1.365   3.893  1.6891  0.0886 -1.6122
 2474TIP3    H2 7359   3.417   1.231   3.823  0.0430 -1.3260  0.9970
 2475TIP3   OH2 7360   3.338   2.744   2.907  0.1775  0.2910  0.0153
 2475TIP3    H1 7361   3.432   2.752   2.891  0.4515 -2.1619  0.3361
 2475TIP3    H2 7362   3.330   2.676   2.974 -1.7823  1.1751  0.7227
 2476TIP3   OH2 7363   1.808   2.945   3.645  0.4231 -0.3773 -0.2337
 2476TIP3    H1 7364   1.877   2.924   3.582 -0.6197 -0.8082 -1.2532
 2476TIP3    H2 7365   1.852   2.944   3.730  1.5238 -1.4156 -0.7953
 2477TIP3   OH2 7366   3.187   1.528   3.939 -0.1040 -0.0733 -0.0489
 2477TIP3    H1 7367   3.279   1.549   3.922 -0.0270  0.3174  0.8446
 2477TIP3    H2 7368   3.138   1.596   3.893  0.0932  0.5917  0.7093
 2478TIP3   OH2 7369   4.780   5.512   6.528  0.1605 -0.3283  0.5923
 2478TIP3    H1 7370   4.855   5.504   6.587  0.0372  0.1687  0.8172
 2478TIP3    H2 7371   4.802   5.455   6.454  1.4252  0.9121 -0.0360
 2479TIP3   OH2 7372   4.688   2.593   1.734 -0.0269  0.4698  0.1248
 2479TIP3    H1 7373   4.632   2.580   1.657  1.4054 -1.5722 -0.5965
 2479TIP3    H2 7374   4.626   2.599   1.807 -1.2545 -0.8660 -0.7728
 2480TIP3   OH2 7375   0.471   3.011   5.530 -0.5801 -0.1316  0.4213
 2480TIP3    H1 7376   0.439   2.925   5.558 -1.6366 -0.4867 -1.7695
 2480TIP3    H2 7377   0.396   3.069   5.542 -0.7170 -0.0796 -0.6606
 2481TIP3   OH2 7378   1.776   2.852   6.189  0.3453  0.0433  0.4872
 2481TIP3    H1 7379   1.807   2.821   6.274  0.1562 -0.2925  0.4368
 2481TIP3    H2 7380   1.694   2.804   6.174  3.4945 -4.7633 -2.8022
 2482TIP3   OH2 7381   4.059   3.793   3.555 -0.5347  0.3993  0.4043
 2482TIP3    H1 7382   4.072   3.701   3.576 -0.3127  0.1780 -0.6678
 2482TIP3    H2 7383   4.136   3.837   3.592 -0.0995 -0.0017 -0.0016
 2483TIP3   OH2 7384   3.525   3.733   4.326  0.0515  0.6446  0.6555
 2483TIP3    H1 7385   3.607   3.691   4.299  0.6331  2.0901  0.1505
 2483TIP3    H2 7386   3.471   3.734   4.247 -1.2900 -2.1894  1.4847
 2484TIP3   OH2 7387   1.282   2.934   4.811  0.0445  0.3256 -0.7084
 2484TIP3    H1 7388   1.216   3.004   4.806 -0.9462 -0.6056 -0.9764
 2484TIP3    H2 7389   1.241   2.868   4.867 -0.0622 -1.1089 -2.4385
 2485TIP3   OH2 7390   2.330   2.259   3.231 -0.2736  0.6852  0.6150
 2485TIP3    H1 7391   2.235   2.246   3.237 -0.1908  0.7673  2.0890
 2485TIP3    H2 7392   2.365   2.221   3.311  0.9439  0.7263  0.1140
 2486TIP3   OH2 7393   1.693   1.724   5.717  0.1384  0.1921  0.7284
 2486TIP3    H1 7394   1.603   1.704   5.742  0.3383 -0.3463  1.0238
 2486TIP3    H2 7395   1.742   1.645   5.739  0.8241  0.7651  1.3053
 2487TIP3   OH2 7396   3.631   4.145   1.947 -0.1434 -0.1903  0.2560
 2487TIP3    H1 7397   3.628   4.231   1.989 -1.7663 -0.9172  1.7147
 2487TIP3    H2 7398   3.565   4.149   1.878 -0.6177 -0.4184  0.6861
 2488TIP3   OH2 7399   2.747   1.960   4.826 -0.1133  0.4140  0.0441
 2488TIP3    H1 7400   2.723   1.940   4.735  0.2788  1.7798 -0.3786
 2488TIP3    H2 7401   2.684   2.026   4.853 -0.0191  0.2490  0.6565
 2489TIP3   OH2 7402   1.340   1.971   3.225 -0.9612 -0.3029 -0.2039
 2489TIP3    H1 7403   1.253   2.010   3.236 -1.1840 -0.5397 -1.0258
 2489TIP3    H2 7404   1.370   2.005   3.140 -1.1003 -1.7836 -0.8658
 2490TIP3   OH2 7405   1.721   0.162   2.682 -0.3840  0.1108 -0.4891
 2490TIP3    H1 7406   1.717   0.152   2.777 -2.4116 -0.2029 -0.5848
 2490TIP3    H2 7407   1.650   0.107   2.649 -0.5314  1.2247 -2.1071
 2491TIP3   OH2 7408   8.410   7.120   3.615  0.6463  0.0873 -0.0087
 2491TIP3    H1 7409   8.361   7.155   3.689  0.4476 -0.8490  0.3177
 2491TIP3    H2 7410   8.391   7.026   3.617  0.0994  0.1426 -1.6520
 2492TIP3   OH2 7411   3.783   0.560   5.570 -0.6787 -0.5791 -0.0020
 2492TIP3    H1 7412   3.832   0.540   5.490  0.3679 -1.3712  0.8213
 2492TIP3    H2 7413   3.830   0.635   5.608 -1.4203  0.0585 -0.3375
 2493TIP3   OH2 7414   3.865   1.100   2.506 -0.6282 -0.7291 -0.1412
 2493TIP3    H1 7415   3.770   1.094   2.506 -0.5504 -2.0070 -0.1220
 2493TIP3    H2 7416   3.889   1.104   2.413 -0.8036  1.5244 -0.1153
 2494TIP3   OH2 7417   2.526   1.791   1.921  0.2202  0.0575  0.2127
 2494TIP3    H1 7418   2.615   1.766   1.948  0.1679 -0.0074  0.3262
 2494TIP3    H2 7419   2.532   1.885   1.904  0.2711  0.0875  0.3888
 2495TIP3   OH2 7420   3.222   1.796   3.816 -0.4232 -0.1023 -0.2932
 2495TIP3    H1 7421   3.234   1.885   3.784  1.8126  0.2630  1.4101
 2495TIP3    H2 7422   3.244   1.740   3.742 -0.5989  0.7424 -0.9879
 2496TIP3   OH2 7423   7.244   6.741   2.415  0.2808  0.0273  0.4308
 2496TIP3    H1 7424   7.228   6.696   2.498  2.6957 -1.3402  0.1843
 2496TIP3    H2 7425   7.207   6.682   2.349 -1.7793  1.1854  0.4802
 2497TIP3   OH2 7426   1.126   0.798   3.737  0.3662  0.1538 -0.6683
 2497TIP3    H1 7427   1.038   0.807   3.774  1.0701  0.0986  1.0727
 2497TIP3    H2 7428   1.113   0.747   3.657 -1.0502 -0.8719  0.1890
 2498TIP3   OH2 7429   2.490   3.119   4.021  0.0613 -0.4189  0.0377
 2498TIP3    H1 7430   2.531   3.042   4.061 -0.9217 -0.2085  1.4722
 2498TIP3    H2 7431   2.556   3.188   4.029  1.1722 -1.2059 -1.7577
 2499TIP3   OH2 7432   3.918   3.873   4.122  0.2093 -0.0472  0.0194
 2499TIP3    H1 7433   3.984   3.927   4.166  0.5384  1.0881 -1.8062
 2499TIP3    H2 7434   3.835   3.901   4.160  0.6050 -0.1713  0.9981
 2500TIP3   OH2 7435   1.569   2.970   3.981  0.6454  0.4962  0.0025
 2500TIP3    H1 7436   1.613   3.054   3.989 -0.2791  0.7936  2.2817
 2500TIP3    H2 7437   1.477   2.991   3.966  0.3402 -0.0869  0.9913
 2501TIP3   OH2 7438   3.774   1.262   2.959 -0.3698 -0.2171 -0.5971
 2501TIP3    H1 7439   3.740   1.242   2.872 -3.0647 -0.4771  0.4600
 2501TIP3    H2 7440   3.784   1.357   2.960  1.7921 -0.3820 -1.8782
 2502TIP3   OH2 7441   1.086   2.029   2.507  0.1556 -0.2971 -0.1639
 2502TIP3    H1 7442   1.162   2.086   2.502 -0.9435  1.1230 -0.9865
 2502TIP3    H2 7443   1.014   2.087   2.533 -0.5846 -1.6684  0.8873
 2503TIP3   OH2 7444   2.355   1.537   3.851 -0.1086  0.4581  0.5566
 2503TIP3    H1 7445   2.377   1.614   3.799  0.3690  0.7765  1.2191
 2503TIP3    H2 7446   2.268   1.511   3.821 -0.4364  1.4931  0.6113
 2504TIP3   OH2 7447   2.974   2.081   4.504 -0.1504  0.6851 -0.6320
 2504TIP3    H1 7448   3.058   2.058   4.463 -0.2313 -0.4080 -0.2088
 2504TIP3    H2 7449   2.972   2.177   4.503 -0.0960  0.7042 -3.0834
 2505TIP3   OH2 7450   7.732   7.426   1.577  0.2973  0.3240  0.4582
 2505TIP3    H1 7451   7.700   7.394   1.493  0.0760 -1.3429  1.1678
 2505TIP3    H2 7452   7.656   7.467   1.618 -0.1827 -0.9541  0.8513
 2506TIP3   OH2 7453   0.386   2.720   3.836  0.4242  0.7038  0.2217
 2506TIP3    H1 7454   0.294   2.695   3.841  0.9112 -1.0441  1.1248
 2506TIP3    H2 7455   0.413   2.692   3.749  0.6597 -0.9470  0.7950
 2507TIP3   OH2 7456   4.112   0.952   2.262 -0.1293  0.5690  0.1130
 2507TIP3    H1 7457   4.166   1.029   2.243  1.1821 -0.2611  0.4193
 2507TIP3    H2 7458   4.036   0.962   2.205  0.9708  1.0891 -1.2864
 2508TIP3   OH2 7459   2.605   3.108   2.218 -0.4250  0.3716 -0.3424
 2508TIP3    H1 7460   2.580   3.094   2.127 -1.9350  0.4887  0.0466
 2508TIP3    H2 7461   2.579   3.199   2.236  1.0589  0.7745 -0.1775
 2509TIP3   OH2 7462   2.132   2.168   5.009  0.1581 -0.3863 -0.5650
 2509TIP3    H1 7463   2.177   2.120   5.079  2.0403 -0.3270 -1.7009
 2509TIP3    H2 7464   2.046   2.126   5.002  0.4334 -1.2109  0.9099
 2510TIP3   OH2 7465   3.088   2.710   3.277 -0.0801  0.2569  0.2343
 2510TIP3    H1 7466   3.013   2.715   3.217  0.1786 -0.4557 -0.1625
 2510TIP3    H2 7467   3.074   2.781   3.339 -1.5617 -0.4083  0.6937
 2511TIP3   OH2 7468   4.312   2.078   2.435  0.0222  0.0579 -0.3652
 2511TIP3    H1 7469   4.312   2.167   2.471 -0.7315  0.1591 -0.5993
 2511TIP3    H2 7470   4.403   2.049   2.441  0.2444  0.7945 -0.1608
 2512TIP3   OH2 7471   2.860   0.901   1.007  0.8086  0.5666 -0.2264
 2512TIP3    H1 7472   2.791   0.840   0.981  0.0556  1.2283  0.1750
 2512TIP3    H2 7473   2.826   0.987   0.984  1.5735  0.8897 -0.1642
 2513TIP3   OH2 7474   4.968   4.679   0.056  0.2763 -0.0439  0.1290
 2513TIP3    H1 7475   4.891   4.722   0.016 -0.8874 -0.7604  1.5532
 2513TIP3    H2 7476   5.038   4.743   0.046 -0.7828  1.0985 -0.1807
 2514TIP3   OH2 7477   3.175   2.776   2.632  0.4386  0.3621 -0.1745
 2514TIP3    H1 7478   3.082   2.754   2.622  0.4619  0.6513 -1.1265
 2514TIP3    H2 7479   3.195   2.755   2.723 -0.3830 -0.3653 -0.1543
 2515TIP3   OH2 7480   2.146   0.890   5.128  0.0315 -0.3349  0.7901
 2515TIP3    H1 7481   2.232   0.855   5.150 -0.6566 -2.0700  0.8065
 2515TIP3    H2 7482   2.090   0.813   5.122 -0.9145  0.5149 -2.0235
 2516TIP3   OH2 7483   2.138   3.862   1.331  0.3185  0.0519  0.0695
 2516TIP3    H1 7484   2.111   3.839   1.242  2.4688 -0.9874 -0.3380
 2516TIP3    H2 7485   2.197   3.792   1.358 -1.0927 -0.2129  2.7351
 2517TIP3   OH2 7486   2.739   3.009   4.174  0.1828 -0.2803  0.3137
 2517TIP3    H1 7487   2.749   3.092   4.220 -1.4372 -0.0902  0.3564
 2517TIP3    H2 7488   2.707   2.949   4.242 -0.5014 -0.4473 -0.1574
 2518TIP3   OH2 7489   2.022   2.541   3.253 -0.2188 -0.5943 -0.0958
 2518TIP3    H1 7490   1.985   2.501   3.175 -1.2855  0.9368 -0.3950
 2518TIP3    H2 7491   1.946   2.568   3.305  0.4683 -0.0182  0.6389
 2519TIP3   OH2 7492   8.372   1.554   5.994  0.3278 -0.0065 -0.3143
 2519TIP3    H1 7493   8.371   1.625   5.929  0.9385  0.7753  0.5183
 2519TIP3    H2 7494   8.338   1.478   5.947  0.5023  0.6210 -1.4733
 2520TIP3   OH2 7495   2.649   0.391   4.650 -0.6549  0.1917 -0.4361
 2520TIP3    H1 7496   2.573   0.447   4.668 -0.0193  0.4662  1.4915
 2520TIP3    H2 7497   2.674   0.413   4.560 -1.2535  2.0203 -0.1718
 2521TIP3   OH2 7498   0.748   2.125   5.969  0.1652 -0.0715 -0.0625
 2521TIP3    H1 7499   0.693   2.170   6.033 -0.6690  0.7563 -1.3440
 2521TIP3    H2 7500   0.832   2.115   6.013 -1.0499 -1.6056  2.0434
 2522TIP3   OH2 7501   2.989   0.819   4.603  0.2238 -0.0588 -0.2471
 2522TIP3    H1 7502   3.002   0.726   4.619  0.6592  0.2482  1.2441
 2522TIP3    H2 7503   3.066   0.862   4.641 -0.0859  0.9369 -0.7057
 2523TIP3   OH2 7504   2.892   3.338   4.860 -0.5431 -0.0159 -1.0836
 2523TIP3    H1 7505   2.858   3.349   4.949 -0.0914  0.8022 -1.0001
 2523TIP3    H2 7506   2.967   3.279   4.870 -0.9025 -0.4598 -1.0191
 2524TIP3   OH2 7507   2.782   3.999   4.300 -0.9169  0.0740  0.0224
 2524TIP3    H1 7508   2.833   4.018   4.379  0.4738 -1.5136 -0.4631
 2524TIP3    H2 7509   2.836   4.034   4.229 -1.6429  0.5038 -0.3163
 2525TIP3   OH2 7510   2.867   2.942   1.493 -0.1798 -0.0670 -0.1786
 2525TIP3    H1 7511   2.945   2.931   1.438 -0.9965  0.3115 -1.4407
 2525TIP3    H2 7512   2.884   3.021   1.544  1.3230 -1.3732  1.4057
 2526TIP3   OH2 7513   3.058   1.094   5.404 -0.0600 -0.3623  0.0693
 2526TIP3    H1 7514   3.035   1.183   5.377 -0.0183 -0.9697 -2.0615
 2526TIP3    H2 7515   3.057   1.097   5.500  1.8856  2.4464  0.0703
 2527TIP3   OH2 7516   3.731   2.193   3.446  0.2816  0.4535 -0.3083
 2527TIP3    H1 7517   3.792   2.169   3.376  0.8054  0.5827  0.0969
 2527TIP3    H2 7518   3.737   2.288   3.451  0.4404  0.4207  0.0928
 2528TIP3   OH2 7519   2.400   1.254   2.833 -0.0172  0.2589  0.0876
 2528TIP3    H1 7520   2.376   1.177   2.885 -2.2612  0.7645 -0.1517
 2528TIP3    H2 7521   2.420   1.218   2.746  1.7508 -0.3428  0.7007
 2529TIP3   OH2 7522   8.384   2.450   1.153 -0.0341  0.9661  0.4090
 2529TIP3    H1 7523   8.441   2.492   1.218 -0.1001  0.8956  0.5125
 2529TIP3    H2 7524   8.417   2.481   1.069 -0.7694  2.1164  0.5314
 2530TIP3   OH2 7525   3.166   3.050   3.207 -0.6270 -0.1114 -0.5156
 2530TIP3    H1 7526   3.091   3.031   3.263 -0.6208  0.8147 -0.1987
 2530TIP3    H2 7527   3.144   3.007   3.124 -0.7713 -1.2194  0.0786
 2531TIP3   OH2 7528   3.466   2.663   1.641  0.4109  0.6231 -0.1459
 2531TIP3    H1 7529   3.493   2.666   1.733 -0.0642  0.3852  0.0004
 2531TIP3    H2 7530   3.546   2.685   1.592  0.7469  0.4127  0.3069
 2532TIP3   OH2 7531   2.052   1.332   1.802  0.3243 -0.0848  0.0887
 2532TIP3    H1 7532   2.000   1.342   1.882  0.5252  3.2541 -0.1151
 2532TIP3    H2 7533   2.073   1.422   1.776  0.3411 -1.0888 -3.6607
 2533TIP3   OH2 7534   5.185   1.795   0.791  0.0082  0.4299  0.1506
 2533TIP3    H1 7535   5.227   1.750   0.865  0.6817  0.8251  0.0091
 2533TIP3    H2 7536   5.211   1.886   0.801 -0.4884  0.6069 -0.1725
 2534TIP3   OH2 7537   3.664   2.356   1.590  0.3694  0.0869 -0.3965
 2534TIP3    H1 7538   3.643   2.269   1.622  0.5490  0.1357 -0.1405
 2534TIP3    H2 7539   3.757   2.368   1.612  0.4669  0.1601 -0.8417
 2535TIP3   OH2 7540   0.830   3.385   0.978  0.2386  0.1911  0.5983
 2535TIP3    H1 7541   0.832   3.289   0.975 -1.5646  0.1442  0.3295
 2535TIP3    H2 7542   0.895   3.413   0.914  2.2674 -0.8421  2.1651
 2536TIP3   OH2 7543   2.769   2.831   1.818 -0.1130 -0.8160  0.1386
 2536TIP3    H1 7544   2.675   2.819   1.834 -0.5741  1.7785 -0.2792
 2536TIP3    H2 7545   2.772   2.899   1.750  2.0875  0.7704  1.7647
 2537TIP3   OH2 7546   1.716   1.789   1.487 -0.0986 -0.6981 -0.4785
 2537TIP3    H1 7547   1.678   1.743   1.412  0.8495 -0.7601 -0.9230
 2537TIP3    H2 7548   1.672   1.874   1.488 -2.4240 -1.8732  0.8128
 2538TIP3   OH2 7549   1.772   3.576   4.252 -0.1419  0.7028  0.5885
 2538TIP3    H1 7550   1.861   3.613   4.256  0.3710 -0.2945 -1.2992
 2538TIP3    H2 7551   1.769   3.514   4.324  0.4497  1.2590  1.1059
 2539TIP3   OH2 7552   4.580   0.964   1.154 -0.0731  0.2368 -0.2269
 2539TIP3    H1 7553   4.544   0.875   1.162  0.6302 -0.0588 -0.2949
 2539TIP3    H2 7554   4.637   0.959   1.077  0.6902  0.5046  0.3276
 2540TIP3   OH2 7555   3.113   2.569   2.853  0.2053 -0.1042 -0.0353
 2540TIP3    H1 7556   3.098   2.512   2.777  1.1009  1.6421 -1.5872
 2540TIP3    H2 7557   3.071   2.524   2.926 -0.7577 -1.8005 -1.5863
 2541TIP3   OH2 7558   1.916   2.659   3.790 -0.1080  0.1542 -0.2375
 2541TIP3    H1 7559   1.843   2.670   3.729 -0.0093  0.0750 -0.3702
 2541TIP3    H2 7560   1.923   2.743   3.835  1.3330  1.0054 -1.9933
 2542TIP3   OH2 7561   2.088   1.526   2.554 -0.1572 -0.1507 -0.3918
 2542TIP3    H1 7562   2.050   1.445   2.519 -0.6207 -0.1871  0.1906
 2542TIP3    H2 7563   2.183   1.512   2.546 -0.2286 -0.8505 -0.0703
 2543TIP3   OH2 7564   2.297   0.789   4.262 -0.4548  0.1424  0.3335
 2543TIP3    H1 7565   2.329   0.879   4.255  2.0031 -0.6005  1.5231
 2543TIP3    H2 7566   2.353   0.749   4.328 -0.9953 -2.5043 -0.7709
 2544TIP3   OH2 7567   3.088   3.479   2.899 -0.2477  0.1765  0.0265
 2544TIP3    H1 7568   3.138   3.465   2.979  0.6222 -1.3520 -0.7709
 2544TIP3    H2 7569   3.068   3.391   2.867 -1.4157  0.7697 -0.9229
 2545TIP3   OH2 7570   3.349   1.190   2.692  0.0860  0.0664  0.0522
 2545TIP3    H1 7571   3.431   1.162   2.732 -0.0157  0.1722  0.3314
 2545TIP3    H2 7572   3.373   1.212   2.602  0.2390 -0.5511 -0.0580
 2546TIP3   OH2 7573   8.360   7.616   4.066  0.5640 -0.1380 -0.0709
 2546TIP3    H1 7574   8.413   7.636   4.143 -1.2823  0.3387  1.1227
 2546TIP3    H2 7575   8.395   7.673   3.997 -1.2349  3.5741  1.9035
 2547TIP3   OH2 7576   0.948   3.421   3.795  0.2566  0.1803  0.1795
 2547TIP3    H1 7577   0.945   3.419   3.699  2.4207  0.6741  0.0733
 2547TIP3    H2 7578   0.921   3.332   3.821 -2.8017  0.7697 -0.7478
 2548TIP3   OH2 7579   0.886   2.536   3.585 -0.0450 -0.1947  0.8039
 2548TIP3    H1 7580   0.886   2.627   3.615  1.6655  0.3205 -0.6687
 2548TIP3    H2 7581   0.794   2.514   3.576 -0.4931  1.2015  1.7315
 2549TIP3   OH2 7582   2.649   1.815   3.815 -0.2247  0.0640  0.6552
 2549TIP3    H1 7583   2.693   1.767   3.744  1.6212  0.3666  1.5780
 2549TIP3    H2 7584   2.654   1.907   3.788 -2.0301 -0.0671 -0.1695
 2550TIP3   OH2 7585   3.848   3.263   2.367  0.7282  0.5565 -0.8597
 2550TIP3    H1 7586   3.928   3.210   2.364  1.0493  1.0465 -1.0689
 2550TIP3    H2 7587   3.875   3.349   2.335 -0.1630  0.3825 -2.0953
 2551TIP3   OH2 7588   3.374   0.957   3.901  0.5757  0.5496 -0.2282
 2551TIP3    H1 7589   3.443   1.007   3.856  0.0338  2.1230  0.6758
 2551TIP3    H2 7590   3.294   1.007   3.885  0.1411  0.3523  1.2997
 2552TIP3   OH2 7591   0.875   2.212   2.594 -0.3421  0.1937  0.7849
 2552TIP3    H1 7592   0.853   2.261   2.515  0.6579  0.4389  0.6548
 2552TIP3    H2 7593   0.791   2.178   2.625 -0.8228  0.6161 -0.0336
 2553TIP3   OH2 7594   0.773   4.744   2.992  0.7912  0.0629 -0.6493
 2553TIP3    H1 7595   0.844   4.682   2.974  0.3897  0.2380 -2.9483
 2553TIP3    H2 7596   0.803   4.826   2.954 -0.9029 -0.0265 -2.2472
 2554TIP3   OH2 7597   6.918   5.920   3.620  0.5963 -0.3008 -0.3612
 2554TIP3    H1 7598   6.979   5.855   3.656  0.6582  0.0062  0.1013
 2554TIP3    H2 7599   6.974   5.984   3.577  0.6445  0.2128  0.4354
 2555TIP3   OH2 7600   2.971   0.589   0.961  0.3363 -0.0168 -0.8230
 2555TIP3    H1 7601   3.055   0.591   1.007  0.1793 -0.5866 -0.5049
 2555TIP3    H2 7602   2.986   0.641   0.882  1.6381 -1.9140 -1.8708
 2556TIP3   OH2 7603   0.625   2.876   4.988  0.4698  0.2315  0.3239
 2556TIP3    H1 7604   0.630   2.965   4.954 -1.4482  0.3852  0.3550
 2556TIP3    H2 7605   0.595   2.824   4.914  2.0734 -0.4795  0.1706
 2557TIP3   OH2 7606   1.602   0.660   4.617 -0.2008  0.0337 -0.3179
 2557TIP3    H1 7607   1.585   0.690   4.528  1.6652  0.5827 -0.5129
 2557TIP3    H2 7608   1.644   0.575   4.606 -0.2554 -0.0418  0.0438
 2558TIP3   OH2 7609   7.338   4.137   5.255  0.4682 -0.3152 -0.2035
 2558TIP3    H1 7610   7.402   4.205   5.233  1.0611 -0.7593  0.1290
 2558TIP3    H2 7611   7.286   4.126   5.176  0.7160  0.1482 -0.4321
 2559TIP3   OH2 7612   3.861   2.097   4.602  0.6557 -0.3975  0.4500
 2559TIP3    H1 7613   3.826   2.173   4.649  0.9678 -1.0515  1.7556
 2559TIP3    H2 7614   3.818   2.100   4.517  1.0828  1.5650  0.2792
 2560TIP3   OH2 7615   1.318   3.942   0.892  0.5094  0.5865 -0.0774
 2560TIP3    H1 7616   1.365   4.013   0.936 -1.2479  0.9450  1.2973
 2560TIP3    H2 7617   1.241   3.984   0.853  0.5762 -0.2071 -1.0904
 2561TIP3   OH2 7618   2.232   0.713   3.096 -0.1951  0.3451 -0.2329
 2561TIP3    H1 7619   2.237   0.619   3.118 -0.4181 -0.7332 -4.3614
 2561TIP3    H2 7620   2.318   0.748   3.119 -0.1883 -0.7773  1.5954
 2562TIP3   OH2 7621   3.283   2.859   2.410  0.1858 -0.3337 -0.5185
 2562TIP3    H1 7622   3.249   2.802   2.341 -1.2468 -1.7196  1.2507
 2562TIP3    H2 7623   3.240   2.827   2.490  2.3342  0.7538  1.1187
 2563TIP3   OH2 7624   1.646   1.884   4.698 -0.1692 -0.2341  0.0507
 2563TIP3    H1 7625   1.740   1.901   4.699 -0.0250 -1.0174  0.4989
 2563TIP3    H2 7626   1.612   1.937   4.626  0.7485 -0.6669 -0.7037
 2564TIP3   OH2 7627   2.858   2.258   3.427  0.3948 -0.0431 -0.6306
 2564TIP3    H1 7628   2.860   2.325   3.359 -0.0832 -0.5205 -1.1188
 2564TIP3    H2 7629   2.777   2.209   3.411  0.4787 -0.4131  0.0335
 2565TIP3   OH2 7630   3.021   2.965   3.404  0.2807  0.7295  0.4928
 2565TIP3    H1 7631   2.935   2.998   3.428  0.0441  1.1544 -0.8721
 2565TIP3    H2 7632   3.076   2.981   3.481  0.0704  3.9371  0.0367
 2566TIP3   OH2 7633   1.957   1.390   5.262  0.3396 -0.2216 -0.4533
 2566TIP3    H1 7634   2.046   1.423   5.271  0.8723 -1.3860 -1.4153
 2566TIP3    H2 7635   1.929   1.419   5.175 -0.6869  1.2026  0.3225
 2567TIP3   OH2 7636   1.820   2.073   3.121  0.8958 -0.1310  0.8466
 2567TIP3    H1 7637   1.854   2.043   3.037  0.4346  2.1164 -0.1968
 2567TIP3    H2 7638   1.823   1.996   3.178  0.3192 -1.9419 -1.5030
 2568TIP3   OH2 7639   2.354   2.364   3.963  0.1777 -0.9153 -0.5750
 2568TIP3    H1 7640   2.338   2.453   3.933  1.7299 -0.7109 -0.8228
 2568TIP3    H2 7641   2.277   2.315   3.935 -0.1172  0.0822 -1.5398
 2569TIP3   OH2 7642   3.655   0.880   5.032  0.0449  0.1633 -0.5460
 2569TIP3    H1 7643   3.569   0.859   4.995 -0.0386 -0.0867 -0.2065
 2569TIP3    H2 7644   3.715   0.872   4.958 -0.2307  0.3910 -0.7960
 2570TIP3   OH2 7645   1.342   2.233   3.995 -0.5850 -0.4211 -0.2489
 2570TIP3    H1 7646   1.308   2.319   4.021 -1.6466 -1.0382  0.4276
 2570TIP3    H2 7647   1.284   2.204   3.925 -0.2206 -0.5900 -0.4851
 2571TIP3   OH2 7648   3.238   1.098   1.183  0.2686 -0.0719 -0.2418
 2571TIP3    H1 7649   3.198   1.184   1.168 -1.4895 -0.8874 -0.3256
 2571TIP3    H2 7650   3.321   1.118   1.228 -0.2615  1.6437  0.0181
 2572TIP3   OH2 7651   8.369   3.575   4.309 -0.1726  0.1187 -0.2722
 2572TIP3    H1 7652   8.289   3.528   4.330 -0.3131 -0.4752 -2.0447
 2572TIP3    H2 7653   8.434   3.540   4.370 -0.8764 -0.5676  0.0959
 2573TIP3   OH2 7654   0.403   7.491   5.638  0.2296 -0.0036 -0.2059
 2573TIP3    H1 7655   0.483   7.479   5.688  1.7848  5.5047 -1.0341
 2573TIP3    H2 7656   0.431   7.483   5.546 -0.8406 -1.2371 -0.4392
 2574TIP3   OH2 7657   2.862   0.959   2.806  0.2715  0.3905  0.0276
 2574TIP3    H1 7658   2.771   0.988   2.817  0.2237  0.5505 -0.7143
 2574TIP3    H2 7659   2.911   1.008   2.872 -0.4976 -1.3838  1.9662
 2575TIP3   OH2 7660   3.107   1.074   3.864 -0.2795  0.0049 -0.2309
 2575TIP3    H1 7661   3.111   1.120   3.780 -1.0598 -0.4367 -0.5194
 2575TIP3    H2 7662   3.123   1.141   3.930 -1.7183  0.7397 -0.6229
 2576TIP3   OH2 7663   2.349   2.347   4.592  0.0562  0.0383  0.2329
 2576TIP3    H1 7664   2.404   2.420   4.561  1.0527  0.1269  2.1087
 2576TIP3    H2 7665   2.335   2.366   4.685 -0.8833 -1.4218  0.3968
 2577TIP3   OH2 7666   6.944   7.985   4.437 -0.1585 -0.7108 -0.2117
 2577TIP3    H1 7667   6.907   7.904   4.474 -0.0901 -0.8296 -0.4022
 2577TIP3    H2 7668   6.980   7.958   4.352  0.0152 -0.5143 -0.1998
 2578TIP3   OH2 7669   1.144   0.056   4.674 -0.3254 -0.6243 -0.4919
 2578TIP3    H1 7670   1.194   0.021   4.601  0.3258 -0.2772 -0.2102
 2578TIP3    H2 7671   1.148   0.151   4.663 -0.6436 -0.5838 -0.2820
 2579TIP3   OH2 7672   1.725   1.408   3.419 -0.2005 -0.4356  0.7871
 2579TIP3    H1 7673   1.672   1.362   3.354  1.0205 -0.2311 -0.3722
 2579TIP3    H2 7674   1.681   1.493   3.429  0.4163  0.0917 -0.8581
 2580TIP3   OH2 7675   1.529   2.709   4.929 -0.2654 -0.2786 -0.4630
 2580TIP3    H1 7676   1.514   2.694   4.835  1.1016  0.9784 -0.9057
 2580TIP3    H2 7677   1.442   2.706   4.968 -0.8581 -0.8137 -1.7806
 2581TIP3   OH2 7678   1.019   6.924   3.523 -0.1874  0.1404 -0.1103
 2581TIP3    H1 7679   1.106   6.885   3.518  0.2289  0.9002  1.0111
 2581TIP3    H2 7680   1.020   6.975   3.604 -1.2619  1.1432 -0.7049
 2582TIP3   OH2 7681   1.684   2.277   4.321  0.2023  0.3080 -0.5496
 2582TIP3    H1 7682   1.745   2.215   4.361 -1.2458  0.1372  1.4935
 2582TIP3    H2 7683   1.715   2.363   4.349 -0.8191  0.1871  1.0157
 2583TIP3   OH2 7684   1.000   7.427   4.072 -0.5091  0.2161 -0.7040
 2583TIP3    H1 7685   0.975   7.519   4.083 -0.6100  0.2094 -0.8724
 2583TIP3    H2 7686   0.969   7.404   3.985  0.1733  0.2334 -0.9571
 2584TIP3   OH2 7687   1.690   0.456   4.447  0.4901 -0.5685  0.4538
 2584TIP3    H1 7688   1.703   0.388   4.381  0.9290 -0.1911  0.1395
 2584TIP3    H2 7689   1.779   0.487   4.466  0.1710  1.3352 -0.9422
 2585TIP3   OH2 7690   1.393   4.087   1.472  0.2417 -0.6136 -0.1186
 2585TIP3    H1 7691   1.450   4.068   1.546 -0.8598 -0.3080  0.8207
 2585TIP3    H2 7692   1.320   4.025   1.481 -0.8211  0.6571  0.0949
 2586TIP3   OH2 7693   1.487   2.577   3.284 -0.8721 -0.5125 -0.2187
 2586TIP3    H1 7694   1.404   2.599   3.326 -1.9478 -0.7270 -2.1966
 2586TIP3    H2 7695   1.497   2.483   3.300 -1.4383 -0.6592 -0.7323
 2587TIP3   OH2 7696   7.973   2.556   2.415 -0.0158 -0.1079 -0.0714
 2587TIP3    H1 7697   8.008   2.570   2.504  2.1357 -1.5184 -0.6705
 2587TIP3    H2 7698   7.931   2.470   2.419  0.2402 -0.2497 -0.4756
 2588TIP3   OH2 7699   2.521   3.822   2.918 -0.0971  0.1287  0.1343
 2588TIP3    H1 7700   2.600   3.854   2.874  1.4632 -1.3451  1.8303
 2588TIP3    H2 7701   2.514   3.876   2.996 -1.1646  0.6890 -0.3364
 2589TIP3   OH2 7702   2.284   2.423   2.306  0.3299  0.2011 -0.4952
 2589TIP3    H1 7703   2.299   2.499   2.363 -0.9303  1.4088 -1.7369
 2589TIP3    H2 7704   2.362   2.369   2.318  1.1479  1.5662  0.6063
 2590TIP3   OH2 7705   3.464   1.579   2.335 -0.4783  0.3984  0.1747
 2590TIP3    H1 7706   3.498   1.606   2.420  1.2529 -0.6620 -0.1398
 2590TIP3    H2 7707   3.540   1.541   2.290 -0.4405  4.1660 -3.2254
 2591TIP3   OH2 7708   3.441   3.301   2.534 -0.5421  0.1248 -0.6611
 2591TIP3    H1 7709   3.474   3.291   2.623  2.1315  1.0933 -1.4940
 2591TIP3    H2 7710   3.391   3.383   2.536 -0.6148  0.0669 -0.0300
 2592TIP3   OH2 7711   3.823   3.014   0.462  0.1392 -0.1130  0.6317
 2592TIP3    H1 7712   3.824   2.937   0.518  1.2603 -0.2358  0.4378
 2592TIP3    H2 7713   3.861   2.986   0.380  0.7468  0.6989  0.6271
 2593TIP3   OH2 7714   4.258   2.077   0.753 -0.0505 -0.3958  0.2619
 2593TIP3    H1 7715   4.242   2.040   0.839  1.1536 -1.5004  0.0229
 2593TIP3    H2 7716   4.316   2.152   0.770 -0.0260 -0.4547  0.4368
 2594TIP3   OH2 7717   3.624   3.181   2.219  0.0247 -0.2171  0.3171
 2594TIP3    H1 7718   3.648   3.228   2.139 -1.1529 -0.8315 -0.4038
 2594TIP3    H2 7719   3.694   3.202   2.281  1.2529 -0.1950 -1.0546
 2595TIP3   OH2 7720   3.941   1.965   1.798  0.1985 -0.2247 -0.0521
 2595TIP3    H1 7721   3.976   2.044   1.839 -1.6090 -0.4525  2.0111
 2595TIP3    H2 7722   3.914   1.993   1.710  0.0869  1.3048  0.4565
 2596TIP3   OH2 7723   2.798   2.546   4.564 -0.3442  0.2119  0.0959
 2596TIP3    H1 7724   2.703   2.548   4.574 -0.3206  0.2992  0.2892
 2596TIP3    H2 7725   2.829   2.631   4.596 -0.2125  0.2318 -0.0820
 2597TIP3   OH2 7726   4.265   3.973   2.152 -0.1206 -0.2819 -0.3328
 2597TIP3    H1 7727   4.217   4.003   2.229 -0.7897 -0.0093 -0.8519
 2597TIP3    H2 7728   4.212   4.001   2.078  1.2448  0.7328 -0.9552
 2598TIP3   OH2 7729   2.125   1.148   3.748 -0.1022 -0.0263  0.3056
 2598TIP3    H1 7730   2.139   1.236   3.712  0.6941 -0.1736  0.2600
 2598TIP3    H2 7731   2.073   1.103   3.682 -0.5277  0.4100  0.3333
 2599TIP3   OH2 7732   2.006   1.732   5.345  0.0637 -0.3507 -0.0198
 2599TIP3    H1 7733   1.980   1.659   5.289 -1.9232  1.4714 -1.5620
 2599TIP3    H2 7734   1.923   1.765   5.381  0.7940  1.8705 -0.2906
 2600TIP3   OH2 7735   3.128   0.487   3.072 -0.3007  0.3575 -0.3860
 2600TIP3    H1 7736   3.069   0.434   3.125 -0.7565  0.9454 -0.2991
 2600TIP3    H2 7737   3.073   0.556   3.036  0.7211  2.1648  1.3801
 2601TIP3   OH2 7738   3.500   2.451   1.375 -0.0722 -0.7648 -0.2917
 2601TIP3    H1 7739   3.471   2.538   1.403  1.9521  0.0952 -0.7499
 2601TIP3    H2 7740   3.562   2.423   1.442  1.0879 -0.8048 -1.3645
 2602TIP3   OH2 7741   7.129   7.716   4.515 -0.0751 -0.2811  0.4343
 2602TIP3    H1 7742   7.187   7.659   4.464 -0.0592  0.1967 -0.0861
 2602TIP3    H2 7743   7.116   7.669   4.597  0.9731 -0.4444  0.5235
 2603TIP3   OH2 7744   4.223   0.335   4.024  0.0111  0.8216  0.3391
 2603TIP3    H1 7745   4.236   0.404   4.090  2.2504  2.5691 -1.8260
 2603TIP3    H2 7746   4.133   0.346   3.995 -0.2843  1.5075  1.4866
 2604TIP3   OH2 7747   4.540   4.548   1.815  0.0562 -0.2566  0.1316
 2604TIP3    H1 7748   4.603   4.615   1.841 -0.4459  0.6205 -0.8799
 2604TIP3    H2 7749   4.471   4.554   1.881 -2.1670  3.3007 -2.3443
 2605TIP3   OH2 7750   3.006   0.342   1.934  0.2207 -0.2294 -0.2380
 2605TIP3    H1 7751   3.093   0.331   1.893  0.4855  1.7649 -0.2644
 2605TIP3    H2 7752   3.025   0.358   2.026 -0.1160  0.1880 -0.2408
 2606TIP3   OH2 7753   2.852   1.573   3.877  0.4357 -0.0088  0.3882
 2606TIP3    H1 7754   2.865   1.479   3.890 -1.9506 -0.4548 -0.2421
 2606TIP3    H2 7755   2.839   1.607   3.965 -0.0779 -0.4982  0.5066
 2607TIP3   OH2 7756   4.160   2.345   4.415  0.1754  0.1799  0.1551
 2607TIP3    H1 7757   4.160   2.274   4.479 -2.1270  0.3692  0.4284
 2607TIP3    H2 7758   4.167   2.302   4.331 -3.5370 -0.6234  0.1736
 2608TIP3   OH2 7759   2.347   1.419   2.510  0.3697 -0.2669 -0.0141
 2608TIP3    H1 7760   2.329   1.333   2.473 -1.1038 -0.1823  0.4852
 2608TIP3    H2 7761   2.441   1.418   2.528  0.4615 -1.5698 -0.5146
 2609TIP3   OH2 7762   1.734   1.119   0.639  0.6876  0.4611 -0.3800
 2609TIP3    H1 7763   1.743   1.193   0.579  1.5467  1.2232  0.6720
 2609TIP3    H2 7764   1.723   1.159   0.725 -0.5414 -0.6169 -0.0106
 2610TIP3   OH2 7765   1.213   2.108   1.445  0.3057 -0.1799 -0.0570
 2610TIP3    H1 7766   1.244   2.123   1.534  1.8015 -0.2791 -0.5422
 2610TIP3    H2 7767   1.236   2.187   1.397  0.0695 -0.3734 -0.5006
 2611TIP3   OH2 7768   8.297   7.792   5.274 -0.8427  0.7267 -0.3951
 2611TIP3    H1 7769   8.254   7.708   5.290  0.0459  0.7071  2.3007
 2611TIP3    H2 7770   8.389   7.770   5.262 -0.4748  1.3331  1.1175
 2612TIP3   OH2 7771   2.370   1.103   2.047 -0.5390  0.0196  0.3052
 2612TIP3    H1 7772   2.416   1.147   1.975  0.1892  1.0615  1.3990
 2612TIP3    H2 7773   2.429   1.110   2.122 -2.2743  0.9793  1.6263
 2613TIP3   OH2 7774   1.979   2.468   1.979 -0.4888 -0.0090 -0.3245
 2613TIP3    H1 7775   2.069   2.476   2.012  0.0095 -0.2782 -1.5920
 2613TIP3    H2 7776   1.948   2.385   2.015 -0.3475  0.2398  0.3810
 2614TIP3   OH2 7777   1.105   0.693   6.508  0.0368  0.1092 -0.0612
 2614TIP3    H1 7778   1.110   0.598   6.507  1.4353  0.1750 -1.6254
 2614TIP3    H2 7779   1.140   0.720   6.423 -0.5701  2.0082  0.2555
 2615TIP3   OH2 7780   1.138   2.487   3.927 -0.9745  0.4237 -0.1937
 2615TIP3    H1 7781   1.042   2.486   3.924 -0.9389 -0.6922 -1.7663
 2615TIP3    H2 7782   1.159   2.491   4.020 -2.5530 -0.3815  0.2208
 2616TIP3   OH2 7783   2.833   0.296   4.442  0.0548  0.4764  0.2032
 2616TIP3    H1 7784   2.900   0.323   4.379 -0.7859 -1.7958 -1.7250
 2616TIP3    H2 7785   2.867   0.214   4.478 -1.3476 -0.3252 -0.2841
 2617TIP3   OH2 7786   2.266   3.317   3.897  0.3111 -0.0383 -0.7030
 2617TIP3    H1 7787   2.239   3.234   3.857 -0.9264 -0.6391  1.2702
 2617TIP3    H2 7788   2.327   3.291   3.967  0.6755  0.7945 -0.7071
 2618TIP3   OH2 7789   3.219   1.802   2.606  0.0912 -0.1157 -0.2213
 2618TIP3    H1 7790   3.187   1.891   2.594  0.5998 -0.0979 -1.4960
 2618TIP3    H2 7791   3.277   1.808   2.682  1.2295  0.9394 -1.1561
 2619TIP3   OH2 7792   3.478   2.847   3.826  0.2937  0.4313  0.2959
 2619TIP3    H1 7793   3.424   2.781   3.869  0.3872  0.8028  0.9815
 2619TIP3    H2 7794   3.532   2.796   3.765 -0.1609 -0.0432  0.2806
 2620TIP3   OH2 7795   1.499   1.978   2.620 -0.0776  0.5227  0.4839
 2620TIP3    H1 7796   1.447   2.012   2.547  2.5470  1.0615 -1.1721
 2620TIP3    H2 7797   1.557   2.050   2.643  0.2592 -0.2271  2.0318
 2621TIP3   OH2 7798   3.413   3.173   4.334  0.0765 -0.0546  0.5527
 2621TIP3    H1 7799   3.502   3.140   4.336  0.0748 -0.1091 -0.3302
 2621TIP3    H2 7800   3.359   3.097   4.313 -0.0622  0.2280 -0.1093
 2622TIP3   OH2 7801   1.001   2.103   6.080  0.2582  0.1324  0.4998
 2622TIP3    H1 7802   1.068   2.074   6.143  1.6209 -0.6983 -1.2791
 2622TIP3    H2 7803   1.050   2.150   6.013 -0.7609 -1.5482 -1.4705
 2623TIP3   OH2 7804   2.053   3.083   4.315  0.5439  0.7011 -0.2233
 2623TIP3    H1 7805   2.125   3.143   4.333 -0.5901  2.3904 -1.1833
 2623TIP3    H2 7806   2.071   3.048   4.228  0.8819  0.1115  0.0798
 2624TIP3   OH2 7807   2.367   1.421   5.747 -0.3302 -0.0020 -0.3279
 2624TIP3    H1 7808   2.315   1.342   5.758 -1.1209  0.5061 -0.3768
 2624TIP3    H2 7809   2.418   1.428   5.828 -0.5455 -0.3510 -0.1657
 2625TIP3   OH2 7810   0.795   7.195   3.793  0.0156  1.0917 -0.3014
 2625TIP3    H1 7811   0.710   7.229   3.820  1.0483  0.8213  3.5948
 2625TIP3    H2 7812   0.779   7.155   3.707 -3.6690  1.3267  0.1994
 2626TIP3   OH2 7813   3.042   1.316   2.471 -0.5686  0.2791 -0.0685
 2626TIP3    H1 7814   3.098   1.384   2.508  1.9597 -0.5744 -2.1401
 2626TIP3    H2 7815   3.031   1.253   2.541 -2.3505  2.4041  1.6527
 2627TIP3   OH2 7816   1.295   7.961   1.436 -0.7383 -0.5943 -0.0108
 2627TIP3    H1 7817   1.202   7.975   1.458 -0.1248  2.0222  1.0004
 2627TIP3    H2 7818   1.311   7.869   1.460 -2.5032 -0.4410  1.8969
 2628TIP3   OH2 7819   6.505   7.735   2.701 -0.1009 -0.5180 -0.0674
 2628TIP3    H1 7820   6.590   7.777   2.717 -2.1824  2.9754  2.5409
 2628TIP3    H2 7821   6.469   7.782   2.626 -1.3115  0.6352  1.2106
 2629TIP3   OH2 7822   5.949   7.128   2.530  0.1023 -0.1642 -0.2219
 2629TIP3    H1 7823   5.858   7.126   2.500  0.3285 -2.0867 -0.8813
 2629TIP3    H2 7824   5.998   7.162   2.455 -0.0816  1.1338  0.2277
 2630TIP3   OH2 7825   3.523   0.383   1.699  0.1401  0.2522  0.0812
 2630TIP3    H1 7826   3.534   0.429   1.616  0.8130 -0.1099 -0.0325
 2630TIP3    H2 7827   3.612   0.358   1.725 -0.2138 -1.0224  0.1127
 2631TIP3   OH2 7828   0.141   3.312   6.790 -0.0919  0.0636  0.1878
 2631TIP3    H1 7829   0.193   3.363   6.728  0.9727 -0.3323  0.7418
 2631TIP3    H2 7830   0.063   3.366   6.805  0.1206  0.6348 -0.6998
 2632TIP3   OH2 7831   0.838   7.709   2.813  0.3930 -0.0631  0.3277
 2632TIP3    H1 7832   0.909   7.773   2.816  1.6744 -1.4851  1.2105
 2632TIP3    H2 7833   0.872   7.638   2.758 -1.2782  0.3030 -1.2172
 2633TIP3   OH2 7834   1.975   3.180   1.617 -0.1747 -0.0683 -0.2261
 2633TIP3    H1 7835   1.997   3.167   1.525  1.5637 -1.7704  0.3872
 2633TIP3    H2 7836   1.968   3.274   1.628  2.3547  0.3032 -1.5022
 2634TIP3   OH2 7837   1.113   0.597   2.549 -0.5019 -0.2685 -0.1663
 2634TIP3    H1 7838   1.036   0.573   2.601  0.1330 -2.4235 -0.1723
 2634TIP3    H2 7839   1.108   0.541   2.471  0.9645 -0.2733 -0.2731
 2635TIP3   OH2 7840   1.196   3.305   5.207  0.1248  0.2183  0.4687
 2635TIP3    H1 7841   1.173   3.376   5.147  2.2694  0.4343 -0.1379
 2635TIP3    H2 7842   1.127   3.240   5.195  0.1508  0.5725 -1.7182
 2636TIP3   OH2 7843   3.285   2.090   0.962  0.8972  0.4403 -0.6287
 2636TIP3    H1 7844   3.303   2.040   1.042 -1.8391 -1.4075 -1.0973
 2636TIP3    H2 7845   3.324   2.176   0.978  0.5116  0.0695  2.6480
 2637TIP3   OH2 7846   1.891   3.226   3.757 -1.0834  0.1361 -0.1946
 2637TIP3    H1 7847   1.919   3.267   3.838 -0.4501 -0.2720 -0.2045
 2637TIP3    H2 7848   1.902   3.132   3.772 -1.8477  0.0020 -0.4225
 2638TIP3   OH2 7849   8.208   7.816   3.049  0.2998  0.0541  0.4450
 2638TIP3    H1 7850   8.197   7.897   3.099  2.1338 -0.6468  2.0382
 2638TIP3    H2 7851   8.168   7.748   3.103  1.3224 -0.5450  0.4518
 2639TIP3   OH2 7852   2.216   0.640   5.986  0.8404  0.1284 -0.5065
 2639TIP3    H1 7853   2.240   0.556   5.949 -0.9299 -0.0623 -1.2425
 2639TIP3    H2 7854   2.210   0.624   6.081 -0.6631 -0.8732 -0.7568
 2640TIP3   OH2 7855   7.056   7.958   3.656 -0.1639 -0.0364 -0.1328
 2640TIP3    H1 7856   6.961   7.973   3.658 -0.0102  0.8320  0.6978
 2640TIP3    H2 7857   7.069   7.900   3.581 -1.3341 -0.0101 -0.3656
 2641TIP3   OH2 7858   3.746   2.305   1.998 -0.1990  0.3031  0.2892
 2641TIP3    H1 7859   3.820   2.263   1.955  0.1506  0.5068  0.6857
 2641TIP3    H2 7860   3.669   2.261   1.962  0.2262 -2.3144  2.4308
 2642TIP3   OH2 7861   2.361   4.658   2.981 -0.2244 -0.4125  0.0028
 2642TIP3    H1 7862   2.283   4.628   2.934 -0.4603  0.1977  0.0033
 2642TIP3    H2 7863   2.406   4.715   2.919 -0.6770  0.6152  0.6073
 2643TIP3   OH2 7864   4.443   2.364   4.899 -0.3180 -0.5303  0.2499
 2643TIP3    H1 7865   4.422   2.355   4.992  1.8320 -0.8814  0.7300
 2643TIP3    H2 7866   4.524   2.413   4.897  1.7763 -3.8484 -1.2201
 2644TIP3   OH2 7867   4.176   3.648   1.292  0.5574 -0.1873  0.3993
 2644TIP3    H1 7868   4.268   3.664   1.312  0.3894  0.1263  0.9215
 2644TIP3    H2 7869   4.174   3.631   1.198  1.0392  0.6463  0.2409
 2645TIP3   OH2 7870   4.025   1.694   4.485 -0.7532  0.3527  0.3604
 2645TIP3    H1 7871   3.983   1.608   4.490  0.9217 -0.5002  0.1916
 2645TIP3    H2 7872   3.993   1.731   4.402 -0.1793 -0.8223 -0.4025
 2646TIP3   OH2 7873   4.813   4.640   1.885  0.0847  0.1907  0.0941
 2646TIP3    H1 7874   4.846   4.596   1.807 -3.6190  1.6834 -2.4794
 2646TIP3    H2 7875   4.842   4.731   1.877 -1.0242  0.5467 -0.0085
 2647TIP3   OH2 7876   3.475   2.333   0.777  0.3957  0.4513  0.2657
 2647TIP3    H1 7877   3.380   2.332   0.792  0.4251  0.9459  0.4894
 2647TIP3    H2 7878   3.484   2.334   0.682  0.2046 -3.3297  0.1137
 2648TIP3   OH2 7879   5.217   4.004   1.823 -0.2520  0.1063 -0.3247
 2648TIP3    H1 7880   5.267   4.060   1.883 -1.7516  1.7920 -0.6076
 2648TIP3    H2 7881   5.283   3.961   1.769  1.0090  0.2278  1.0988
 2649TIP3   OH2 7882   5.252   3.502   4.759 -0.0770  0.0625 -0.7817
 2649TIP3    H1 7883   5.282   3.441   4.692  0.5418 -0.0202 -0.4304
 2649TIP3    H2 7884   5.323   3.566   4.768 -0.1132  0.0209 -0.1434
 2650TIP3   OH2 7885   5.216   1.563   3.155  0.4975  0.5799  0.1040
 2650TIP3    H1 7886   5.191   1.473   3.173 -0.9629  1.0030  0.1974
 2650TIP3    H2 7887   5.242   1.563   3.063 -0.8679  0.3709 -0.2817
 2651TIP3   OH2 7888   5.215   0.171   2.616 -0.3221 -0.2872 -0.6458
 2651TIP3    H1 7889   5.268   0.185   2.695 -1.2384 -0.0147 -0.0773
 2651TIP3    H2 7890   5.267   0.110   2.563  2.0649  2.4265 -1.5541
 2652TIP3   OH2 7891   4.536   4.063   2.419 -0.2574 -0.3082  0.2038
 2652TIP3    H1 7892   4.594   4.097   2.488  1.2033 -0.7337 -0.7945
 2652TIP3    H2 7893   4.518   4.138   2.363 -0.0309 -0.3639  0.0597
 2653TIP3   OH2 7894   4.298   2.208   3.271 -0.0036 -0.3297  0.1761
 2653TIP3    H1 7895   4.252   2.283   3.308 -1.4949 -0.8581 -0.5761
 2653TIP3    H2 7896   4.381   2.206   3.318 -0.1543  1.4786  0.5628
 2654TIP3   OH2 7897   5.084   1.635   1.481 -0.4963  0.7702 -0.2080
 2654TIP3    H1 7898   5.162   1.691   1.478 -0.4826  0.7105 -1.0166
 2654TIP3    H2 7899   5.118   1.546   1.470 -0.6888  0.7531 -0.6549
 2655TIP3   OH2 7900   3.438   1.516   2.725  0.7031  0.6639  0.7141
 2655TIP3    H1 7901   3.488   1.576   2.780  1.4190  1.6700 -0.9846
 2655TIP3    H2 7902   3.501   1.448   2.700  0.5985  0.6483  0.4891
 2656TIP3   OH2 7903   4.887   1.397   3.057 -0.2241 -0.2365 -0.3729
 2656TIP3    H1 7904   4.968   1.381   3.106 -0.0473 -2.5139 -1.3207
 2656TIP3    H2 7905   4.823   1.422   3.124 -0.0203 -3.3899  1.0943
 2657TIP3   OH2 7906   5.047   2.848   2.439 -0.0839 -0.1458 -0.0788
 2657TIP3    H1 7907   5.130   2.803   2.428 -0.0206  0.0200 -0.2905
 2657TIP3    H2 7908   4.990   2.808   2.373  0.1868  0.5926 -0.7685
 2658TIP3   OH2 7909   4.689   0.119   3.971 -0.7214 -0.1700  0.2091
 2658TIP3    H1 7910   4.783   0.131   3.977 -0.5574 -0.4103 -1.6223
 2658TIP3    H2 7911   4.661   0.179   3.902 -2.0399  0.5154  1.3114
 2659TIP3   OH2 7912   4.737   2.564   0.613 -0.6990 -0.1218 -0.3555
 2659TIP3    H1 7913   4.784   2.578   0.531  1.0216  0.8490  0.7583
 2659TIP3    H2 7914   4.703   2.475   0.606 -0.3611 -0.1337 -2.0158
 2660TIP3   OH2 7915   2.837   3.274   1.903  0.8998  0.5310 -0.1327
 2660TIP3    H1 7916   2.846   3.367   1.879  0.9685  0.2906 -1.0700
 2660TIP3    H2 7917   2.895   3.228   1.843 -0.3843 -0.2736 -0.8029
 2661TIP3   OH2 7918   3.365   2.411   3.732  0.2988 -0.3182  0.1462
 2661TIP3    H1 7919   3.307   2.411   3.656 -0.4135  1.0114  0.6691
 2661TIP3    H2 7920   3.369   2.320   3.760 -0.0003 -0.7005 -1.0546
 2662TIP3   OH2 7921   5.598   0.459   4.169 -0.1654 -0.0366 -0.3017
 2662TIP3    H1 7922   5.529   0.424   4.225  0.0493 -1.2780 -0.7925
 2662TIP3    H2 7923   5.568   0.443   4.080  0.7976 -0.7298 -0.5181
 2663TIP3   OH2 7924   2.982   3.288   4.051  0.5676  0.2669 -0.0861
 2663TIP3    H1 7925   3.009   3.198   4.037 -1.1037 -0.3179  0.3748
 2663TIP3    H2 7926   2.971   3.296   4.146 -2.3844  0.0053 -0.3419
 2664TIP3   OH2 7927   2.712   7.231   2.787  0.1456  0.1041  0.9120
 2664TIP3    H1 7928   2.754   7.146   2.798  3.3200  1.7233  1.8840
 2664TIP3    H2 7929   2.679   7.253   2.874 -0.2000  0.1270  0.7776
 2665TIP3   OH2 7930   5.045   3.474   0.567 -0.2628  0.1255  0.3129
 2665TIP3    H1 7931   5.080   3.385   0.564  0.1237  0.2972 -0.5273
 2665TIP3    H2 7932   4.954   3.465   0.540  0.4842  0.3136 -2.3734
 2666TIP3   OH2 7933   4.898   3.347   2.360 -0.0009  0.3552  0.2468
 2666TIP3    H1 7934   4.882   3.432   2.402  0.5035  0.7489 -0.3523
 2666TIP3    H2 7935   4.825   3.336   2.299  0.2402  0.6331 -0.0981
 2667TIP3   OH2 7936   1.773   7.143   2.456 -0.5271  0.7972 -0.2084
 2667TIP3    H1 7937   1.805   7.053   2.466 -1.9156  0.2616 -0.4262
 2667TIP3    H2 7938   1.806   7.189   2.533  0.9214  0.3283 -0.5306
 2668TIP3   OH2 7939   5.694   0.597   0.510  0.6359 -0.1633 -0.4165
 2668TIP3    H1 7940   5.679   0.662   0.442  1.1428  0.5560  0.1500
 2668TIP3    H2 7941   5.786   0.609   0.535 -0.0014  0.8085  1.6413
 2669TIP3   OH2 7942   4.734   1.742   4.000 -0.0064 -0.1237 -0.0545
 2669TIP3    H1 7943   4.665   1.698   4.049  0.2879 -1.0666 -0.4854
 2669TIP3    H2 7944   4.690   1.816   3.959 -0.1556  1.0078  2.0617
 2670TIP3   OH2 7945   4.391   1.923   1.066  0.6398 -0.5295  0.1188
 2670TIP3    H1 7946   4.355   1.879   0.988  1.6518  0.1953 -0.7775
 2670TIP3    H2 7947   4.486   1.916   1.055  0.7940  0.6135  0.7061
 2671TIP3   OH2 7948   4.931   3.557   2.034 -0.0783  0.2379 -0.2828
 2671TIP3    H1 7949   5.021   3.564   2.067 -0.8022  0.2969  1.7383
 2671TIP3    H2 7950   4.923   3.465   2.008  0.6011  0.2527 -0.5655
 2672TIP3   OH2 7951   4.768   2.883   3.023  0.1708 -0.8360  0.3727
 2672TIP3    H1 7952   4.707   2.846   2.958 -2.9784  2.5735  1.2331
 2672TIP3    H2 7953   4.717   2.950   3.069  4.0425  0.8110  2.5273
 2673TIP3   OH2 7954   4.237   1.928   1.968 -0.2562 -0.0092 -0.1251
 2673TIP3    H1 7955   4.217   1.877   1.889  0.6175  0.3726 -0.5929
 2673TIP3    H2 7956   4.332   1.930   1.972 -0.2927 -0.0944  0.9946
 2674TIP3   OH2 7957   5.765   2.132   4.620  0.1968  0.1844  0.5670
 2674TIP3    H1 7958   5.747   2.221   4.590  3.2024  0.2973 -1.1882
 2674TIP3    H2 7959   5.805   2.090   4.543 -2.2994 -3.0665  0.9785
 2675TIP3   OH2 7960   2.999   2.261   2.823 -0.2025  0.0145  0.2917
 2675TIP3    H1 7961   3.050   2.180   2.827 -1.1201 -0.5675  0.6404
 2675TIP3    H2 7962   2.913   2.236   2.859 -0.5736  1.0794  0.1565
 2676TIP3   OH2 7963   3.987   3.195   3.591  0.0361  0.3074 -0.2648
 2676TIP3    H1 7964   4.005   3.286   3.566  0.8882  0.9899  2.5436
 2676TIP3    H2 7965   4.072   3.160   3.617 -0.7636 -0.2545  1.7109
 2677TIP3   OH2 7966   4.802   3.006   3.413  0.2978  0.8109 -0.2035
 2677TIP3    H1 7967   4.810   2.952   3.492 -1.3208  0.6435 -0.1345
 2677TIP3    H2 7968   4.772   3.091   3.446  4.4021  2.3257 -0.1308
 2678TIP3   OH2 7969   4.485   2.369   2.101  0.4591  0.1671 -0.0372
 2678TIP3    H1 7970   4.517   2.299   2.158 -1.0159  0.2128  0.8682
 2678TIP3    H2 7971   4.434   2.425   2.158  0.4044  1.1762 -1.0608
 2679TIP3   OH2 7972   5.329   2.981   2.643  0.0490 -0.4367 -0.0797
 2679TIP3    H1 7973   5.343   3.036   2.566  2.7010  0.3686  0.9466
 2679TIP3    H2 7974   5.345   3.039   2.718 -1.4647 -1.4786  1.0964
 2680TIP3   OH2 7975   5.357   4.082   0.301 -0.1263 -0.3190 -0.2012
 2680TIP3    H1 7976   5.352   4.001   0.353  1.5845 -0.2916  0.0357
 2680TIP3    H2 7977   5.325   4.150   0.361 -1.0450 -0.7353 -0.2136
 2681TIP3   OH2 7978   5.890   1.380   3.666  0.2722  0.2126 -0.1188
 2681TIP3    H1 7979   5.934   1.454   3.624  1.6328 -0.8719 -0.6662
 2681TIP3    H2 7980   5.852   1.416   3.746  1.3390  1.3898 -0.1311
 2682TIP3   OH2 7981   2.749   2.854   0.632 -0.7144 -0.3804 -0.4152
 2682TIP3    H1 7982   2.656   2.846   0.654 -0.5758 -1.5273 -0.1859
 2682TIP3    H2 7983   2.754   2.836   0.539 -0.7469 -0.0979 -0.4720
 2683TIP3   OH2 7984   5.328   4.335   3.181 -0.6530 -0.3973  0.1607
 2683TIP3    H1 7985   5.277   4.259   3.210  2.4002 -2.0215  1.5272
 2683TIP3    H2 7986   5.371   4.305   3.101  0.0825  0.1032  0.3649
 2684TIP3   OH2 7987   5.191   0.317   4.177  0.2917  0.6501  0.1268
 2684TIP3    H1 7988   5.153   0.382   4.119 -0.6179  0.1709  0.1662
 2684TIP3    H2 7989   5.116   0.285   4.229  0.3815 -1.6380 -1.0713
 2685TIP3   OH2 7990   3.664   1.448   1.943 -0.0413 -0.0967 -0.1403
 2685TIP3    H1 7991   3.722   1.425   1.870  0.2520 -1.3996  0.4971
 2685TIP3    H2 7992   3.601   1.510   1.905 -2.5504 -3.9418 -2.6528
 2686TIP3   OH2 7993   5.279   2.645   2.175 -0.3180  0.4282  0.8268
 2686TIP3    H1 7994   5.207   2.677   2.121 -0.6349 -1.8184 -0.1427
 2686TIP3    H2 7995   5.295   2.715   2.238 -1.9385  1.8363 -0.2962
 2687TIP3   OH2 7996   3.446   3.351   4.089  0.3022  0.0206  0.6197
 2687TIP3    H1 7997   3.436   3.313   4.176 -0.9367 -0.0891  0.4430
 2687TIP3    H2 7998   3.402   3.436   4.094 -1.6845 -0.9145 -0.4840
 2688TIP3   OH2 7999   2.484   3.053   1.341  0.7108  0.5158 -0.4447
 2688TIP3    H1 8000   2.411   3.034   1.401 -0.2015  1.4079 -1.2463
 2688TIP3    H2 8001   2.441   3.078   1.259  1.9417  0.2613 -1.1670
 2689TIP3   OH2 8002   5.734   1.715   1.924  0.3216 -0.4980  0.1219
 2689TIP3    H1 8003   5.748   1.680   1.835  0.8310 -1.7293  0.6709
 2689TIP3    H2 8004   5.711   1.638   1.976 -2.3625  0.5367  0.5876
 2690TIP3   OH2 8005   5.340   1.478   4.308  0.1450  0.2383 -0.0643
 2690TIP3    H1 8006   5.347   1.409   4.243 -0.0996 -0.8999  1.1066
 2690TIP3    H2 8007   5.270   1.535   4.276 -1.9370 -1.8786  0.6186
 2691TIP3   OH2 8008   4.004   1.124   3.483  0.3090  0.7925  0.3661
 2691TIP3    H1 8009   3.986   1.038   3.521 -0.4063  0.1658 -1.3485
 2691TIP3    H2 8010   3.917   1.164   3.471  0.5659  1.2847  0.0988
 2692TIP3   OH2 8011   4.336   2.228   1.876 -0.0269  0.3840 -0.5482
 2692TIP3    H1 8012   4.376   2.146   1.906  1.4992  1.9661  1.9951
 2692TIP3    H2 8013   4.404   2.294   1.890 -1.4190  2.1897 -2.0412
 2693TIP3   OH2 8014   3.171   4.041   0.454  0.4597  0.0948  0.0491
 2693TIP3    H1 8015   3.236   4.042   0.524  1.4575  0.7055 -0.8748
 2693TIP3    H2 8016   3.222   4.032   0.374 -0.7318 -1.4672 -0.5605
 2694TIP3   OH2 8017   4.504   0.110   2.083  0.2065  0.0041  0.1734
 2694TIP3    H1 8018   4.515   0.191   2.134 -1.2340 -0.0778  0.6593
 2694TIP3    H2 8019   4.463   0.049   2.145  0.2805 -0.7387 -0.5090
 2695TIP3   OH2 8020   3.861   1.955   2.861 -0.0104  0.1968 -0.5368
 2695TIP3    H1 8021   3.819   1.901   2.929 -1.3067 -1.2437 -2.4348
 2695TIP3    H2 8022   3.865   2.042   2.899 -2.5757 -0.1467  0.6413
 2696TIP3   OH2 8023   2.542   1.357   4.807  0.3008 -0.5252 -0.0623
 2696TIP3    H1 8024   2.593   1.332   4.884 -1.2531 -0.5669  0.9765
 2696TIP3    H2 8025   2.567   1.448   4.791 -0.1942 -0.1524  1.1950
 2697TIP3   OH2 8026   6.267   3.579   3.209  0.3631 -0.7892  0.4969
 2697TIP3    H1 8027   6.339   3.634   3.240 -0.7315  1.2301 -0.4685
 2697TIP3    H2 8028   6.302   3.534   3.132  0.5766  0.2523 -0.0234
 2698TIP3   OH2 8029   3.829   1.100   4.124  0.1090 -0.1904 -0.0340
 2698TIP3    H1 8030   3.794   1.062   4.043 -0.6388 -1.5325  0.8944
 2698TIP3    H2 8031   3.792   1.188   4.128 -0.0886 -0.2274 -0.9979
 2699TIP3   OH2 8032   6.615   3.448   4.613  0.7078  0.5350 -0.2266
 2699TIP3    H1 8033   6.582   3.373   4.564 -0.5208  0.5933  0.4763
 2699TIP3    H2 8034   6.704   3.424   4.637  2.1049  1.3533 -4.2310
 2700TIP3   OH2 8035   5.659   3.466   0.564 -0.7114  0.0231 -0.0625
 2700TIP3    H1 8036   5.642   3.522   0.488 -1.3782 -1.2505 -0.8575
 2700TIP3    H2 8037   5.572   3.445   0.598 -0.5280 -1.5127 -0.4991
 2701TIP3   OH2 8038   4.635   0.642   1.151  0.0999 -0.3254 -0.3080
 2701TIP3    H1 8039   4.664   0.626   1.062 -0.4598 -0.7367 -0.4187
 2701TIP3    H2 8040   4.633   0.556   1.192  0.6934 -0.0986  0.2079
 2702TIP3   OH2 8041   6.688   2.601   4.487  0.6658  0.2824  0.7112
 2702TIP3    H1 8042   6.601   2.579   4.454  0.8134  1.7270 -0.7259
 2702TIP3    H2 8043   6.675   2.619   4.580 -0.6425  0.7885  0.4452
 2703TIP3   OH2 8044   3.249   3.005   1.517 -0.1605 -0.0058  0.3172
 2703TIP3    H1 8045   3.224   3.073   1.580  0.8078 -0.2406  0.9700
 2703TIP3    H2 8046   3.220   2.923   1.557 -1.4398  0.0173 -0.5278
 2704TIP3   OH2 8047   3.259   1.784   2.300  0.5225 -0.7373  0.5448
 2704TIP3    H1 8048   3.247   1.821   2.387  2.1864  0.0888  0.4587
 2704TIP3    H2 8049   3.341   1.734   2.306  0.7555 -0.5157 -0.5706
 2705TIP3   OH2 8050   4.387   2.371   4.099  0.1715 -0.6193  0.6693
 2705TIP3    H1 8051   4.466   2.425   4.095 -0.6916  0.6641  0.5430
 2705TIP3    H2 8052   4.319   2.424   4.058 -0.5222 -2.1690 -0.2444
 2706TIP3   OH2 8053   4.296  -0.006   1.921  0.8471  0.0158 -0.2555
 2706TIP3    H1 8054   4.367   0.012   1.982 -0.8806 -0.1682  1.8580
 2706TIP3    H2 8055   4.337   0.001   1.834  3.4952 -0.4245  0.9067
 2707TIP3   OH2 8056   8.375   7.505   4.465 -0.3988  0.0114 -0.2483
 2707TIP3    H1 8057   8.451   7.501   4.522  0.3075 -0.6606 -1.2406
 2707TIP3    H2 8058   8.409   7.538   4.382 -1.1787 -0.3879 -0.7253
 2708TIP3   OH2 8059   3.261   1.023   3.436 -0.3438 -0.2286 -0.2546
 2708TIP3    H1 8060   3.352   1.015   3.405 -0.4317 -0.1264 -0.5437
 2708TIP3    H2 8061   3.238   1.114   3.419 -0.6003 -0.3309 -0.4640
 2709TIP3   OH2 8062   4.223   0.760   4.288 -0.1011  0.2913  0.0981
 2709TIP3    H1 8063   4.237   0.827   4.355  1.5576  0.2088 -0.1661
 2709TIP3    H2 8064   4.204   0.810   4.208  0.6677  0.4347  0.0067
 2710TIP3   OH2 8065   4.207   0.893   3.758 -0.5200 -0.3566 -0.8870
 2710TIP3    H1 8066   4.199   0.988   3.765  0.5504 -0.2574 -1.0181
 2710TIP3    H2 8067   4.133   0.867   3.703 -0.8466  0.3966 -0.8048
 2711TIP3   OH2 8068   4.758   3.292   4.816 -0.0560 -0.2285  0.0825
 2711TIP3    H1 8069   4.665   3.310   4.830  0.0842 -1.4015  2.8363
 2711TIP3    H2 8070   4.794   3.373   4.779 -1.8971  0.6945  0.2886
 2712TIP3   OH2 8071   3.808   1.489   1.234  0.1578 -0.1471  0.2085
 2712TIP3    H1 8072   3.881   1.492   1.172 -0.7715  0.1224 -0.8942
 2712TIP3    H2 8073   3.739   1.441   1.188 -0.8038  0.6932  0.7411
 2713TIP3   OH2 8074   5.635   3.575   4.074 -0.4227  0.1520  0.0484
 2713TIP3    H1 8075   5.671   3.662   4.058 -0.2278 -0.3883 -2.7299
 2713TIP3    H2 8076   5.709   3.516   4.063 -0.6392 -0.4059  1.5380
 2714TIP3   OH2 8077   4.020   1.800   1.293 -0.5790 -0.4849 -0.1707
 2714TIP3    H1 8078   4.071   1.856   1.352 -2.4865  0.8754  0.2515
 2714TIP3    H2 8079   4.044   1.711   1.317  1.4258  0.1102  0.1566
 2715TIP3   OH2 8080   5.899   4.001   2.501  0.2382 -0.1455  0.0011
 2715TIP3    H1 8081   5.833   3.968   2.441  1.0184  0.4057 -1.1894
 2715TIP3    H2 8082   5.864   4.084   2.533  0.5598  0.3909 -1.0140
 2716TIP3   OH2 8083   4.769   1.949   1.586  0.5269 -0.2545  0.4580
 2716TIP3    H1 8084   4.828   1.989   1.650  0.4135 -0.6548  0.8170
 2716TIP3    H2 8085   4.797   1.858   1.581  0.2675 -0.3239  0.2476
 2717TIP3   OH2 8086   3.662   5.106   3.079 -0.3418  0.0205  0.0419
 2717TIP3    H1 8087   3.616   5.022   3.081 -0.3696  0.0532  0.8782
 2717TIP3    H2 8088   3.638   5.144   2.994 -0.2714 -0.8429 -0.3719
 2718TIP3   OH2 8089   3.522   2.634   3.305 -0.6183 -0.3357  0.0643
 2718TIP3    H1 8090   3.596   2.605   3.252 -0.3751 -2.5417  1.5076
 2718TIP3    H2 8091   3.445   2.612   3.253 -0.2939  2.2160 -1.5589
 2719TIP3   OH2 8092   3.836   1.785   3.581  0.2643 -0.1634 -0.2566
 2719TIP3    H1 8093   3.824   1.699   3.622 -2.0983  0.8943  1.4222
 2719TIP3    H2 8094   3.853   1.766   3.489 -0.6982 -2.4207 -0.0044
 2720TIP3   OH2 8095   4.974   0.970   0.589 -0.1132 -0.2716 -0.3153
 2720TIP3    H1 8096   4.888   1.003   0.564 -0.3613 -0.5072  0.2126
 2720TIP3    H2 8097   4.957   0.883   0.625 -0.0127  0.7723  2.3708
 2721TIP3   OH2 8098   5.462   2.701   5.088  0.1110 -0.2612  0.7666
 2721TIP3    H1 8099   5.457   2.743   5.002 -0.9472  0.0203  0.9622
 2721TIP3    H2 8100   5.548   2.726   5.121 -0.3868  1.5360  0.7622
 2722TIP3   OH2 8101   2.561   2.374   1.500 -0.7587  0.2229  0.0562
 2722TIP3    H1 8102   2.508   2.453   1.511  2.3856  2.3932  0.1622
 2722TIP3    H2 8103   2.638   2.388   1.555  1.8552 -1.0734 -3.1224
 2723TIP3   OH2 8104   3.411   4.067   3.204  0.4265 -0.6664 -0.2466
 2723TIP3    H1 8105   3.469   3.993   3.188  3.0861  0.9040  1.8074
 2723TIP3    H2 8106   3.461   4.144   3.176 -0.7287  0.6879  1.2962
 2724TIP3   OH2 8107   3.198   2.761   1.642 -0.2269 -0.4786  0.1115
 2724TIP3    H1 8108   3.287   2.726   1.651  0.0274  0.5207  1.5285
 2724TIP3    H2 8109   3.142   2.685   1.659  0.3396 -0.9825 -0.2208
 2725TIP3   OH2 8110   3.982   3.289   4.175 -0.2154  0.0872  0.4210
 2725TIP3    H1 8111   3.892   3.320   4.175 -0.1996  0.1835  1.5893
 2725TIP3    H2 8112   3.980   3.210   4.229  0.1859 -0.5656 -0.5251
 2726TIP3   OH2 8113   3.606   2.692   2.362  0.1909  0.1107 -0.4145
 2726TIP3    H1 8114   3.609   2.652   2.275  2.4593 -0.4484 -0.1076
 2726TIP3    H2 8115   3.547   2.766   2.352 -1.4188 -1.3268 -1.8386
 2727TIP3   OH2 8116   4.597   3.429   2.562  0.5840 -0.0977 -0.0533
 2727TIP3    H1 8117   4.530   3.495   2.574  0.1297 -0.8488  1.7384
 2727TIP3    H2 8118   4.607   3.421   2.467 -0.2748  1.5816 -0.2976
 2728TIP3   OH2 8119   4.881   3.768   3.905  0.0443  0.0017  0.0029
 2728TIP3    H1 8120   4.835   3.750   3.824 -1.0284 -1.0146  0.8230
 2728TIP3    H2 8121   4.945   3.836   3.882  1.2774 -1.8522 -2.1681
 2729TIP3   OH2 8122   4.220   0.673   5.310  0.2234  0.1148  0.0734
 2729TIP3    H1 8123   4.253   0.666   5.400  0.3393 -0.6160 -0.0311
 2729TIP3    H2 8124   4.274   0.613   5.260  0.2118  0.5885 -0.5109
 2730TIP3   OH2 8125   6.173   2.876   3.790  0.4634 -0.3182  0.0339
 2730TIP3    H1 8126   6.175   2.784   3.763  1.2308 -0.3972  0.3430
 2730TIP3    H2 8127   6.082   2.902   3.777  0.6882 -0.5006 -2.1175
 2731TIP3   OH2 8128   6.106   2.900   2.250 -0.3957  0.0243 -0.6744
 2731TIP3    H1 8129   6.179   2.876   2.308 -2.1089  0.2477  1.6521
 2731TIP3    H2 8130   6.080   2.816   2.210 -0.1760 -0.3850  0.0309
 2732TIP3   OH2 8131   4.327   2.798   3.251  0.6547  0.0405  0.4281
 2732TIP3    H1 8132   4.364   2.874   3.295  0.9108  0.2200 -0.0970
 2732TIP3    H2 8133   4.306   2.737   3.322 -0.4384  0.9711  0.9307
 2733TIP3   OH2 8134   5.458   2.058   4.701 -0.2463 -0.1379  0.2528
 2733TIP3    H1 8135   5.534   2.103   4.666 -1.0074  0.3231 -0.8355
 2733TIP3    H2 8136   5.419   2.013   4.626 -0.3898 -1.3293  1.0214
 2734TIP3   OH2 8137   4.707   1.286   1.394  0.5105 -0.2097 -0.0022
 2734TIP3    H1 8138   4.752   1.216   1.347  0.3523 -0.9197  0.8871
 2734TIP3    H2 8139   4.765   1.306   1.468 -0.5773 -1.0729  1.1045
 2735TIP3   OH2 8140   4.278   4.500   2.428 -0.1044 -0.5468  0.5339
 2735TIP3    H1 8141   4.186   4.497   2.454  0.2367 -0.6647  1.7838
 2735TIP3    H2 8142   4.297   4.593   2.418  0.6365 -0.2542  4.0797
 2736TIP3   OH2 8143   2.957   3.039   2.514  0.1791 -0.1422 -0.1103
 2736TIP3    H1 8144   2.873   3.042   2.468 -1.0833 -2.0941  1.9233
 2736TIP3    H2 8145   3.011   2.981   2.460 -0.4227 -0.4053 -0.4382
 2737TIP3   OH2 8146   3.219   1.380   2.855  0.1101 -0.5118  0.2834
 2737TIP3    H1 8147   3.304   1.415   2.832 -0.2600 -1.6674 -3.0893
 2737TIP3    H2 8148   3.212   1.299   2.805 -3.3434  0.0294 -0.2206
 2738TIP3   OH2 8149   5.052   1.973   2.584  0.0475  0.1972  0.7277
 2738TIP3    H1 8150   4.964   2.012   2.583 -0.0258  0.0274  0.1061
 2738TIP3    H2 8151   5.069   1.956   2.677 -0.9903 -0.6711  0.7762
 2739TIP3   OH2 8152   4.294   1.414   3.009  0.1875 -0.8901 -0.1008
 2739TIP3    H1 8153   4.338   1.383   3.088  0.3169 -2.6624 -0.8327
 2739TIP3    H2 8154   4.295   1.338   2.950  0.6613  0.5756 -2.0407
 2740TIP3   OH2 8155   5.700   5.645   0.818 -0.0806 -0.7159  0.3531
 2740TIP3    H1 8156   5.746   5.562   0.817  0.3814 -0.4549 -0.2332
 2740TIP3    H2 8157   5.616   5.626   0.776  1.0513 -0.3099 -2.1805
 2741TIP3   OH2 8158   3.780   1.655   2.571  0.5365  0.0095  0.4863
 2741TIP3    H1 8159   3.842   1.701   2.628  0.7552  1.0343 -0.5430
 2741TIP3    H2 8160   3.826   1.647   2.487  1.6255 -4.6983  1.4072
 2742TIP3   OH2 8161   4.119   3.204   3.266 -0.3996  0.1051 -0.1067
 2742TIP3    H1 8162   4.073   3.269   3.214  0.7168  0.0701 -1.1689
 2742TIP3    H2 8163   4.055   3.133   3.278 -1.4695  1.1999  0.6904
 2743TIP3   OH2 8164   4.453   4.395   1.596 -0.0773  0.6465  0.7515
 2743TIP3    H1 8165   4.496   4.448   1.664 -0.4406 -0.4485  1.8632
 2743TIP3    H2 8166   4.363   4.384   1.628 -0.6854  1.4124 -0.6764
 2744TIP3   OH2 8167   4.481   2.574   2.595 -0.6572  0.6032  0.4952
 2744TIP3    H1 8168   4.573   2.581   2.617 -0.2625  1.0664 -1.2320
 2744TIP3    H2 8169   4.437   2.555   2.679  1.0648 -0.3668  1.2010
 2745TIP3   OH2 8170   4.319   1.868   3.504 -0.1723  0.2768 -0.4336
 2745TIP3    H1 8171   4.239   1.886   3.554  1.0193  0.4912  1.4310
 2745TIP3    H2 8172   4.311   1.921   3.425 -2.1594 -0.1856 -0.5710
 2746TIP3   OH2 8173   5.406   0.922   2.544  0.2243 -0.0615 -0.6697
 2746TIP3    H1 8174   5.418   0.850   2.606 -1.2811  1.1475  1.0989
 2746TIP3    H2 8175   5.493   0.940   2.510  1.7837  1.6149  3.8592
 2747TIP3   OH2 8176   3.703   1.904   3.799 -0.2621 -0.3203 -0.2297
 2747TIP3    H1 8177   3.747   1.889   3.716  2.3509  1.9993  0.6753
 2747TIP3    H2 8178   3.726   1.827   3.852  2.0445  0.4377 -0.0768
 2748TIP3   OH2 8179   3.076   1.284   3.633 -0.0385  0.2246  0.0631
 2748TIP3    H1 8180   3.008   1.243   3.579 -0.6590 -0.5140  1.3858
 2748TIP3    H2 8181   3.079   1.375   3.602 -1.9136  0.3679  0.2171
 2749TIP3   OH2 8182   5.939   2.586   2.797  0.4696  0.0508 -0.2347
 2749TIP3    H1 8183   5.846   2.567   2.787  0.4638 -0.5571  0.8287
 2749TIP3    H2 8184   5.965   2.626   2.714 -0.7720  0.3806 -0.4704
 2750TIP3   OH2 8185   5.701   1.880   1.478 -0.4265  0.0168 -0.0028
 2750TIP3    H1 8186   5.776   1.936   1.462 -0.9168  0.3672 -1.1136
 2750TIP3    H2 8187   5.662   1.914   1.559 -0.5148  1.0436 -0.4821
 2751TIP3   OH2 8188   6.339   0.452   3.338  0.4968 -0.1435 -0.1172
 2751TIP3    H1 8189   6.244   0.445   3.352  0.6106  0.8606  1.2254
 2751TIP3    H2 8190   6.359   0.544   3.352  2.0603 -0.7797  2.1996
 2752TIP3   OH2 8191   4.703   0.996   2.912  0.0794 -0.1399  0.1147
 2752TIP3    H1 8192   4.610   0.977   2.928  0.1508 -1.5608 -0.9799
 2752TIP3    H2 8193   4.746   0.911   2.922  1.0060  0.1854 -1.0805
 2753TIP3   OH2 8194   3.141   2.623   1.213  0.6531 -0.7907 -0.0137
 2753TIP3    H1 8195   3.135   2.699   1.270 -0.1254 -2.2725  1.9217
 2753TIP3    H2 8196   3.062   2.629   1.158  0.1821 -0.6208  0.6699
 2754TIP3   OH2 8197   3.162   0.966   0.932 -0.1272 -0.2045 -0.2154
 2754TIP3    H1 8198   3.165   0.897   0.867  0.2363 -2.2086  1.8575
 2754TIP3    H2 8199   3.198   1.043   0.888  0.8578 -1.7244 -2.1140
 2755TIP3   OH2 8200   7.352   2.844   4.419 -0.2916  0.2437 -0.0069
 2755TIP3    H1 8201   7.380   2.850   4.510 -1.7328  0.7544  0.4266
 2755TIP3    H2 8202   7.395   2.918   4.376  0.2720  0.0927  0.3004
 2756TIP3   OH2 8203   1.669   0.260   4.952 -0.5998  0.1422  1.0138
 2756TIP3    H1 8204   1.702   0.281   5.040 -0.0501  0.8827  0.6405
 2756TIP3    H2 8205   1.735   0.297   4.893 -1.8025  1.1324  0.2543
 2757TIP3   OH2 8206   3.518   3.811   2.599 -0.2841 -0.3392  0.1293
 2757TIP3    H1 8207   3.497   3.791   2.690  1.6761  1.3834  0.9988
 2757TIP3    H2 8208   3.453   3.876   2.573  0.3197  0.6022  0.9345
 2758TIP3   OH2 8209   3.545   0.019   4.683  0.0346  0.0117 -0.1309
 2758TIP3    H1 8210   3.637   0.030   4.708  0.0198 -0.5497  0.1640
 2758TIP3    H2 8211   3.501  -0.008   4.763 -0.3758  0.1846 -0.2946
 2759TIP3   OH2 8212   5.226   1.718   2.537  0.4071 -0.1812 -0.0183
 2759TIP3    H1 8213   5.245   1.670   2.456  0.1619 -1.9473  0.9286
 2759TIP3    H2 8214   5.193   1.802   2.508  0.1137 -0.8689 -1.7644
 2760TIP3   OH2 8215   2.094   0.534   2.872 -0.5435  0.1161  0.3955
 2760TIP3    H1 8216   2.083   0.630   2.870 -0.4499  0.1419  1.2367
 2760TIP3    H2 8217   2.144   0.517   2.951  0.8650 -0.4982 -0.6199
 2761TIP3   OH2 8218   4.006   3.573   1.895  0.2829  0.0652  0.5327
 2761TIP3    H1 8219   4.012   3.668   1.905 -0.6670  0.1403  0.4715
 2761TIP3    H2 8220   4.046   3.537   1.974  0.4633  0.5178  0.6491
 2762TIP3   OH2 8221   4.265   0.344   3.290 -0.2762 -0.3308 -0.3553
 2762TIP3    H1 8222   4.306   0.258   3.278 -1.0529 -0.4965 -1.9127
 2762TIP3    H2 8223   4.317   0.403   3.236 -0.6980 -0.1139 -0.5260
 2763TIP3   OH2 8224   6.679   4.400   2.771 -0.0075 -0.3433 -0.2648
 2763TIP3    H1 8225   6.711   4.488   2.749  0.3069 -0.1549  0.9253
 2763TIP3    H2 8226   6.584   4.406   2.760 -0.2645  0.8828  2.2449
 2764TIP3   OH2 8227   1.568   7.767   2.794  0.0841  0.0826 -0.2165
 2764TIP3    H1 8228   1.535   7.711   2.865 -1.3845 -0.2550 -1.1495
 2764TIP3    H2 8229   1.638   7.715   2.754  0.6586  0.1141  0.7284
 2765TIP3   OH2 8230   3.750   2.042   3.188  0.2860 -0.3204 -0.2300
 2765TIP3    H1 8231   3.732   1.952   3.158  0.8320 -1.3193  2.3685
 2765TIP3    H2 8232   3.668   2.070   3.228 -0.8659  1.4994 -3.6330
 2766TIP3   OH2 8233   2.397   2.752   3.493  0.2523  0.5134 -0.8688
 2766TIP3    H1 8234   2.437   2.801   3.564 -1.1310 -0.6526  0.7449
 2766TIP3    H2 8235   2.433   2.791   3.413  0.3265  3.1076  0.4139
 2767TIP3   OH2 8236   4.076   1.583   3.526 -0.4106 -0.4598 -0.1716
 2767TIP3    H1 8237   4.024   1.550   3.600 -0.2344  0.3934  0.3391
 2767TIP3    H2 8238   4.012   1.617   3.464 -0.4362  1.1074  0.7100
 2768TIP3   OH2 8239   5.606   2.396   0.639 -0.1426 -0.3855 -0.0016
 2768TIP3    H1 8240   5.615   2.319   0.695 -1.5961 -0.3645  0.2822
 2768TIP3    H2 8241   5.657   2.374   0.561 -0.0153 -1.3671  0.3401
 2769TIP3   OH2 8242   3.682   0.387   4.124 -0.1044 -0.2372 -0.0271
 2769TIP3    H1 8243   3.628   0.452   4.080 -0.6167  0.1984  1.2218
 2769TIP3    H2 8244   3.712   0.430   4.204  2.1264 -0.4646 -0.7030
 2770TIP3   OH2 8245   4.547   1.039   1.440  0.6392 -0.6029 -0.0776
 2770TIP3    H1 8246   4.556   1.030   1.345 -1.3460 -0.1362 -0.3164
 2770TIP3    H2 8247   4.592   1.121   1.460  2.1592 -1.3259 -0.4268
 2771TIP3   OH2 8248   3.091   1.019   5.679 -0.1289 -0.5488 -0.3673
 2771TIP3    H1 8249   3.054   1.071   5.751 -2.2185 -0.8140 -1.2086
 2771TIP3    H2 8250   3.180   1.053   5.668  0.7365 -1.4632  3.2514
 2772TIP3   OH2 8251   3.575   1.933   1.336  0.4903 -0.3702 -0.4638
 2772TIP3    H1 8252   3.560   2.026   1.317  1.5279 -0.3727 -1.3494
 2772TIP3    H2 8253   3.641   1.906   1.273  1.0303 -1.4260  0.5253
 2773TIP3   OH2 8254   4.744   2.208   4.612  0.0394 -0.0448  0.0552
 2773TIP3    H1 8255   4.705   2.268   4.548 -2.5164 -1.3344  0.3182
 2773TIP3    H2 8256   4.795   2.147   4.559  0.2352  0.5841 -0.4876
 2774TIP3   OH2 8257   6.454   1.603   3.863  0.4005  0.0982  0.0112
 2774TIP3    H1 8258   6.434   1.510   3.856  0.9837 -0.0139 -0.2058
 2774TIP3    H2 8259   6.415   1.630   3.946  0.0043 -0.2811 -0.0550
 2775TIP3   OH2 8260   5.504   3.911   3.661 -0.5018 -0.3258 -0.4543
 2775TIP3    H1 8261   5.563   3.865   3.602 -0.4593 -0.1612 -0.5401
 2775TIP3    H2 8262   5.463   3.978   3.607 -1.7790 -1.3191 -0.7193
 2776TIP3   OH2 8263   2.154   2.526   5.242 -0.4015 -0.1591  0.4135
 2776TIP3    H1 8264   2.146   2.437   5.275  0.6361 -0.9445 -1.3483
 2776TIP3    H2 8265   2.106   2.525   5.159  0.2370  0.7186  0.0264
 2777TIP3   OH2 8266   4.868   3.726   2.714 -0.5998  0.1639  0.2885
 2777TIP3    H1 8267   4.793   3.778   2.743 -0.3420  0.4277  0.4813
 2777TIP3    H2 8268   4.944   3.769   2.753 -0.3379 -0.0410  0.0057
 2778TIP3   OH2 8269   3.924   1.965   2.589 -0.7369  0.2126 -0.5183
 2778TIP3    H1 8270   3.942   2.059   2.580 -2.3816  0.6919  0.9235
 2778TIP3    H2 8271   3.922   1.950   2.683 -0.2024 -1.3602 -0.7333
 2779TIP3   OH2 8272   4.770   1.117   4.082 -1.2739 -0.5583 -0.2285
 2779TIP3    H1 8273   4.702   1.055   4.109 -0.6343 -0.4910  1.6623
 2779TIP3    H2 8274   4.845   1.095   4.138  0.4586 -1.0073 -2.6616
 2780TIP3   OH2 8275   6.440   1.802   4.803  0.2813  0.1387 -0.1874
 2780TIP3    H1 8276   6.463   1.821   4.713 -2.0707  1.0767 -0.6492
 2780TIP3    H2 8277   6.514   1.833   4.855  0.6530  1.7278 -1.6430
 2781TIP3   OH2 8278   3.905   0.493   2.102 -0.1733 -0.8685 -0.3024
 2781TIP3    H1 8279   3.851   0.555   2.054 -1.4390 -2.8285 -1.4869
 2781TIP3    H2 8280   3.994   0.527   2.094 -0.4748 -0.7108 -3.3463
 2782TIP3   OH2 8281   4.326   3.421   3.348  0.0615 -0.6104 -0.0898
 2782TIP3    H1 8282   4.382   3.438   3.272 -0.0879 -0.6539 -0.2091
 2782TIP3    H2 8283   4.251   3.374   3.312 -0.8288  0.8712 -0.1875
 2783TIP3   OH2 8284   4.637   3.211   1.053  0.2496  0.3517 -0.2210
 2783TIP3    H1 8285   4.565   3.268   1.027 -0.3862 -0.5448 -0.4378
 2783TIP3    H2 8286   4.716   3.262   1.035 -0.2276  0.3540 -2.4221
 2784TIP3   OH2 8287   5.417   3.806   2.375 -0.5336 -0.3844 -0.3917
 2784TIP3    H1 8288   5.380   3.729   2.419 -0.0270 -0.4415 -0.0611
 2784TIP3    H2 8289   5.381   3.802   2.286 -1.3050 -0.4425 -0.0765
 2785TIP3   OH2 8290   4.571   1.785   3.441 -0.2059  0.3625 -0.2787
 2785TIP3    H1 8291   4.607   1.799   3.528  1.3544 -1.2465 -0.6366
 2785TIP3    H2 8292   4.477   1.799   3.451 -0.0229  0.2832  1.6257
 2786TIP3   OH2 8293   5.537   2.124   2.785  0.0211 -0.5069  0.2655
 2786TIP3    H1 8294   5.474   2.060   2.819 -0.2177  0.4618  1.7049
 2786TIP3    H2 8295   5.491   2.208   2.791  0.8173 -0.0251 -0.3263
 2787TIP3   OH2 8296   5.039   0.928   4.052  0.1569 -0.1854 -0.0518
 2787TIP3    H1 8297   4.981   0.852   4.057 -2.1344  1.5602  0.6779
 2787TIP3    H2 8298   5.067   0.943   4.142 -1.4432  1.3759  0.1893
 2788TIP3   OH2 8299   5.751   2.643   4.047 -0.1479  0.2491  0.0931
 2788TIP3    H1 8300   5.671   2.663   3.998 -0.3786  0.4457  0.5508
 2788TIP3    H2 8301   5.751   2.548   4.055 -0.0873  0.2132 -0.3286
 2789TIP3   OH2 8302   5.176   2.977   4.255 -0.0503  0.2182 -0.7040
 2789TIP3    H1 8303   5.172   3.068   4.225 -0.2749  0.5318  0.2753
 2789TIP3    H2 8304   5.084   2.948   4.253 -0.1056  0.3483  0.0237
 2790TIP3   OH2 8305   6.449   0.786   3.608  0.1184  0.1098  0.5066
 2790TIP3    H1 8306   6.410   0.873   3.614 -1.5088 -0.5597 -0.1057
 2790TIP3    H2 8307   6.439   0.749   3.696  0.8602  0.5556  0.7820
 2791TIP3   OH2 8308   5.177   2.101   4.381  0.9661  0.7052  0.2885
 2791TIP3    H1 8309   5.089   2.061   4.378 -0.2660  3.3402  0.1625
 2791TIP3    H2 8310   5.182   2.153   4.301  2.9028  0.1122  0.0045
 2792TIP3   OH2 8311   3.406   3.454   4.652  0.9323 -0.2677  0.6811
 2792TIP3    H1 8312   3.439   3.477   4.739  0.7342  0.3514  0.5894
 2792TIP3    H2 8313   3.368   3.535   4.618  2.4508 -0.0929 -0.6424
 2793TIP3   OH2 8314   8.064   7.544   6.007  0.6007  0.1174 -0.1027
 2793TIP3    H1 8315   8.093   7.512   5.921  0.8652 -1.4789  0.5583
 2793TIP3    H2 8316   8.122   7.500   6.069  0.7238  1.6266  0.8742
 2794TIP3   OH2 8317   5.992   2.258   4.763  0.5545 -0.3749 -0.6182
 2794TIP3    H1 8318   5.910   2.252   4.714 -0.6439 -1.2889  1.4299
 2794TIP3    H2 8319   5.976   2.329   4.826  1.2172 -0.7454 -0.0291
 2795TIP3   OH2 8320   6.707   5.926   6.321  0.3338  0.3298  0.2706
 2795TIP3    H1 8321   6.677   5.949   6.233  0.6469 -1.1454 -0.2359
 2795TIP3    H2 8322   6.802   5.931   6.316  0.4233 -1.2122  0.0901
 2796TIP3   OH2 8323   3.914   2.705   1.704  0.3037  0.6527  0.3180
 2796TIP3    H1 8324   3.938   2.645   1.774 -0.3353 -0.7310 -0.6344
 2796TIP3    H2 8325   3.911   2.791   1.746  0.8340 -0.0249  1.7735
 2797TIP3   OH2 8326   2.480   2.925   0.718  0.2321  0.4184  0.1175
 2797TIP3    H1 8327   2.525   2.911   0.802  1.3064 -1.8795 -0.7885
 2797TIP3    H2 8328   2.501   3.015   0.694  0.6729  0.8083  1.8586
 2798TIP3   OH2 8329   5.401   3.411   0.632 -0.4112  0.2684  0.5013
 2798TIP3    H1 8330   5.327   3.351   0.643 -1.5490  0.9363 -2.9562
 2798TIP3    H2 8331   5.365   3.497   0.652  0.0845  0.3028  1.2402
 2799TIP3   OH2 8332   3.645   2.168   2.520  0.1634 -0.2675  0.5389
 2799TIP3    H1 8333   3.712   2.202   2.579 -0.2336  2.1867 -0.3874
 2799TIP3    H2 8334   3.593   2.108   2.574 -0.0432  1.7411  2.6174
 2800TIP3   OH2 8335   5.216   2.915   3.586 -0.3028 -0.2992  0.0421
 2800TIP3    H1 8336   5.203   2.991   3.528  0.1249 -0.9634 -0.9378
 2800TIP3    H2 8337   5.194   2.948   3.673 -1.0439  0.6955 -0.5048
 2801TIP3   OH2 8338   5.156   3.280   5.513 -0.2674  0.0243  0.4875
 2801TIP3    H1 8339   5.216   3.240   5.449 -1.3345  1.5498 -1.5010
 2801TIP3    H2 8340   5.091   3.211   5.531 -0.5773 -0.0498 -0.8919
 2802TIP3   OH2 8341   3.795   3.168   2.640 -0.1212  0.0784  0.4808
 2802TIP3    H1 8342   3.821   3.130   2.556  4.6718  2.8031  0.5286
 2802TIP3    H2 8343   3.769   3.257   2.618  0.6080  0.6218  1.8047
 2803TIP3   OH2 8344   4.268   3.947   1.137 -0.1520  0.3368  0.0602
 2803TIP3    H1 8345   4.319   3.872   1.166 -0.3602  0.5231  0.9050
 2803TIP3    H2 8346   4.333   4.015   1.120 -0.0627  0.3403  0.4210
 2804TIP3   OH2 8347   6.346   2.700   1.991  0.6614 -0.4313 -0.5463
 2804TIP3    H1 8348   6.269   2.672   1.942 -0.2635 -0.1853  0.7293
 2804TIP3    H2 8349   6.372   2.783   1.951 -0.3559 -0.0029 -0.3240
 2805TIP3   OH2 8350   5.310   0.971   2.175 -0.5249 -0.4164  0.7689
 2805TIP3    H1 8351   5.399   0.998   2.151 -1.6961  2.9117 -0.1751
 2805TIP3    H2 8352   5.272   0.937   2.094 -0.4780 -0.7974  0.9061
 2806TIP3   OH2 8353   6.793   0.907   2.223 -0.1170  0.6666  0.1385
 2806TIP3    H1 8354   6.798   0.941   2.312 -0.3456  2.7969 -0.6529
 2806TIP3    H2 8355   6.857   0.958   2.173  0.0244 -0.5140 -0.9213
 2807TIP3   OH2 8356   6.909   5.834   5.734 -0.5723  0.0725  0.1511
 2807TIP3    H1 8357   6.901   5.870   5.823  0.9962  0.2542  0.2276
 2807TIP3    H2 8358   6.999   5.802   5.729 -0.7269 -0.1604 -1.3018
 2808TIP3   OH2 8359   4.980   1.650   3.242 -0.0904  0.1300  0.0369
 2808TIP3    H1 8360   5.070   1.630   3.219 -0.3411  0.2731 -1.0942
 2808TIP3    H2 8361   4.950   1.709   3.173 -0.3186  1.9871  1.6645
 2809TIP3   OH2 8362   2.914   2.359   4.207  0.1676  0.6057  0.4725
 2809TIP3    H1 8363   2.818   2.354   4.208  0.2171 -1.1647 -0.7838
 2809TIP3    H2 8364   2.940   2.339   4.297 -0.6402  1.4644  0.9108
 2810TIP3   OH2 8365   4.550   3.882   2.126  0.2181 -0.5498 -0.4081
 2810TIP3    H1 8366   4.462   3.920   2.124  0.6076  0.3901  0.4022
 2810TIP3    H2 8367   4.607   3.951   2.094  0.7025 -1.0827 -0.7087
 2811TIP3   OH2 8368   7.933   3.165   2.782 -0.0673 -0.3328  1.0528
 2811TIP3    H1 8369   8.008   3.137   2.833 -0.1757  1.0896  2.0370
 2811TIP3    H2 8370   7.958   3.150   2.691  0.7639 -1.3721  1.4439
 2812TIP3   OH2 8371   4.411   1.462   2.713 -0.2098 -0.0763  0.3298
 2812TIP3    H1 8372   4.348   1.505   2.655  0.5405 -0.7475 -1.0015
 2812TIP3    H2 8373   4.367   1.382   2.741 -0.0615 -0.4190 -0.3977
 2813TIP3   OH2 8374   4.830   1.422   0.674 -0.0174 -0.2268 -0.0770
 2813TIP3    H1 8375   4.828   1.392   0.764 -0.3786 -2.0552 -0.6841
 2813TIP3    H2 8376   4.759   1.486   0.668 -0.0956 -0.2191  0.8677
 2814TIP3   OH2 8377   4.942   1.797   3.784 -0.4158  0.1191 -0.7606
 2814TIP3    H1 8378   4.908   1.754   3.863 -0.9246  0.1560 -0.9629
 2814TIP3    H2 8379   4.953   1.727   3.721 -1.0775  0.2601 -1.0318
 2815TIP3   OH2 8380   4.364   2.288   2.960  0.0639  0.6404 -0.8585
 2815TIP3    H1 8381   4.313   2.312   3.038 -0.7664  0.6966 -1.4170
 2815TIP3    H2 8382   4.310   2.224   2.915  1.0908 -0.3017 -0.7639
 2816TIP3   OH2 8383   4.142   2.321   3.838 -0.5564 -0.2707 -0.0107
 2816TIP3    H1 8384   4.175   2.308   3.749 -1.8301 -0.8777 -0.4039
 2816TIP3    H2 8385   4.130   2.233   3.873 -1.2191 -0.0495  0.3320
 2817TIP3   OH2 8386   4.143   0.866   3.094 -0.3237  0.3586 -0.2599
 2817TIP3    H1 8387   4.067   0.923   3.090 -0.3964  0.1943 -1.1522
 2817TIP3    H2 8388   4.133   0.806   3.021  0.9877  0.7474 -0.7744
 2818TIP3   OH2 8389   5.335   1.800   2.132 -0.0029  0.3358 -0.4788
 2818TIP3    H1 8390   5.264   1.841   2.182  0.3132  0.5262 -0.1832
 2818TIP3    H2 8391   5.293   1.726   2.088 -0.2757  0.1171  0.1319
 2819TIP3   OH2 8392   2.074   2.056   2.506 -0.0008 -0.4589  0.7203
 2819TIP3    H1 8393   2.126   1.976   2.517 -0.4820 -0.4856  3.1775
 2819TIP3    H2 8394   2.026   2.065   2.589 -2.1338  0.8342 -0.5928
 2820TIP3   OH2 8395   5.188   2.485   4.134  0.4722  0.2558  0.0337
 2820TIP3    H1 8396   5.098   2.518   4.137 -0.0022 -0.8047 -2.1233
 2820TIP3    H2 8397   5.240   2.558   4.169 -1.1100  1.2639  0.3648
 2821TIP3   OH2 8398   3.616   7.091   3.453  0.2870  0.1912  0.0182
 2821TIP3    H1 8399   3.588   7.151   3.384  3.0243  0.2710 -1.0729
 2821TIP3    H2 8400   3.593   7.135   3.534 -1.5524  0.8026 -0.8098
 2822TIP3   OH2 8401   2.377   3.230   3.439 -0.2565  0.4039 -0.3520
 2822TIP3    H1 8402   2.400   3.179   3.362  0.5834 -1.5428  1.1514
 2822TIP3    H2 8403   2.443   3.208   3.504 -1.2551  1.5842  1.1207
 2823TIP3   OH2 8404   6.561   2.183   2.742 -0.5986 -0.2510  0.4459
 2823TIP3    H1 8405   6.620   2.168   2.667  0.0280  0.1462  0.8527
 2823TIP3    H2 8406   6.475   2.193   2.703 -0.1639  0.6574 -0.2875
 2824TIP3   OH2 8407   5.503   1.684   3.669  0.3281  0.2063 -0.6423
 2824TIP3    H1 8408   5.547   1.740   3.733  0.4796 -0.3920 -0.2170
 2824TIP3    H2 8409   5.542   1.708   3.585 -1.2102  2.3618 -0.8014
 2825TIP3   OH2 8410   3.502   3.704   3.998  0.0395  0.1731 -0.0098
 2825TIP3    H1 8411   3.596   3.693   3.981  0.1274  0.7610  0.1118
 2825TIP3    H2 8412   3.460   3.653   3.928  0.4491 -0.4465  0.1849
 2826TIP3   OH2 8413   4.143   0.670   3.434  0.5234 -0.2697  0.3189
 2826TIP3    H1 8414   4.116   0.733   3.501 -1.0981 -0.6117  0.0014
 2826TIP3    H2 8415   4.169   0.593   3.484  1.6183  0.3063  0.6611
 2827TIP3   OH2 8416   4.844   3.229   4.410  0.6182 -0.9920 -0.8135
 2827TIP3    H1 8417   4.867   3.317   4.442 -0.4538 -0.4118 -1.5952
 2827TIP3    H2 8418   4.818   3.181   4.488  2.8682 -1.1621 -0.1296
 2828TIP3   OH2 8419   4.076   1.890   3.677 -0.4444 -0.2727  0.0695
 2828TIP3    H1 8420   4.009   1.853   3.620 -0.4004 -0.3984  0.0968
 2828TIP3    H2 8421   4.046   1.978   3.697  0.2119  0.2543 -1.2445
 2829TIP3   OH2 8422   4.590   2.470   3.207 -0.3528 -0.3077  0.1873
 2829TIP3    H1 8423   4.663   2.427   3.164 -1.6433 -1.5159 -0.8402
 2829TIP3    H2 8424   4.622   2.558   3.228  0.9446 -0.3916 -1.4125
 2830TIP3   OH2 8425   4.562   3.486   4.792  0.6109  0.3539  0.2546
 2830TIP3    H1 8426   4.514   3.548   4.737 -1.2435  0.9536  2.4654
 2830TIP3    H2 8427   4.499   3.417   4.812  1.2794  0.0655  1.4670
 2831TIP3   OH2 8428   4.986   4.674   3.354  0.5151  0.0179 -0.0383
 2831TIP3    H1 8429   4.972   4.753   3.407  2.5841  0.4799 -0.1014
 2831TIP3    H2 8430   4.903   4.627   3.358 -0.1699  1.2903  1.5361
 2832TIP3   OH2 8431   5.074   3.256   2.970 -0.2665 -0.5157  0.0312
 2832TIP3    H1 8432   5.007   3.209   2.920  1.2552 -2.6280 -0.1024
 2832TIP3    H2 8433   5.058   3.231   3.061 -1.2069  1.0066  0.3095
 2833TIP3   OH2 8434   6.110   2.627   4.787 -0.6295 -0.3442 -0.6396
 2833TIP3    H1 8435   6.061   2.579   4.854 -1.4826  0.5556 -0.5902
 2833TIP3    H2 8436   6.044   2.648   4.721 -0.6421  2.0425  0.0608
 2834TIP3   OH2 8437   3.477   2.791   3.529  1.0515  0.2922 -0.4172
 2834TIP3    H1 8438   3.493   2.751   3.444 -1.7535  0.2728 -0.9888
 2834TIP3    H2 8439   3.472   2.885   3.510  2.1952  0.4541  0.0376
 2835TIP3   OH2 8440   2.707   2.465   3.624  0.7233  0.6289  0.3997
 2835TIP3    H1 8441   2.724   2.558   3.614 -1.4934  0.9909 -0.2826
 2835TIP3    H2 8442   2.740   2.425   3.543 -1.7538  1.3475 -1.0178
 2836TIP3   OH2 8443   3.488   1.897   3.948 -0.0228  0.0825 -0.3917
 2836TIP3    H1 8444   3.432   1.836   3.900  0.6953  0.1777 -1.3684
 2836TIP3    H2 8445   3.552   1.927   3.884 -0.8244  2.4644 -0.1030
 2837TIP3   OH2 8446   3.951   1.395   3.184  0.0805 -0.8091  0.3437
 2837TIP3    H1 8447   4.028   1.394   3.241 -0.8891 -0.3616  1.6947
 2837TIP3    H2 8448   3.893   1.460   3.224 -0.4569 -0.2045 -1.3875
 2838TIP3   OH2 8449   3.382   0.369   3.024 -0.2373  0.0621  0.1982
 2838TIP3    H1 8450   3.287   0.384   3.030 -0.2080  0.3017  0.0789
 2838TIP3    H2 8451   3.416   0.450   2.986 -0.0087 -0.1022  0.0542
 2839TIP3   OH2 8452   5.926   1.972   2.327  0.0482  0.0314  0.5401
 2839TIP3    H1 8453   5.908   2.065   2.312 -0.8441 -0.0666  0.9704
 2839TIP3    H2 8454   5.840   1.931   2.332  0.4449 -0.9358 -0.3080
 2840TIP3   OH2 8455   3.811   3.784   2.578  0.3173  0.3533 -0.4994
 2840TIP3    H1 8456   3.867   3.813   2.506 -0.7350  0.6191 -1.2236
 2840TIP3    H2 8457   3.725   3.821   2.557 -0.4028 -1.0266 -0.0108
 2841TIP3   OH2 8458   7.755   7.903   0.929  0.4417  0.0501 -0.0210
 2841TIP3    H1 8459   7.740   7.826   0.874 -0.6041  0.8160 -0.8301
 2841TIP3    H2 8460   7.728   7.875   1.017  0.7954 -0.7432 -0.1598
 2842TIP3   OH2 8461   3.913   1.406   2.745  0.6672 -0.4972  0.0602
 2842TIP3    H1 8462   3.962   1.427   2.665  0.2642  0.4256  0.0447
 2842TIP3    H2 8463   3.962   1.449   2.815  0.2882 -0.1958  0.1396
 2843TIP3   OH2 8464   5.218   0.462   2.451  0.0832 -0.7529 -0.2885
 2843TIP3    H1 8465   5.267   0.419   2.520 -0.5565  1.7738  1.8329
 2843TIP3    H2 8466   5.278   0.527   2.415  0.0466 -1.3069 -1.3766
 2844TIP3   OH2 8467   5.747   1.199   3.504  0.3261 -0.0678 -0.6470
 2844TIP3    H1 8468   5.786   1.243   3.580 -1.1360  0.2470 -0.0655
 2844TIP3    H2 8469   5.732   1.269   3.441 -2.4300  0.4182  0.4561
 2845TIP3   OH2 8470   4.901   3.046   2.605  0.5368  0.3331 -0.1325
 2845TIP3    H1 8471   4.955   2.970   2.585  1.9759  0.7637  1.9981
 2845TIP3    H2 8472   4.932   3.114   2.545  2.2936  0.5339  0.9670
 2846TIP3   OH2 8473   2.671   3.268   0.859  0.3268 -0.2100 -0.1354
 2846TIP3    H1 8474   2.762   3.263   0.830  0.0425 -3.0096 -0.6997
 2846TIP3    H2 8475   2.626   3.312   0.787  0.5862 -2.2915 -1.6203
 2847TIP3   OH2 8476   2.805   2.115   1.214 -0.3453  0.3579  0.3370
 2847TIP3    H1 8477   2.836   2.031   1.180  0.3482  1.2098 -1.1762
 2847TIP3    H2 8478   2.712   2.101   1.232 -0.7223 -0.1355 -1.8676
 2848TIP3   OH2 8479   0.858   7.907   3.373  0.1997  0.1063 -0.1817
 2848TIP3    H1 8480   0.930   7.897   3.311 -1.0269  1.7481 -1.9318
 2848TIP3    H2 8481   0.891   7.969   3.438  0.8562 -0.2449 -0.1714
 2849TIP3   OH2 8482   4.837   3.803   0.965 -0.5206 -0.6930  0.0361
 2849TIP3    H1 8483   4.868   3.765   1.048 -1.3296 -0.4366  0.4533
 2849TIP3    H2 8484   4.891   3.761   0.898  1.3561  0.3738  0.8262
 2850TIP3   OH2 8485   5.775   2.192   2.294  0.1328  0.3546 -0.1514
 2850TIP3    H1 8486   5.733   2.203   2.379  0.5216 -1.3763  0.3037
 2850TIP3    H2 8487   5.714   2.230   2.231 -0.8296  0.3663  0.7718
 2851TIP3   OH2 8488   2.297   4.103   2.482  0.0496 -0.2170  0.3738
 2851TIP3    H1 8489   2.203   4.093   2.490  0.2166 -0.7927  1.8730
 2851TIP3    H2 8490   2.334   4.029   2.531  1.2871 -1.2213 -1.9849
 2852TIP3   OH2 8491   5.438   0.301   3.993  0.2640  0.3172 -0.3501
 2852TIP3    H1 8492   5.486   0.222   4.019 -0.1608  0.6031  1.3450
 2852TIP3    H2 8493   5.354   0.293   4.038  0.9499  2.6737  1.4180
 2853TIP3   OH2 8494   4.863   3.054   1.561  0.5061 -0.3613 -0.3764
 2853TIP3    H1 8495   4.775   3.088   1.580  0.2404  0.2837 -2.6880
 2853TIP3    H2 8496   4.854   2.959   1.569 -0.5573 -0.3362 -1.1462
 2854TIP3   OH2 8497   5.921   0.791   4.450  0.8204  0.0563  0.2346
 2854TIP3    H1 8498   5.885   0.835   4.373 -0.4640 -0.9316  0.2537
 2854TIP3    H2 8499   5.845   0.778   4.508  1.4372 -0.8672  0.8530
 2855TIP3   OH2 8500   4.343   3.869   3.897  0.6081 -0.1066  0.2461
 2855TIP3    H1 8501   4.317   3.927   3.825 -0.2368  2.0156  2.2240
 2855TIP3    H2 8502   4.434   3.846   3.878  0.6178  0.9932 -1.1083
 2856TIP3   OH2 8503   7.911   3.051   3.611 -0.2309  0.2551  0.2102
 2856TIP3    H1 8504   7.938   3.115   3.545  1.6925 -0.8372 -0.1202
 2856TIP3    H2 8505   7.815   3.049   3.606 -0.2151  1.8468 -0.9448
 2857TIP3   OH2 8506   6.107   1.800   3.116  0.3184  0.4915  0.0797
 2857TIP3    H1 8507   6.163   1.863   3.071  0.0327  0.2756 -0.5890
 2857TIP3    H2 8508   6.019   1.837   3.110 -0.2669 -1.2031 -2.6322
 2858TIP3   OH2 8509   5.520   3.562   4.782 -0.9476 -0.2646  0.4765
 2858TIP3    H1 8510   5.546   3.472   4.762 -0.9330  0.0858 -1.1094
 2858TIP3    H2 8511   5.549   3.575   4.872 -0.2344 -1.5880  0.4580
 2859TIP3   OH2 8512   7.737   3.125   4.003 -0.4427  0.0619 -0.1774
 2859TIP3    H1 8513   7.747   3.167   3.918  2.3765  1.9507  1.0104
 2859TIP3    H2 8514   7.824   3.091   4.023 -0.7050  0.8782  2.5502
 2860TIP3   OH2 8515   6.569   3.524   3.111 -0.5142  0.5682 -0.0629
 2860TIP3    H1 8516   6.557   3.599   3.170 -1.4205 -0.7974  1.5125
 2860TIP3    H2 8517   6.541   3.556   3.026 -1.9846  1.6909  0.8221
 2861TIP3   OH2 8518   4.782   2.279   3.130  0.1071  0.2686 -0.1860
 2861TIP3    H1 8519   4.836   2.267   3.208 -0.9869 -1.2560  0.3731
 2861TIP3    H2 8520   4.767   2.190   3.097 -0.6546  0.7890 -1.3018
 2862TIP3   OH2 8521   2.215   5.172   4.078 -0.0692  1.0434  0.2076
 2862TIP3    H1 8522   2.126   5.140   4.090  0.3348 -0.2749 -0.2306
 2862TIP3    H2 8523   2.232   5.225   4.157 -1.0716  0.9584  0.4920
 2863TIP3   OH2 8524   6.713   3.501   2.296  0.4400  0.3463 -0.0670
 2863TIP3    H1 8525   6.724   3.579   2.241 -2.3549 -0.0170 -1.2415
 2863TIP3    H2 8526   6.650   3.447   2.248  0.4293 -1.4889  1.9463
 2864TIP3   OH2 8527   8.121   6.475   6.450 -0.3032 -0.1564 -0.7405
 2864TIP3    H1 8528   8.100   6.460   6.542 -2.1736 -1.7822 -1.3965
 2864TIP3    H2 8529   8.178   6.552   6.450  0.4088 -0.6443  1.8322
 2865TIP3   OH2 8530   7.115   2.121   4.466  0.1561  0.0640 -0.5933
 2865TIP3    H1 8531   7.022   2.101   4.464  0.2324 -0.3267 -0.2752
 2865TIP3    H2 8532   7.145   2.090   4.552  1.2579 -2.8839 -1.9718
 2866TIP3   OH2 8533   6.565   5.287   1.743  0.1152  0.2318  0.0373
 2866TIP3    H1 8534   6.566   5.379   1.717  2.1656  0.1892 -0.1213
 2866TIP3    H2 8535   6.577   5.288   1.838  1.2652  0.0852 -0.1084
 2867TIP3   OH2 8536   4.318   0.515   2.266 -0.3232 -0.4782  0.5475
 2867TIP3    H1 8537   4.347   0.602   2.293 -1.7134 -0.0506  0.7206
 2867TIP3    H2 8538   4.262   0.531   2.190 -1.4308 -1.1223  1.2111
 2868TIP3   OH2 8539   7.594   2.598   3.997 -0.0263 -0.3347  0.4860
 2868TIP3    H1 8540   7.564   2.557   4.078  1.2717 -0.0107  1.1390
 2868TIP3    H2 8541   7.600   2.691   4.018  0.0675 -0.2185 -0.0606
 2869TIP3   OH2 8542   5.382   1.244   2.763 -0.2109 -0.1879  0.0871
 2869TIP3    H1 8543   5.333   1.224   2.842  1.1010 -0.1335  0.9317
 2869TIP3    H2 8544   5.332   1.203   2.692 -0.2351 -2.1542  1.2015
 2870TIP3   OH2 8545   6.537   3.978   3.511  0.5040 -0.1062  0.5742
 2870TIP3    H1 8546   6.553   3.904   3.453 -0.3170 -0.8398  1.2593
 2870TIP3    H2 8547   6.453   4.014   3.482  0.7999  0.4307  0.3764
 2871TIP3   OH2 8548   7.404   2.200   4.621 -0.1564  0.0660  0.3109
 2871TIP3    H1 8549   7.500   2.207   4.622 -0.3099  2.6081  1.0547
 2871TIP3    H2 8550   7.383   2.146   4.697  0.7456 -1.7963 -0.7291
 2872TIP3   OH2 8551   4.495   1.090   0.750 -0.0545  0.0579 -0.0688
 2872TIP3    H1 8552   4.583   1.094   0.788  0.8709 -0.8113 -2.0175
 2872TIP3    H2 8553   4.472   0.997   0.752 -0.6783  0.2074 -0.1409
 2873TIP3   OH2 8554   6.866   2.175   2.275 -0.2143  0.1214  0.4820
 2873TIP3    H1 8555   6.844   2.267   2.287  0.9860  0.4310  0.3446
 2873TIP3    H2 8556   6.938   2.175   2.213 -0.8246 -0.9761 -0.2556
 2874TIP3   OH2 8557   3.756   2.515   2.188  0.2881  0.1069 -0.0620
 2874TIP3    H1 8558   3.765   2.505   2.283 -0.6235  1.3043  0.1723
 2874TIP3    H2 8559   3.774   2.428   2.153  0.4426 -0.3982  1.2264
 2875TIP3   OH2 8560   5.749   0.597   3.337  0.7249 -0.3196 -0.5530
 2875TIP3    H1 8561   5.677   0.654   3.308 -0.1646 -1.4292 -0.5629
 2875TIP3    H2 8562   5.813   0.601   3.265  0.7530  0.7931 -0.4782
 2876TIP3   OH2 8563   3.496   2.072   2.314  0.5421  0.0802  0.4541
 2876TIP3    H1 8564   3.545   1.991   2.330  0.2064 -0.0894  0.6171
 2876TIP3    H2 8565   3.531   2.134   2.378  0.0516 -0.2448  1.0411
 2877TIP3   OH2 8566   5.543   2.103   4.408  0.4833 -0.6432  0.3829
 2877TIP3    H1 8567   5.546   2.046   4.332  2.5813 -1.3912  0.9779
 2877TIP3    H2 8568   5.622   2.158   4.400  0.2935 -0.1693  1.5804
 2878TIP3   OH2 8569   6.301   5.169   2.432 -0.3844 -0.0892 -0.1039
 2878TIP3    H1 8570   6.213   5.194   2.460 -0.6696 -0.7620 -0.3904
 2878TIP3    H2 8571   6.286   5.104   2.363  0.3203  0.5253 -0.8492
 2879TIP3   OH2 8572   7.527   3.869   2.704  0.2585 -0.3124  0.3982
 2879TIP3    H1 8573   7.492   3.870   2.614  0.2855  2.1701  0.3909
 2879TIP3    H2 8574   7.498   3.785   2.739  0.5408 -1.4888 -2.0490
 2880TIP3   OH2 8575   5.826   1.277   1.158  0.2241  0.3202 -0.2319
 2880TIP3    H1 8576   5.824   1.238   1.245  0.8307  1.9698  0.5422
 2880TIP3    H2 8577   5.798   1.367   1.171  0.0953  0.5217 -1.7777
 2881TIP3   OH2 8578   5.572   1.886   1.214  0.0446  0.0480  0.5929
 2881TIP3    H1 8579   5.481   1.912   1.225  0.1479  0.7559 -0.1975
 2881TIP3    H2 8580   5.601   1.859   1.301 -0.8844 -0.0686  0.8628
 2882TIP3   OH2 8581   4.296   0.842   1.560  0.0094  0.4459  0.2908
 2882TIP3    H1 8582   4.389   0.819   1.550  0.4077  2.1214 -0.0092
 2882TIP3    H2 8583   4.266   0.858   1.471 -1.1714 -2.2091  0.1560
 2883TIP3   OH2 8584   4.982   3.078   0.653 -0.3769  0.6159  0.3314
 2883TIP3    H1 8585   4.967   3.039   0.567 -1.0001  0.4985  0.4912
 2883TIP3    H2 8586   4.898   3.118   0.677  0.2298  2.0249  0.1911
 2884TIP3   OH2 8587   6.613   2.389   1.735 -0.1402  0.1319  0.3235
 2884TIP3    H1 8588   6.541   2.332   1.759 -0.7397  0.7110 -0.0802
 2884TIP3    H2 8589   6.690   2.349   1.776 -0.9469  0.4534  2.2216
 2885TIP3   OH2 8590   6.972   0.935   1.459 -0.2995  0.0949 -0.4161
 2885TIP3    H1 8591   6.961   1.030   1.453 -0.8740  0.1555  1.1937
 2885TIP3    H2 8592   6.897   0.899   1.412 -0.5086  0.4513 -0.3567
 2886TIP3   OH2 8593   0.959   3.325   1.431 -0.2901  0.0120 -0.4889
 2886TIP3    H1 8594   0.996   3.275   1.505  0.9064  0.8758 -0.5008
 2886TIP3    H2 8595   0.901   3.389   1.473 -0.7767 -0.4841 -0.3934
 2887TIP3   OH2 8596   6.958   2.580   2.719 -0.2915  0.3009 -0.6368
 2887TIP3    H1 8597   7.029   2.629   2.677  0.5718  1.0356  1.6421
 2887TIP3    H2 8598   6.998   2.498   2.747 -0.8627 -0.1787 -1.2083
 2888TIP3   OH2 8599   7.216   1.066   0.289 -0.2220  0.8744  0.1030
 2888TIP3    H1 8600   7.227   1.102   0.202 -0.7359  0.7943  0.0032
 2888TIP3    H2 8601   7.292   1.009   0.302 -0.2377  0.7476 -0.3632
 2889TIP3   OH2 8602   6.544   1.086   1.616 -0.0180 -0.1579 -0.1502
 2889TIP3    H1 8603   6.562   0.992   1.626 -1.2513 -0.5465 -1.3233
 2889TIP3    H2 8604   6.579   1.126   1.695 -1.3523 -1.8791  1.3397
 2890TIP3   OH2 8605   4.368   2.995   2.638  0.6199 -0.0569 -0.1228
 2890TIP3    H1 8606   4.339   3.023   2.551  1.5659 -2.2937 -1.2150
 2890TIP3    H2 8607   4.464   3.000   2.633  0.6486  0.8596  1.1785
 2891TIP3   OH2 8608   4.847   1.222   2.075 -0.2815  0.3910 -0.7686
 2891TIP3    H1 8609   4.852   1.231   2.170 -0.8919 -0.0192 -0.6956
 2891TIP3    H2 8610   4.863   1.129   2.058  1.0577  0.6824 -1.1623
 2892TIP3   OH2 8611   4.916   1.905   3.141  0.0202 -0.2792  0.1041
 2892TIP3    H1 8612   4.830   1.900   3.184  1.0564 -2.4785  2.0505
 2892TIP3    H2 8613   4.956   1.984   3.177 -0.5088 -0.2114  0.5604
 2893TIP3   OH2 8614   4.320   2.540   2.830  0.5944 -0.4365  0.5873
 2893TIP3    H1 8615   4.335   2.460   2.881 -1.9235 -0.8656  0.7220
 2893TIP3    H2 8616   4.304   2.607   2.896 -1.9166 -0.8329  0.4312
 2894TIP3   OH2 8617   5.589   3.976   3.123  0.0535  0.4874  0.3250
 2894TIP3    H1 8618   5.589   4.050   3.183  0.0876 -0.0475  0.9870
 2894TIP3    H2 8619   5.594   3.899   3.179 -2.0416 -0.0962 -0.2571
 2895TIP3   OH2 8620   6.646   0.669   2.642 -0.4596 -0.3452 -0.3031
 2895TIP3    H1 8621   6.655   0.580   2.606  2.3160 -0.3905  0.4116
 2895TIP3    H2 8622   6.686   0.725   2.575  2.2111 -0.1582  1.3777
 2896TIP3   OH2 8623   4.860   2.704   2.282 -0.2165  0.0401  0.2111
 2896TIP3    H1 8624   4.778   2.748   2.305  0.5276  1.0876  0.9480
 2896TIP3    H2 8625   4.857   2.621   2.329 -0.3608  0.5707  1.1525
 2897TIP3   OH2 8626   5.500   2.544   3.202  0.0291 -0.7537  0.2067
 2897TIP3    H1 8627   5.513   2.455   3.170  0.0256 -0.6818  0.0072
 2897TIP3    H2 8628   5.472   2.593   3.125 -0.4017 -0.6785  0.4111
 2898TIP3   OH2 8629   5.558   4.303   4.299  0.6482  0.2220 -0.2021
 2898TIP3    H1 8630   5.652   4.321   4.295  0.6632 -0.1587 -1.9942
 2898TIP3    H2 8631   5.534   4.321   4.390  2.5364 -0.1123  0.3855
 2899TIP3   OH2 8632   6.087   0.304   0.957  0.0062 -0.2649  0.4688
 2899TIP3    H1 8633   6.041   0.306   0.873 -0.8536 -1.2583  0.8947
 2899TIP3    H2 8634   6.090   0.211   0.980  0.2145  0.0014  1.5459
 2900TIP3   OH2 8635   8.246   7.113   5.488  0.1596  0.4828 -0.5548
 2900TIP3    H1 8636   8.340   7.116   5.471  0.1973 -0.6706 -0.5981
 2900TIP3    H2 8637   8.210   7.061   5.416  0.0064 -2.3255  1.4481
 2901TIP3   OH2 8638   6.819   5.084   2.524  0.5021 -0.3888 -0.1847
 2901TIP3    H1 8639   6.737   5.047   2.555 -0.1149  1.2922  0.2760
 2901TIP3    H2 8640   6.836   5.157   2.583  2.0952 -0.4436 -0.5530
 2902TIP3   OH2 8641   6.370   3.877   2.779  0.0075 -0.3181  0.2068
 2902TIP3    H1 8642   6.312   3.873   2.703  1.1574 -1.0451 -0.6444
 2902TIP3    H2 8643   6.418   3.959   2.768  0.4720 -0.6281 -0.0650
 2903TIP3   OH2 8644   4.021   4.842   2.491  0.2559  0.3324  0.0253
 2903TIP3    H1 8645   3.931   4.825   2.519  0.8836 -0.4269  1.6426
 2903TIP3    H2 8646   4.037   4.779   2.421  0.5470 -1.6549  1.8495
 2904TIP3   OH2 8647   5.608   1.556   2.435  0.5523  0.0954 -0.3343
 2904TIP3    H1 8648   5.627   1.471   2.396  0.2304  0.9069 -2.3054
 2904TIP3    H2 8649   5.594   1.537   2.528 -2.4312 -2.4401 -1.2162
 2905TIP3   OH2 8650   5.675   2.454   2.117  0.1365 -0.1709  0.3347
 2905TIP3    H1 8651   5.644   2.511   2.047  3.1775 -0.0843 -1.0145
 2905TIP3    H2 8652   5.614   2.381   2.118 -0.8416  0.6001 -1.3770
 2906TIP3   OH2 8653   4.579   1.913   0.769  0.2454 -0.7272  0.7469
 2906TIP3    H1 8654   4.582   2.009   0.767  1.1560 -0.7724 -1.1078
 2906TIP3    H2 8655   4.665   1.886   0.738 -0.0580 -2.1606  1.1143
 2907TIP3   OH2 8656   6.000   2.748   2.036 -0.5317 -0.2561 -0.0702
 2907TIP3    H1 8657   6.061   2.744   1.963  0.2887  1.6211  0.4852
 2907TIP3    H2 8658   5.920   2.705   2.004  0.6085 -1.5233 -1.2463
 2908TIP3   OH2 8659   4.120   2.050   1.025 -1.1435 -0.4228  0.1105
 2908TIP3    H1 8660   4.092   2.140   1.039 -0.4844 -0.1069 -0.5961
 2908TIP3    H2 8661   4.186   2.034   1.092 -3.3068 -1.3400  2.1341
 2909TIP3   OH2 8662   6.738   2.991   3.175  0.3469 -0.5836  0.1823
 2909TIP3    H1 8663   6.791   2.976   3.253  0.3401  0.7660  0.4515
 2909TIP3    H2 8664   6.741   3.085   3.161 -2.5968 -0.3934  0.6191
 2910TIP3   OH2 8665   4.013   0.282   6.693 -0.1687 -0.0972 -0.2190
 2910TIP3    H1 8666   4.090   0.252   6.644 -1.1411 -2.5957 -0.3161
 2910TIP3    H2 8667   3.960   0.328   6.628  0.0271 -0.6331 -0.7673
 2911TIP3   OH2 8668   5.088   1.772   2.772 -0.5215  0.3313 -0.1600
 2911TIP3    H1 8669   5.138   1.774   2.691 -0.8736  0.4004 -0.3778
 2911TIP3    H2 8670   5.017   1.711   2.755  0.6935 -1.3944  0.8700
 2912TIP3   OH2 8671   5.195   1.704   5.105  0.5956  0.4244 -0.4570
 2912TIP3    H1 8672   5.278   1.679   5.144 -0.4068 -1.9340  0.2679
 2912TIP3    H2 8673   5.197   1.666   5.017  0.2682  0.3589 -0.4365
 2913TIP3   OH2 8674   5.532   1.490   2.740 -0.5690  0.4657 -0.2882
 2913TIP3    H1 8675   5.501   1.400   2.739  0.0492  0.2573 -1.6410
 2913TIP3    H2 8676   5.586   1.496   2.819 -1.5678  0.0052  0.4544
 2914TIP3   OH2 8677   6.331   1.793   2.031 -0.1553  0.3480 -0.0620
 2914TIP3    H1 8678   6.244   1.809   2.069  0.3277  1.7175  0.5106
 2914TIP3    H2 8679   6.324   1.825   1.941 -0.1784  0.7029  0.0636
 2915TIP3   OH2 8680   5.187   1.149   1.740  0.0031  0.4339  0.0866
 2915TIP3    H1 8681   5.215   1.079   1.800  1.7031  1.5026  0.6067
 2915TIP3    H2 8682   5.174   1.225   1.797 -2.6323  0.3541 -0.3616
 2916TIP3   OH2 8683   6.774   0.506   1.817  0.4954 -0.1396  0.1349
 2916TIP3    H1 8684   6.809   0.584   1.860  3.0181 -2.0181  1.5785
 2916TIP3    H2 8685   6.694   0.486   1.864 -0.3372  1.7118 -0.4380
 2917TIP3   OH2 8686   5.981   3.600   1.960 -0.5571 -0.1938  0.2691
 2917TIP3    H1 8687   6.016   3.518   1.995 -1.9960 -0.8940  0.1063
 2917TIP3    H2 8688   5.952   3.649   2.037 -1.6054 -0.7424  0.2329
 2918TIP3   OH2 8689   4.585   0.411   1.274 -0.0102 -0.2729 -0.4275
 2918TIP3    H1 8690   4.554   0.434   1.362 -1.1000 -0.2042 -0.8183
 2918TIP3    H2 8691   4.626   0.326   1.285 -2.0899 -1.2869 -0.2343
 2919TIP3   OH2 8692   5.571   0.354   2.225  0.0582  0.3154  0.1485
 2919TIP3    H1 8693   5.644   0.303   2.190  0.3252  1.0683 -0.3919
 2919TIP3    H2 8694   5.607   0.401   2.300 -0.1617 -0.1782  0.5754
 2920TIP3   OH2 8695   6.376   3.512   1.372 -0.5537 -0.2803 -0.8803
 2920TIP3    H1 8696   6.363   3.592   1.423  1.4076 -1.2785  1.2875
 2920TIP3    H2 8697   6.442   3.536   1.307  0.7253 -0.3492  0.3661
 2921TIP3   OH2 8698   0.502   4.728   6.379  0.0605 -0.6101 -0.4097
 2921TIP3    H1 8699   0.557   4.668   6.330 -0.0851 -2.6623  1.8348
 2921TIP3    H2 8700   0.559   4.762   6.448 -0.6175 -0.3249  0.0158
 2922TIP3   OH2 8701   5.707   1.280   2.101  0.5096 -0.0985 -0.5025
 2922TIP3    H1 8702   5.671   1.214   2.042 -0.4089  0.6286 -0.7670
 2922TIP3    H2 8703   5.678   1.254   2.188  0.5927 -0.3336 -0.5456
 2923TIP3   OH2 8704   5.186   1.231   2.185  0.6767 -0.3478  0.4210
 2923TIP3    H1 8705   5.127   1.209   2.257 -1.4256 -2.9812 -1.9832
 2923TIP3    H2 8706   5.239   1.152   2.173  1.5031  0.3301 -0.4672
 2924TIP3   OH2 8707   5.776   1.439   0.767 -0.3433 -0.2705 -0.0632
 2924TIP3    H1 8708   5.775   1.472   0.677  0.7172 -1.0697 -0.3762
 2924TIP3    H2 8709   5.847   1.488   0.809  1.1494 -2.0197 -0.4912
 2925TIP3   OH2 8710   6.492   2.490   4.327 -0.3403 -0.0462 -0.5206
 2925TIP3    H1 8711   6.571   2.440   4.307 -0.0339  0.1578  0.1650
 2925TIP3    H2 8712   6.448   2.501   4.243 -0.5484 -1.7084 -0.6399
 2926TIP3   OH2 8713   5.613   3.192   2.009 -0.1151 -0.4094 -0.0561
 2926TIP3    H1 8714   5.634   3.245   1.932  0.0917 -2.0222 -1.1350
 2926TIP3    H2 8715   5.693   3.143   2.026  0.7559  1.8253  2.8133
 2927TIP3   OH2 8716   4.902   1.770   4.213  0.4777  0.8029 -0.3349
 2927TIP3    H1 8717   4.853   1.794   4.134 -0.4654  0.3174  0.0894
 2927TIP3    H2 8718   4.898   1.848   4.268 -0.6680  0.4365  0.1095
 2928TIP3   OH2 8719   3.857   0.636   0.581 -0.1432 -0.7660  0.4932
 2928TIP3    H1 8720   3.765   0.611   0.570  0.1564 -1.5205 -0.3389
 2928TIP3    H2 8721   3.855   0.731   0.589 -0.8657 -0.6343 -1.0234
 2929TIP3   OH2 8722   3.578   1.662   2.908  0.5663 -0.4686 -0.4266
 2929TIP3    H1 8723   3.660   1.705   2.931  0.7642 -0.9941 -0.1456
 2929TIP3    H2 8724   3.566   1.596   2.976  0.0307 -0.5499 -0.6000
 2930TIP3   OH2 8725   6.029   3.023   3.012 -0.0786 -0.5014  0.3587
 2930TIP3    H1 8726   6.033   2.927   3.008  1.9737 -0.4438  0.4054
 2930TIP3    H2 8727   6.108   3.052   2.966 -0.9816  1.1875 -0.1524
 2931TIP3   OH2 8728   3.967   2.536   1.934  0.5866 -0.1203  0.1788
 2931TIP3    H1 8729   3.985   2.442   1.936  1.0487 -0.0274  0.4955
 2931TIP3    H2 8730   3.901   2.549   2.001 -1.4793 -0.6221 -1.6982
 2932TIP3   OH2 8731   7.686   4.262   3.365  0.0451  0.4850  0.0406
 2932TIP3    H1 8732   7.722   4.292   3.281 -1.5865 -0.8154 -1.1658
 2932TIP3    H2 8733   7.625   4.193   3.341 -0.1593 -0.1769  2.3642
 2933TIP3   OH2 8734   5.191   4.063   2.886  0.1770 -0.2618  0.2730
 2933TIP3    H1 8735   5.148   4.093   2.806  1.0671  0.1578 -0.0619
 2933TIP3    H2 8736   5.188   3.968   2.881  3.1050 -0.3373 -1.9168
 2934TIP3   OH2 8737   3.882   1.542   1.484  0.9157  0.3332  0.2986
 2934TIP3    H1 8738   3.976   1.532   1.471  1.0579  1.6950  0.2225
 2934TIP3    H2 8739   3.843   1.506   1.404  1.5015  2.3517 -0.9236
 2935TIP3   OH2 8740   3.327   7.632   1.627  0.2133  0.1342  0.4081
 2935TIP3    H1 8741   3.232   7.649   1.623 -0.1017 -1.5693  0.2228
 2935TIP3    H2 8742   3.349   7.598   1.541  1.1891  1.3094  0.1689
 2936TIP3   OH2 8743   6.851   1.230   2.352 -0.4484  0.2226  0.1156
 2936TIP3    H1 8744   6.760   1.242   2.325 -0.7903  0.3479  1.2573
 2936TIP3    H2 8745   6.894   1.187   2.278 -1.6015 -0.4222 -0.1869
 2937TIP3   OH2 8746   7.030   3.384   1.638 -0.0282  0.3180 -0.3086
 2937TIP3    H1 8747   7.074   3.303   1.609  3.0602  1.9108 -0.3420
 2937TIP3    H2 8748   6.988   3.417   1.559 -2.7266 -2.0505  0.0646
 2938TIP3   OH2 8749   6.615   4.007   3.946  0.1575  0.1698  0.0558
 2938TIP3    H1 8750   6.542   3.986   4.004 -1.0400 -0.1965 -1.5814
 2938TIP3    H2 8751   6.609   3.943   3.875  2.5288 -0.3669  0.2947
 2939TIP3   OH2 8752   6.832   2.054   0.948 -0.3200  0.1053 -0.4375
 2939TIP3    H1 8753   6.847   2.144   0.918 -0.8253  0.3667  0.0916
 2939TIP3    H2 8754   6.796   2.010   0.872  1.1313  0.0129 -1.0929
 2940TIP3   OH2 8755   6.896   3.478   3.916  0.3435  0.5246  0.0775
 2940TIP3    H1 8756   6.828   3.545   3.918  0.3168  0.5100 -0.3934
 2940TIP3    H2 8757   6.969   3.517   3.965  1.0123  1.6493 -1.7543
 2941TIP3   OH2 8758   8.330   1.211   1.622 -0.6770 -0.0291  0.3037
 2941TIP3    H1 8759   8.258   1.245   1.569 -1.1603 -0.7295  0.5034
 2941TIP3    H2 8760   8.352   1.127   1.582 -1.8041 -1.1013  1.8783
 2942TIP3   OH2 8761   4.068   2.358   3.043  0.0790 -0.2826 -0.0969
 2942TIP3    H1 8762   4.038   2.418   3.111  0.0368 -0.2044 -0.1839
 2942TIP3    H2 8763   4.131   2.409   2.992 -0.2450 -0.1852 -0.4058
 2943TIP3   OH2 8764   5.054   2.737   2.054 -0.3207 -0.0316  0.4239
 2943TIP3    H1 8765   5.004   2.757   1.974 -0.7243  0.0646  0.6998
 2943TIP3    H2 8766   4.988   2.712   2.118  0.1243 -1.5930  0.2936
 2944TIP3   OH2 8767   5.731   1.372   3.286  0.0954  0.0760  0.3193
 2944TIP3    H1 8768   5.770   1.456   3.261  0.4968 -0.4895 -1.0192
 2944TIP3    H2 8769   5.642   1.376   3.250 -0.3562  0.4877  1.4735
 2945TIP3   OH2 8770   6.183   3.407   3.436 -0.2651 -0.2208  0.3665
 2945TIP3    H1 8771   6.176   3.491   3.390 -3.6346 -0.4741  0.3107
 2945TIP3    H2 8772   6.229   3.428   3.517  0.6771  1.3091 -0.5445
 2946TIP3   OH2 8773   6.538   2.236   3.146  0.0082  0.2293  0.0210
 2946TIP3    H1 8774   6.622   2.252   3.103  0.3362 -0.5514  0.3655
 2946TIP3    H2 8775   6.489   2.317   3.133 -0.1771 -0.2194 -2.4902
 2947TIP3   OH2 8776   5.164   0.620   2.130  0.4326  0.0726  0.8458
 2947TIP3    H1 8777   5.221   0.654   2.061 -1.6953 -2.0887 -2.0640
 2947TIP3    H2 8778   5.212   0.638   2.211  3.7603  1.2066 -1.2754
 2948TIP3   OH2 8779   6.115   4.293   0.049  0.4031 -0.0319  0.1288
 2948TIP3    H1 8780   6.144   4.346  -0.025  0.2911  1.9490  1.4776
 2948TIP3    H2 8781   6.031   4.331   0.075  0.4647 -0.6710  1.3134
 2949TIP3   OH2 8782   7.982   3.723   2.387  0.8128  0.0369  0.4174
 2949TIP3    H1 8783   7.992   3.715   2.482 -1.3494  3.3697  0.9855
 2949TIP3    H2 8784   7.899   3.680   2.367  0.9613 -0.1046  0.0855
 2950TIP3   OH2 8785   4.983   6.071   1.086 -0.0202 -0.0029 -0.2629
 2950TIP3    H1 8786   5.018   6.020   1.013  0.8783 -0.9912  0.8684
 2950TIP3    H2 8787   4.901   6.027   1.109  0.4634 -0.5810  0.3342
 2951TIP3   OH2 8788   5.253   2.269   1.500  0.4162  0.2987  0.0023
 2951TIP3    H1 8789   5.271   2.287   1.592 -0.2639 -3.1810  0.8805
 2951TIP3    H2 8790   5.161   2.245   1.497  0.2349  1.0991 -1.7382
 2952TIP3   OH2 8791   4.854   0.714   1.545  0.3500  0.7126 -0.4463
 2952TIP3    H1 8792   4.920   0.729   1.613  0.7048  0.1434 -0.6677
 2952TIP3    H2 8793   4.777   0.760   1.577  0.4070  0.1547  0.5115
 2953TIP3   OH2 8794   4.963   3.319   3.482 -0.2247  0.1745 -0.2770
 2953TIP3    H1 8795   4.898   3.293   3.417  0.1651 -0.3071 -0.4753
 2953TIP3    H2 8796   4.911   3.347   3.558 -0.7173  1.8486 -1.1918
 2954TIP3   OH2 8797   5.189   5.792   2.531  0.0070  0.1703 -0.1888
 2954TIP3    H1 8798   5.120   5.822   2.471  0.3683  1.6905  0.1442
 2954TIP3    H2 8799   5.267   5.841   2.504  0.5328 -0.2361  0.5862
 2955TIP3   OH2 8800   0.442   7.882   6.722  0.8627 -0.4316 -0.3051
 2955TIP3    H1 8801   0.397   7.960   6.754  0.0237 -0.5427 -1.1596
 2955TIP3    H2 8802   0.450   7.824   6.798  0.9544  0.2432  0.1944
 2956TIP3   OH2 8803   5.503   1.550   1.535 -0.0810 -0.1382  0.0264
 2956TIP3    H1 8804   5.594   1.565   1.510 -0.3861  0.2064 -0.8748
 2956TIP3    H2 8805   5.466   1.499   1.463 -0.1267 -1.8299  1.2226
 2957TIP3   OH2 8806   6.293   3.412   2.012 -0.1229 -0.2485  0.1075
 2957TIP3    H1 8807   6.320   3.320   2.012  0.3418 -0.1129 -0.5602
 2957TIP3    H2 8808   6.203   3.410   2.046  0.7702 -0.6797  2.5693
 2958TIP3   OH2 8809   6.821   4.564   2.107 -0.7593  0.3231 -0.1436
 2958TIP3    H1 8810   6.876   4.589   2.182 -0.0398  1.1091 -0.9192
 2958TIP3    H2 8811   6.827   4.638   2.047 -2.2569  0.1929 -0.4853
 2959TIP3   OH2 8812   4.428   3.657   1.906  0.1604  0.6240  0.0149
 2959TIP3    H1 8813   4.482   3.736   1.908  0.7367  0.2402 -0.0727
 2959TIP3    H2 8814   4.438   3.624   1.816  0.8992 -0.2060  0.3940
 2960TIP3   OH2 8815   4.088   2.642   1.513 -0.2552  0.1997 -0.5665
 2960TIP3    H1 8816   4.002   2.657   1.550 -0.5655  1.1254 -1.6448
 2960TIP3    H2 8817   4.120   2.729   1.488  0.9852 -0.1277 -0.1806
 2961TIP3   OH2 8818   0.468   1.051   0.944  0.2395  0.2100  0.0668
 2961TIP3    H1 8819   0.536   0.983   0.942  0.0243 -0.1004  1.9925
 2961TIP3    H2 8820   0.507   1.121   0.997  0.4811  1.6296 -1.9616
 2962TIP3   OH2 8821   6.163   6.395   3.460  0.5030  0.3624  0.1888
 2962TIP3    H1 8822   6.143   6.306   3.488  0.5698  0.2778 -0.0353
 2962TIP3    H2 8823   6.224   6.385   3.387 -1.1190  0.5261 -1.2253
 2963TIP3   OH2 8824   4.982   1.970   0.223  0.2103  0.3696 -0.6454
 2963TIP3    H1 8825   4.960   1.960   0.131 -0.7475 -0.8397 -0.2946
 2963TIP3    H2 8826   4.967   1.884   0.261  2.2041  0.4338  0.3199
 2964TIP3   OH2 8827   4.260   1.857   1.693  0.2045 -0.1169  0.2212
 2964TIP3    H1 8828   4.240   1.935   1.641  2.0693 -0.8028 -1.5857
 2964TIP3    H2 8829   4.356   1.850   1.690  0.1518 -1.6994  1.5334
 2965TIP3   OH2 8830   5.804   0.052   1.924  0.0483  0.2740 -0.4534
 2965TIP3    H1 8831   5.781   0.078   2.013  1.8235 -0.1253  0.1434
 2965TIP3    H2 8832   5.897   0.076   1.915 -0.4285  1.4785 -2.6357
 2966TIP3   OH2 8833   3.958   2.217   2.722 -0.2695  0.3969  0.0394
 2966TIP3    H1 8834   3.920   2.227   2.810  0.3198 -1.9908  0.5944
 2966TIP3    H2 8835   4.030   2.281   2.720 -0.8086  1.0483  0.9812
 2967TIP3   OH2 8836   5.699   0.325   1.491  0.1419 -0.1467  0.2252
 2967TIP3    H1 8837   5.727   0.240   1.524  0.7933 -0.5817 -1.4335
 2967TIP3    H2 8838   5.605   0.315   1.474  0.3375 -0.7127 -0.5190
 2968TIP3   OH2 8839   3.448   0.097   3.561 -0.2516 -0.2071 -0.0765
 2968TIP3    H1 8840   3.433   0.085   3.467  0.4832 -1.5669 -0.0298
 2968TIP3    H2 8841   3.402   0.024   3.602  0.8242 -0.5769  0.5010
 2969TIP3   OH2 8842   7.199   1.601   2.808  0.0571 -0.4842  0.1043
 2969TIP3    H1 8843   7.157   1.549   2.740  0.0643  1.7145 -1.6236
 2969TIP3    H2 8844   7.206   1.541   2.883 -0.7501 -2.6618 -1.5123
 2970TIP3   OH2 8845   5.297   1.936   1.236  0.5084 -0.5101 -0.2244
 2970TIP3    H1 8846   5.310   2.030   1.250 -1.9188 -0.2530  0.5087
 2970TIP3    H2 8847   5.221   1.931   1.178 -2.0809 -2.0748  3.1401
 2971TIP3   OH2 8848   6.003   2.218   2.747 -0.3444  0.2446 -0.0598
 2971TIP3    H1 8849   6.003   2.124   2.727  1.4634  0.6140 -1.8869
 2971TIP3    H2 8850   5.941   2.255   2.684  0.2724  0.5164 -0.5040
 2972TIP3   OH2 8851   6.724   1.229   3.434  0.0576  0.1145  0.1546
 2972TIP3    H1 8852   6.751   1.145   3.471  1.1001  0.6672  0.6832
 2972TIP3    H2 8853   6.682   1.274   3.507  0.1221  0.3203  0.0653
 2973TIP3   OH2 8854   4.481   1.741   0.517  0.0032  0.3453 -0.3692
 2973TIP3    H1 8855   4.441   1.828   0.525 -0.3966  0.0695  0.6984
 2973TIP3    H2 8856   4.423   1.694   0.457 -0.6559  0.3127  0.2852
 2974TIP3   OH2 8857   6.388   2.173   4.209  0.7584  0.9274 -0.4365
 2974TIP3    H1 8858   6.396   2.141   4.119  1.1074 -0.1304 -0.0447
 2974TIP3    H2 8859   6.296   2.198   4.218  0.4965  0.1278 -0.8065
 2975TIP3   OH2 8860   7.134   4.053   0.543  0.3201 -0.7197  0.0357
 2975TIP3    H1 8861   7.046   4.089   0.550 -0.2762 -1.8628 -1.3134
 2975TIP3    H2 8862   7.179   4.112   0.482 -0.1610 -1.2945 -0.8981
 2976TIP3   OH2 8863   5.570   2.291   3.097 -0.3691  0.2876  0.2282
 2976TIP3    H1 8864   5.658   2.265   3.069 -1.8056 -1.6956 -2.6874
 2976TIP3    H2 8865   5.542   2.220   3.156 -0.3462  0.4724  0.4608
 2977TIP3   OH2 8866   6.801   0.815   1.114 -0.4364  0.3920  0.1038
 2977TIP3    H1 8867   6.746   0.873   1.166  0.3937  1.5046 -0.2391
 2977TIP3    H2 8868   6.791   0.846   1.024 -0.4307 -0.3519 -0.1560
 2978TIP3   OH2 8869   5.165   2.675   0.850 -0.4445 -0.7994 -0.5121
 2978TIP3    H1 8870   5.132   2.624   0.776  0.9540 -0.9001 -1.0938
 2978TIP3    H2 8871   5.131   2.763   0.835 -1.0843 -1.0706 -0.6745
 2979TIP3   OH2 8872   2.681   7.941   1.552 -0.1816  0.4967 -0.4080
 2979TIP3    H1 8873   2.633   7.992   1.618  0.6404 -0.4668  0.9533
 2979TIP3    H2 8874   2.772   7.968   1.563  0.0107  0.0506 -0.8959
 2980TIP3   OH2 8875   5.304   2.907   5.169  0.5717 -0.4634  0.1876
 2980TIP3    H1 8876   5.345   2.821   5.156 -1.6417 -1.4460 -0.5085
 2980TIP3    H2 8877   5.318   2.954   5.087  0.2914 -0.8073 -0.0572
 2981TIP3   OH2 8878   5.555   1.950   1.999 -0.4390  0.0793 -0.4400
 2981TIP3    H1 8879   5.622   1.883   2.017 -0.0851  0.6852  0.5326
 2981TIP3    H2 8880   5.473   1.908   2.024 -0.3347 -0.3608 -0.8181
 2982TIP3   OH2 8881   5.205   3.232   0.986 -0.3380  0.0138  0.3526
 2982TIP3    H1 8882   5.160   3.314   1.006  0.4496  0.4176  0.4500
 2982TIP3    H2 8883   5.197   3.180   1.067 -0.4529  0.1644  0.4379
 2983TIP3   OH2 8884   4.436   3.931   1.786  0.3259 -0.0297  0.2185
 2983TIP3    H1 8885   4.502   3.944   1.719 -0.6804  0.9349 -0.6136
 2983TIP3    H2 8886   4.359   3.899   1.738  0.7218 -2.8438  1.4018
 2984TIP3   OH2 8887   4.262   4.163   2.922 -0.7553  0.0308  0.1057
 2984TIP3    H1 8888   4.287   4.254   2.933  0.4451 -0.2624 -0.1641
 2984TIP3    H2 8889   4.236   4.134   3.009 -1.5887  0.7548  0.1048
 2985TIP3   OH2 8890   6.096   0.995   4.483  0.4170  0.9716 -0.0405
 2985TIP3    H1 8891   6.034   1.067   4.480  0.0596  0.6649 -0.0649
 2985TIP3    H2 8892   6.041   0.916   4.488  0.7769  0.5772 -2.0350
 2986TIP3   OH2 8893   5.856   1.570   4.148  0.7145 -0.1854 -0.0383
 2986TIP3    H1 8894   5.762   1.572   4.167  0.4091  0.1821 -1.5366
 2986TIP3    H2 8895   5.894   1.635   4.207  0.3019 -1.6627  1.9262
 2987TIP3   OH2 8896   5.524   1.113   1.664  0.2327  0.2079 -0.0407
 2987TIP3    H1 8897   5.619   1.107   1.678  0.1368 -0.8962  0.1748
 2987TIP3    H2 8898   5.494   1.175   1.730  1.2026  2.8483 -2.0089
 2988TIP3   OH2 8899   4.516   3.169   4.092 -0.1668  0.0564 -0.2905
 2988TIP3    H1 8900   4.506   3.259   4.125 -2.1402  0.4151 -1.7470
 2988TIP3    H2 8901   4.434   3.126   4.116 -0.0719 -0.7635 -1.3867
 2989TIP3   OH2 8902   5.132   2.466   2.320  0.4876  0.1310 -0.2404
 2989TIP3    H1 8903   5.178   2.512   2.250  0.1267 -0.0204 -0.5857
 2989TIP3    H2 8904   5.200   2.441   2.382  0.9310 -0.4469 -0.9474
 2990TIP3   OH2 8905   5.732   2.690   1.937 -0.8484  0.2917  0.1629
 2990TIP3    H1 8906   5.637   2.702   1.948 -1.1114 -0.4815 -1.1563
 2990TIP3    H2 8907   5.740   2.634   1.860  0.6345 -1.3237  1.4666
 2991TIP3   OH2 8908   6.085   2.747   3.536  0.1100 -0.2233 -0.0404
 2991TIP3    H1 8909   6.071   2.761   3.443 -0.4809  1.4198  0.2758
 2991TIP3    H2 8910   6.009   2.788   3.578  1.2292  0.5808  1.2540
 2992TIP3   OH2 8911   4.901   2.423   2.779 -0.4046 -0.2198 -0.0081
 2992TIP3    H1 8912   4.821   2.372   2.765 -1.8320  2.0276 -0.2409
 2992TIP3    H2 8913   4.896   2.452   2.870 -0.0031  0.1610 -0.1046
 2993TIP3   OH2 8914   5.973   1.676   4.381 -0.1229  0.2419 -0.1036
 2993TIP3    H1 8915   5.889   1.697   4.422 -0.4978  1.2669 -1.3680
 2993TIP3    H2 8916   5.987   1.584   4.400 -1.2991  0.1908  0.5440
 2994TIP3   OH2 8917   6.316   0.148   1.873 -0.0444 -0.0003  0.5879
 2994TIP3    H1 8918   6.353   0.182   1.955 -0.6332  0.8004  0.5277
 2994TIP3    H2 8919   6.366   0.191   1.804  0.6650 -0.9171  0.5207
 2995TIP3   OH2 8920   6.600   5.534   1.577  0.4427 -0.1417  0.3659
 2995TIP3    H1 8921   6.606   5.482   1.497  1.6049 -0.3932  0.5989
 2995TIP3    H2 8922   6.527   5.594   1.562  1.2915  0.4963 -1.2790
 2996TIP3   OH2 8923   4.439   1.292   1.542 -0.0593  0.5844 -0.1483
 2996TIP3    H1 8924   4.368   1.229   1.533  1.0566 -0.8050  0.4620
 2996TIP3    H2 8925   4.451   1.302   1.637  0.4633  0.8819 -0.2421
 2997TIP3   OH2 8926   4.796   3.935   2.967 -0.5397 -0.0698  0.2322
 2997TIP3    H1 8927   4.844   3.994   2.908  0.1500 -0.5356  0.3214
 2997TIP3    H2 8928   4.808   3.974   3.054 -1.7079  0.7157  0.0483
 2998TIP3   OH2 8929   6.188   2.758   2.657 -0.0135 -0.0057 -0.8129
 2998TIP3    H1 8930   6.103   2.794   2.631 -0.7145 -0.2430  1.0514
 2998TIP3    H2 8931   6.226   2.825   2.713  0.2856 -0.6070 -0.2917
 2999TIP3   OH2 8932   7.017   3.681   2.787  0.3061  0.0990 -0.3571
 2999TIP3    H1 8933   7.021   3.622   2.862  0.0692 -1.0737 -1.2460
 2999TIP3    H2 8934   6.989   3.765   2.823 -0.3804 -0.6062  0.7790
 3000TIP3   OH2 8935   5.993   3.764   3.304 -0.3804  0.1863 -0.5921
 3000TIP3    H1 8936   6.052   3.776   3.230 -1.2123 -1.2017 -1.4940
 3000TIP3    H2 8937   6.002   3.672   3.328 -4.0723 -0.7046 -2.3954
 3001TIP3   OH2 8938   5.968   2.396   2.190 -0.0514  0.1569 -0.3464
 3001TIP3    H1 8939   5.901   2.453   2.152 -0.6143  2.5078  3.9106
 3001TIP3    H2 8940   5.919   2.323   2.228 -0.1061  1.1076  1.4461
 3002TIP3   OH2 8941   5.197   2.210   2.949 -0.8932 -0.6522 -0.3282
 3002TIP3    H1 8942   5.165   2.119   2.947 -0.5932 -0.7693  0.1993
 3002TIP3    H2 8943   5.209   2.229   3.042  1.3955 -0.9103 -0.5376
 3003TIP3   OH2 8944   7.017   3.893   3.654 -0.4028  0.0969 -0.4421
 3003TIP3    H1 8945   7.009   3.894   3.558  1.3000  0.7799 -0.6017
 3003TIP3    H2 8946   7.051   3.980   3.675  0.4042 -0.4845  0.6748
 3004TIP3   OH2 8947   7.427   4.684   6.193 -0.0853 -0.3248 -0.1007
 3004TIP3    H1 8948   7.489   4.745   6.232 -0.8244  0.6423 -0.4228
 3004TIP3    H2 8949   7.352   4.684   6.252 -0.3663 -0.4110 -0.4567
 3005TIP3   OH2 8950   6.735   2.021   2.883 -0.1716  0.4298  0.3385
 3005TIP3    H1 8951   6.679   2.097   2.865 -0.5373  0.0429 -0.1703
 3005TIP3    H2 8952   6.771   1.999   2.797  0.0913  0.1489  0.5236
 3006TIP3   OH2 8953   6.601   2.206   3.476 -0.2422 -0.0666  0.6924
 3006TIP3    H1 8954   6.557   2.125   3.503  0.3230 -0.8583 -0.6757
 3006TIP3    H2 8955   6.585   2.210   3.381  2.0791 -0.0279  0.2905
 3007TIP3   OH2 8956   4.846   1.553   4.348 -0.0090  0.1690 -0.8122
 3007TIP3    H1 8957   4.843   1.637   4.302 -1.0873  1.1753  1.0242
 3007TIP3    H2 8958   4.795   1.494   4.292  0.4354  0.8247 -1.9273
 3008TIP3   OH2 8959   5.702   2.578   3.670 -0.0981 -0.0370  0.2908
 3008TIP3    H1 8960   5.699   2.531   3.587  2.1519 -1.3050  0.9005
 3008TIP3    H2 8961   5.659   2.662   3.652  0.3511 -0.3103 -2.1453
 3009TIP3   OH2 8962   4.702   0.725   2.814 -0.7616  0.1347  0.3777
 3009TIP3    H1 8963   4.742   0.650   2.770 -0.8609  0.3270 -0.0467
 3009TIP3    H2 8964   4.742   0.802   2.772 -0.2168  0.3126  1.2282
 3010TIP3   OH2 8965   4.516   4.108   1.538  0.4678 -0.2206 -0.8331
 3010TIP3    H1 8966   4.512   4.202   1.556  0.2937 -0.5258  0.7732
 3010TIP3    H2 8967   4.608   4.085   1.550  0.4538 -0.3090 -0.8938
 3011TIP3   OH2 8968   4.481   0.705   0.491  0.0946 -0.7591  0.4317
 3011TIP3    H1 8969   4.456   0.718   0.582 -1.6419 -1.0633  0.0271
 3011TIP3    H2 8970   4.448   0.617   0.470  0.0820 -0.5071 -0.6079
 3012TIP3   OH2 8971   6.952   7.740   5.581  0.1866  0.3579  0.1380
 3012TIP3    H1 8972   6.861   7.731   5.608  0.4243 -1.5270  0.3951
 3012TIP3    H2 8973   6.948   7.771   5.491 -0.7459 -1.3467 -0.4199
 3013TIP3   OH2 8974   5.275   3.809   2.142  0.0157 -0.1285 -0.0716
 3013TIP3    H1 8975   5.206   3.809   2.209 -0.0590 -2.3766 -0.1138
 3013TIP3    H2 8976   5.243   3.748   2.076  1.7804 -0.7371 -0.3777
 3014TIP3   OH2 8977   6.160   2.079   3.560 -0.3496 -0.9601 -0.1504
 3014TIP3    H1 8978   6.211   2.021   3.502  0.0581 -1.0420  0.2826
 3014TIP3    H2 8979   6.200   2.066   3.646  0.2117  0.5002 -0.1772
 3015TIP3   OH2 8980   6.507   3.940   1.947  0.1279 -0.4047 -0.1983
 3015TIP3    H1 8981   6.509   3.844   1.947  2.3447 -0.3925  2.1186
 3015TIP3    H2 8982   6.597   3.966   1.932 -0.0773  1.2826  1.3441
 3016TIP3   OH2 8983   6.885   2.797   0.651 -0.0246 -0.9573 -0.0942
 3016TIP3    H1 8984   6.960   2.815   0.593  0.2511  0.9055  0.8237
 3016TIP3    H2 8985   6.925   2.772   0.734 -0.4091  1.4446  0.8275
 3017TIP3   OH2 8986   5.138   0.504   1.470  0.2913  0.2724 -0.1311
 3017TIP3    H1 8987   5.124   0.466   1.556  0.6636 -0.3183 -0.3287
 3017TIP3    H2 8988   5.070   0.466   1.414  0.7796 -0.2619 -0.3725
 3018TIP3   OH2 8989   6.306   3.366   1.704  0.5061 -0.3072  0.0832
 3018TIP3    H1 8990   6.319   3.433   1.771  3.2486 -0.7739  0.0926
 3018TIP3    H2 8991   6.316   3.413   1.621  1.3702 -0.4968  0.0755
 3019TIP3   OH2 8992   4.070   3.769   3.180  0.1197  0.1527  0.0586
 3019TIP3    H1 8993   4.151   3.753   3.131 -0.7064  0.1859 -1.3438
 3019TIP3    H2 8994   4.075   3.861   3.206  0.6467  0.0909  0.1765
 3020TIP3   OH2 8995   7.363   3.790   3.954  0.4627  0.5179  0.2730
 3020TIP3    H1 8996   7.305   3.727   3.911  1.4989 -0.4057  0.1886
 3020TIP3    H2 8997   7.381   3.856   3.888  0.2158  0.3329  0.0192
 3021TIP3   OH2 8998   6.188   2.610   3.998  0.4962 -0.0839  1.0126
 3021TIP3    H1 8999   6.175   2.604   3.904  0.6188 -0.9877  1.0465
 3021TIP3    H2 9000   6.252   2.541   4.018  0.5181  0.1441  1.7381
 3022TIP3   OH2 9001   6.529   0.676   1.252  0.7184  0.5940  0.1830
 3022TIP3    H1 9002   6.555   0.604   1.311  0.4823  0.3898  0.0373
 3022TIP3    H2 9003   6.577   0.658   1.171 -1.0191 -0.6154 -0.5956
 3023TIP3   OH2 9004   7.557   3.216   2.501  0.1307 -0.1001 -0.7308
 3023TIP3    H1 9005   7.482   3.263   2.465  1.4057  0.8905 -2.1333
 3023TIP3    H2 9006   7.520   3.134   2.534 -1.4906  0.1588 -1.8723
 3024TIP3   OH2 9007   6.077   4.482   0.973 -0.1947  0.0274 -0.4880
 3024TIP3    H1 9008   6.156   4.534   0.960 -0.7968  0.6551 -1.8738
 3024TIP3    H2 9009   6.052   4.497   1.064 -0.3876  2.2635 -0.8839
 3025TIP3   OH2 9010   5.421   2.376   1.744 -0.2426  0.3983 -0.0164
 3025TIP3    H1 9011   5.437   2.397   1.836  0.7217 -0.0231 -0.0821
 3025TIP3    H2 9012   5.487   2.427   1.696  0.4524 -0.7891 -0.3448
 3026TIP3   OH2 9013   6.320   0.742   4.706  0.2096  0.5962  0.0087
 3026TIP3    H1 9014   6.279   0.698   4.631 -0.2303  0.4124  0.3540
 3026TIP3    H2 9015   6.294   0.834   4.697 -1.0204  0.3307  0.7084
 3027TIP3   OH2 9016   5.220   1.895   1.533  0.2841  0.0883 -0.0046
 3027TIP3    H1 9017   5.277   1.919   1.460  0.4191 -0.7052 -0.1607
 3027TIP3    H2 9018   5.148   1.957   1.528  1.7216  1.8774  0.9173
 3028TIP3   OH2 9019   6.985   2.773   3.247 -0.1437  0.4396  0.3310
 3028TIP3    H1 9020   6.937   2.803   3.324  1.2677  3.5752  0.0693
 3028TIP3    H2 9021   6.983   2.848   3.187  1.8624 -0.6781 -1.2011
 3029TIP3   OH2 9022   7.195   1.006   1.920  0.4179  0.1527 -0.0096
 3029TIP3    H1 9023   7.255   1.070   1.882 -0.5900  0.8859 -0.3903
 3029TIP3    H2 9024   7.150   0.968   1.844 -0.9117  0.9346  0.3661
 3030TIP3   OH2 9025   7.245   6.214   2.496  0.0466  0.0256 -0.2672
 3030TIP3    H1 9026   7.185   6.216   2.421 -3.1883  1.2066  2.2350
 3030TIP3    H2 9027   7.271   6.122   2.503  0.9284  0.0036 -3.1941
 3031TIP3   OH2 9028   7.103   0.763   5.713 -0.2850 -0.1566  0.3231
 3031TIP3    H1 9029   7.086   0.755   5.807  0.1534  0.5544  0.4633
 3031TIP3    H2 9030   7.178   0.705   5.698 -0.2935 -0.1944  0.4262
 3032TIP3   OH2 9031   5.511   2.028   3.577 -0.1149 -0.2418  0.3969
 3032TIP3    H1 9032   5.592   2.073   3.601 -0.0387  0.1434 -0.5586
 3032TIP3    H2 9033   5.446   2.063   3.638  0.5938 -1.1542  1.7176
 3033TIP3   OH2 9034   6.219   0.867   0.376  0.0558  0.3691 -0.5325
 3033TIP3    H1 9035   6.211   0.959   0.402 -1.7748 -0.3487  1.6340
 3033TIP3    H2 9036   6.240   0.870   0.283 -0.4554  2.9756 -0.5989
 3034TIP3   OH2 9037   7.258   2.052   2.741  0.3346 -0.0676 -0.0682
 3034TIP3    H1 9038   7.209   2.001   2.807  1.7806 -2.2247 -0.6085
 3034TIP3    H2 9039   7.198   2.122   2.716 -1.3110 -0.8593  1.5126
 3035TIP3   OH2 9040   3.861   1.735   3.944  0.0412  0.0649 -0.5901
 3035TIP3    H1 9041   3.950   1.769   3.947  0.7088 -1.6925  1.8968
 3035TIP3    H2 9042   3.865   1.660   3.884  0.3174 -0.1823 -0.2657
 3036TIP3   OH2 9043   7.240   2.659   1.976  0.1514  0.6011  0.0833
 3036TIP3    H1 9044   7.173   2.607   2.021  1.1485  0.3535  1.3090
 3036TIP3    H2 9045   7.203   2.747   1.973 -1.8555 -0.2529 -2.6293
 3037TIP3   OH2 9046   6.969   4.368   2.941  0.7216  0.0200 -0.4987
 3037TIP3    H1 9047   6.884   4.353   2.900  0.7021 -0.3024 -0.3413
 3037TIP3    H2 9048   6.968   4.313   3.019  1.5502 -0.9199 -1.1354
 3038TIP3   OH2 9049   5.640   3.874   2.062  0.7929  0.2687 -0.5443
 3038TIP3    H1 9050   5.690   3.881   1.981 -0.1886  0.0408 -1.1774
 3038TIP3    H2 9051   5.571   3.940   2.054  0.1699 -0.3379 -0.2712
 3039TIP3   OH2 9052   6.087   2.879   1.599  0.3825  0.1460 -0.5693
 3039TIP3    H1 9053   6.122   2.953   1.549 -1.1742  0.6221 -0.9804
 3039TIP3    H2 9054   6.016   2.917   1.651 -1.6984 -1.3926 -2.2238
 3040TIP3   OH2 9055   2.601   0.707   3.809  0.0842  0.2684 -0.4272
 3040TIP3    H1 9056   2.528   0.751   3.852  0.1897 -0.1888  0.2420
 3040TIP3    H2 9057   2.560   0.645   3.749 -0.0970 -0.5787  0.5560
 3041TIP3   OH2 9058   4.348   3.992   3.651  0.3856 -0.3594  0.3185
 3041TIP3    H1 9059   4.303   4.070   3.683  2.0313  0.9577 -0.5032
 3041TIP3    H2 9060   4.354   4.006   3.556  0.1185 -1.7983  0.0849
 3042TIP3   OH2 9061   5.104   4.490   1.284  0.6364  0.2751  0.5315
 3042TIP3    H1 9062   5.129   4.398   1.296 -0.4602 -0.1714 -0.4542
 3042TIP3    H2 9063   5.050   4.510   1.360  0.8269  0.0817  0.7178
 3043TIP3   OH2 9064   6.827   4.672   2.416  0.3559 -0.2625  0.0271
 3043TIP3    H1 9065   6.904   4.615   2.409 -0.2698 -1.2045  0.7272
 3043TIP3    H2 9066   6.862   4.760   2.407  1.3513 -0.7484 -0.9678
 3044TIP3   OH2 9067   7.126   5.576   2.772 -0.7514  0.0942  0.2929
 3044TIP3    H1 9068   7.031   5.567   2.780 -0.8046 -0.2234 -0.5860
 3044TIP3    H2 9069   7.161   5.545   2.856 -1.4246  0.2091  0.6156
 3045TIP3   OH2 9070   7.858   2.686   2.179 -0.4015 -0.1997  0.2585
 3045TIP3    H1 9071   7.910   2.765   2.163 -0.6577 -0.1335 -0.2272
 3045TIP3    H2 9072   7.875   2.666   2.271 -0.3836  0.4604  0.4053
 3046TIP3   OH2 9073   2.879   3.395   1.559 -0.5717 -0.3151  0.3254
 3046TIP3    H1 9074   2.839   3.427   1.477 -0.3367  0.6253  0.5695
 3046TIP3    H2 9075   2.971   3.418   1.551 -0.5570 -0.1745  0.8707
 3047TIP3   OH2 9076   5.098   3.697   2.373  0.3161 -0.0726  0.0225
 3047TIP3    H1 9077   5.158   3.622   2.374  0.3247 -0.0841 -0.7676
 3047TIP3    H2 9078   5.013   3.660   2.401  0.1700 -0.5126 -0.9896
 3048TIP3   OH2 9079   4.524   4.641   3.627 -0.1793  0.0184 -0.2087
 3048TIP3    H1 9080   4.565   4.556   3.610 -0.3326 -0.3798  1.3164
 3048TIP3    H2 9081   4.430   4.623   3.627 -0.2311  0.2798 -0.3462
 3049TIP3   OH2 9082   5.032   2.348   0.821  0.3322 -0.5443  0.1654
 3049TIP3    H1 9083   5.095   2.316   0.886  0.9406 -1.1599 -0.7210
 3049TIP3    H2 9084   5.085   2.398   0.759 -0.0636 -1.0138 -0.5496
 3050TIP3   OH2 9085   5.068   2.888   1.749  0.6888 -0.9795 -0.6136
 3050TIP3    H1 9086   5.046   2.945   1.675  0.9729 -0.7654 -0.5329
 3050TIP3    H2 9087   4.986   2.844   1.771  0.1065  0.5662  0.3567
 3051TIP3   OH2 9088   6.304   3.444   2.914  0.1623  0.0602  0.0672
 3051TIP3    H1 9089   6.359   3.505   2.865 -0.1873  0.6628  0.4098
 3051TIP3    H2 9090   6.229   3.428   2.856 -0.0457  0.4428  0.2293
 3052TIP3   OH2 9091   5.356   2.399   2.494  0.1441  0.5529  0.4105
 3052TIP3    H1 9092   5.395   2.486   2.507 -1.6582  1.4251  0.0550
 3052TIP3    H2 9093   5.309   2.382   2.576  0.0201  0.1480  0.2544
 3053TIP3   OH2 9094   3.786   1.088   6.422  0.3104  0.4162 -0.2854
 3053TIP3    H1 9095   3.735   1.022   6.468 -2.5581 -0.1237 -3.9688
 3053TIP3    H2 9096   3.770   1.170   6.470 -1.7581 -0.2829  0.2462
 3054TIP3   OH2 9097   6.380   1.502   0.323 -0.6469  0.1967  0.3802
 3054TIP3    H1 9098   6.474   1.492   0.335 -0.5369 -0.5737 -1.0381
 3054TIP3    H2 9099   6.351   1.554   0.398  0.7250 -0.5231  1.4140
 3055TIP3   OH2 9100   7.678   2.433   1.024  0.6364 -0.4156  0.0175
 3055TIP3    H1 9101   7.689   2.343   1.055  2.1427 -0.4739 -0.6012
 3055TIP3    H2 9102   7.641   2.424   0.936  1.3449 -0.4675 -0.2813
 3056TIP3   OH2 9103   7.815   2.206   1.154  0.1272  0.7511  0.2094
 3056TIP3    H1 9104   7.851   2.283   1.200  2.7512  0.2173 -0.8965
 3056TIP3    H2 9105   7.877   2.136   1.172 -2.1822 -1.1467  1.1052
 3057TIP3   OH2 9106   6.471   0.108   2.921  0.3438 -0.0395 -0.7280
 3057TIP3    H1 9107   6.504   0.158   2.847 -0.2729  1.0727 -0.2498
 3057TIP3    H2 9108   6.455   0.172   2.990  0.0972 -0.9526  0.0914
 3058TIP3   OH2 9109   4.708   2.600   3.809 -0.0325 -0.3896  0.1031
 3058TIP3    H1 9110   4.771   2.542   3.767  0.4992 -0.7067  1.3330
 3058TIP3    H2 9111   4.686   2.557   3.892 -0.3112  0.7227  0.6202
 3059TIP3   OH2 9112   5.275   0.242   1.957  0.0375 -0.5914 -0.0082
 3059TIP3    H1 9113   5.204   0.302   1.980  1.3505  0.1124  2.4083
 3059TIP3    H2 9114   5.308   0.211   2.042  5.4379  2.4228 -0.7949
 3060TIP3   OH2 9115   7.596   2.480   2.492  0.0529 -0.0890 -0.4319
 3060TIP3    H1 9116   7.656   2.420   2.447 -0.9058 -0.4453 -1.2605
 3060TIP3    H2 9117   7.652   2.531   2.550  0.6966 -2.7322  1.3376
 3061TIP3   OH2 9118   6.045   1.674   1.506 -0.2062  0.0309 -0.1217
 3061TIP3    H1 9119   6.090   1.618   1.442 -3.3528 -0.7013 -1.7693
 3061TIP3    H2 9120   6.008   1.746   1.454 -0.1578  1.1427  1.3316
 3062TIP3   OH2 9121   4.731   3.859   2.347 -0.1223  0.2065 -0.7018
 3062TIP3    H1 9122   4.746   3.875   2.254 -0.7475  0.5090 -0.7519
 3062TIP3    H2 9123   4.649   3.905   2.366  0.3903  0.7716  0.1692
 3063TIP3   OH2 9124   5.507   0.495   1.680 -0.4211 -0.0083 -0.4939
 3063TIP3    H1 9125   5.462   0.539   1.608 -1.1880 -0.4289 -0.2818
 3063TIP3    H2 9126   5.565   0.432   1.636  1.3686  1.8448 -0.8160
 3064TIP3   OH2 9127   2.746   7.719   2.355  0.0254  0.1096  0.5374
 3064TIP3    H1 9128   2.770   7.639   2.401 -1.6850 -2.0147 -2.0423
 3064TIP3    H2 9129   2.656   7.738   2.384  0.1587  0.6592  0.5976
 3065TIP3   OH2 9130   6.110   4.784   1.608 -0.3636 -0.0153 -0.9008
 3065TIP3    H1 9131   6.138   4.847   1.674  0.7724  0.0206 -1.3984
 3065TIP3    H2 9132   6.015   4.794   1.604 -0.2858  1.0480 -0.3547
 3066TIP3   OH2 9133   6.489   1.986   1.637  0.8197 -0.3397 -0.5400
 3066TIP3    H1 9134   6.460   1.903   1.674  1.2447  0.3715  1.4609
 3066TIP3    H2 9135   6.425   2.006   1.568  0.0025 -1.6846 -0.1793
 3067TIP3   OH2 9136   4.065   2.413   3.466 -0.3683 -0.0869 -0.1412
 3067TIP3    H1 9137   4.130   2.371   3.523  0.8426  0.9522 -0.7169
 3067TIP3    H2 9138   3.984   2.364   3.481  0.1659 -0.4089  1.7627
 3068TIP3   OH2 9139   7.756   0.753   5.392 -0.0078  0.7472 -0.6627
 3068TIP3    H1 9140   7.823   0.802   5.440 -0.3099  0.9398 -0.4305
 3068TIP3    H2 9141   7.793   0.740   5.305  0.2222  1.0873 -0.6160
 3069TIP3   OH2 9142   3.900   2.921   1.904  0.2339 -0.1329 -0.2209
 3069TIP3    H1 9143   3.910   2.881   1.991  0.5498  0.7146  0.1462
 3069TIP3    H2 9144   3.957   2.998   1.908  0.9108 -0.5653 -1.4783
 3070TIP3   OH2 9145   5.465   1.768   2.350 -0.0539 -0.1890  0.4145
 3070TIP3    H1 9146   5.496   1.679   2.371 -0.9833 -0.6986 -0.3146
 3070TIP3    H2 9147   5.451   1.766   2.256 -0.2693  0.6857  0.4292
 3071TIP3   OH2 9148   6.240   2.931   4.087  0.4085 -0.1011 -0.1972
 3071TIP3    H1 9149   6.229   2.875   4.010 -0.5448  0.3570 -0.4047
 3071TIP3    H2 9150   6.193   2.885   4.157  2.1175 -1.0178  0.3809
 3072TIP3   OH2 9151   6.711   0.810   2.864 -0.5481  0.6686 -0.1637
 3072TIP3    H1 9152   6.691   0.755   2.788  1.3320  0.3136 -0.4288
 3072TIP3    H2 9153   6.735   0.748   2.933 -0.8447  1.0527  0.2861
 3073TIP3   OH2 9154   4.990   2.183   3.390 -0.2050 -0.0041 -0.3601
 3073TIP3    H1 9155   5.043   2.105   3.408 -0.4424  0.4107  2.3304
 3073TIP3    H2 9156   5.053   2.255   3.390  0.0914 -0.1903 -3.3513
 3074TIP3   OH2 9157   1.156   3.184   2.189  0.2008  0.0458  0.5551
 3074TIP3    H1 9158   1.224   3.247   2.214  0.1867 -0.3936  1.7136
 3074TIP3    H2 9159   1.188   3.146   2.107  0.7026  0.8230  0.3879
 3075TIP3   OH2 9160   0.985   2.796   2.462  0.4281  0.0891  0.3763
 3075TIP3    H1 9161   1.022   2.811   2.375  1.8639  1.0335  1.1242
 3075TIP3    H2 9162   0.926   2.870   2.475  1.1637  0.6300  0.6943
 3076TIP3   OH2 9163   7.237   1.448   0.061 -0.0013  0.3069  0.1409
 3076TIP3    H1 9164   7.310   1.484   0.011 -0.4155 -0.7854 -1.3004
 3076TIP3    H2 9165   7.277   1.414   0.141  1.0138  0.1039 -0.4424
 3077TIP3   OH2 9166   6.893   1.669   2.477  0.3609 -0.0451  0.7792
 3077TIP3    H1 9167   6.897   1.729   2.552 -0.9607  1.8961 -0.6605
 3077TIP3    H2 9168   6.807   1.683   2.439 -0.2205 -3.3414  0.7241
 3078TIP3   OH2 9169   0.664   3.549   2.869 -0.4504  0.1088 -0.1226
 3078TIP3    H1 9170   0.581   3.549   2.915 -1.3205 -0.3805 -1.6623
 3078TIP3    H2 9171   0.641   3.541   2.776  1.3199 -0.7850 -0.5217
 3079TIP3   OH2 9172   7.577   2.631   1.617 -0.2766 -0.1255 -0.3619
 3079TIP3    H1 9173   7.540   2.544   1.603 -0.0716 -0.1445 -0.7858
 3079TIP3    H2 9174   7.502   2.690   1.611 -0.4295 -0.2828  0.0141
 3080TIP3   OH2 9175   0.742   3.078   1.062 -0.1626  0.2516  0.1033
 3080TIP3    H1 9176   0.810   3.050   1.000  0.2345  1.3713  0.0254
 3080TIP3    H2 9177   0.673   3.113   1.006  0.5506  2.0442  0.3016
 3081TIP3   OH2 9178   6.462   4.192   2.349 -0.5055  0.4079  0.2605
 3081TIP3    H1 9179   6.525   4.135   2.305 -1.3075 -0.5039  0.2773
 3081TIP3    H2 9180   6.428   4.249   2.280  0.7161  1.2684  0.3493
 3082TIP3   OH2 9181   6.967   1.189   4.450  0.7955 -0.3023 -0.2864
 3082TIP3    H1 9182   6.908   1.195   4.375  0.7976 -0.7554 -0.3267
 3082TIP3    H2 9183   7.045   1.146   4.416  1.4604  0.9826 -0.4143
 3083TIP3   OH2 9184   0.961   3.120   2.368  0.9266  0.7965  0.5259
 3083TIP3    H1 9185   1.050   3.137   2.337  0.7698 -0.8501 -0.8905
 3083TIP3    H2 9186   0.904   3.153   2.299  0.5206 -0.8285  0.0609
 3084TIP3   OH2 9187   6.638   1.722   1.672  0.1363  0.3481 -0.1337
 3084TIP3    H1 9188   6.596   1.655   1.726  0.2335  0.0879 -0.3815
 3084TIP3    H2 9189   6.677   1.782   1.736  0.9906 -0.4283  0.0867
 3085TIP3   OH2 9190   5.934   2.458   1.437 -0.0502 -0.1782 -0.2888
 3085TIP3    H1 9191   5.910   2.385   1.380  0.7215 -0.7395  0.0964
 3085TIP3    H2 9192   6.028   2.450   1.449 -0.3496 -0.7159  1.9333
 3086TIP3   OH2 9193   1.237   2.220   3.434 -0.4348 -0.2466 -0.1833
 3086TIP3    H1 9194   1.177   2.293   3.449  0.4483  0.1558  1.4121
 3086TIP3    H2 9195   1.250   2.181   3.520 -0.4375 -1.9465 -0.9255
 3087TIP3   OH2 9196   0.365   4.091   2.759  0.3592  0.4628  0.0240
 3087TIP3    H1 9197   0.422   4.049   2.694 -0.1302  1.7166 -1.2518
 3087TIP3    H2 9198   0.281   4.103   2.713 -0.9435 -1.3336  1.8649
 3088TIP3   OH2 9199   5.421   0.282   1.496  0.2065  0.0231 -0.6989
 3088TIP3    H1 9200   5.376   0.221   1.554  0.5742 -0.9667 -1.4607
 3088TIP3    H2 9201   5.371   0.281   1.415  1.1991 -0.5586 -1.3097
 3089TIP3   OH2 9202   0.098   2.988   2.740 -0.9382  0.0430 -0.8108
 3089TIP3    H1 9203   0.089   3.058   2.676 -0.0203 -0.8618 -1.9435
 3089TIP3    H2 9204   0.070   3.028   2.823  0.0565  1.8953 -1.3342
 3090TIP3   OH2 9205   7.238   5.502   3.013 -0.3258 -0.6693 -0.6801
 3090TIP3    H1 9206   7.265   5.486   3.104  0.3836 -1.8302 -1.0812
 3090TIP3    H2 9207   7.298   5.569   2.982 -1.3195  0.5755  0.0651
 3091TIP3   OH2 9208   6.332   1.304   1.741 -0.6347 -0.1634 -0.1055
 3091TIP3    H1 9209   6.305   1.232   1.797 -0.1296  0.5401  1.0699
 3091TIP3    H2 9210   6.250   1.343   1.710 -0.9279  0.1716  1.0933
 3092TIP3   OH2 9211   8.290   3.954   3.063  0.0958  0.7793 -0.2246
 3092TIP3    H1 9212   8.208   3.914   3.093  0.0897  1.0806  0.1583
 3092TIP3    H2 9213   8.349   3.880   3.050  0.1373  0.6519  0.6403
 3093TIP3   OH2 9214   5.284   2.892   3.194  0.4057 -0.4418 -0.1498
 3093TIP3    H1 9215   5.355   2.920   3.136 -0.6102  1.6112 -0.4735
 3093TIP3    H2 9216   5.212   2.870   3.135 -0.3828  0.9312  0.2661
 3094TIP3   OH2 9217   6.619   3.644   2.613  0.1117  0.5126  0.9257
 3094TIP3    H1 9218   6.709   3.623   2.587 -0.1458 -1.1184  1.2928
 3094TIP3    H2 9219   6.610   3.737   2.594  1.0101  0.1185 -1.6625
 3095TIP3   OH2 9220   4.471   4.175   1.874 -0.2636 -0.4028 -0.5730
 3095TIP3    H1 9221   4.437   4.088   1.854 -0.7915 -0.5955  1.0847
 3095TIP3    H2 9222   4.394   4.232   1.868 -0.5662 -0.5603  1.4053
 3096TIP3   OH2 9223   6.762   2.589   3.589 -0.1387 -0.5432 -0.4464
 3096TIP3    H1 9224   6.673   2.582   3.624  0.1039 -2.5594 -0.1837
 3096TIP3    H2 9225   6.750   2.613   3.497 -0.9082  0.3864 -0.1142
 3097TIP3   OH2 9226   8.046   3.684   2.039 -0.2720  0.5208 -0.4848
 3097TIP3    H1 9227   8.132   3.653   2.065 -1.4607 -0.2566  2.7496
 3097TIP3    H2 9228   8.044   3.674   1.944  2.8972 -0.1652 -0.5209
 3098TIP3   OH2 9229   6.803   4.082   1.339  0.3841 -0.1220 -0.1429
 3098TIP3    H1 9230   6.781   4.105   1.430  0.0283 -0.8537 -0.0362
 3098TIP3    H2 9231   6.764   4.151   1.287 -0.0332 -0.0819  0.2192
 3099TIP3   OH2 9232   0.884   2.800   0.335 -0.3304 -0.5079 -0.0324
 3099TIP3    H1 9233   0.861   2.718   0.291 -0.9813 -0.1364 -0.3973
 3099TIP3    H2 9234   0.816   2.811   0.402  0.2249 -0.6811  0.5701
 3100TIP3   OH2 9235   1.150   5.203   1.363 -0.0625  0.0895  0.4638
 3100TIP3    H1 9236   1.152   5.194   1.267 -0.7293  0.5690  0.4034
 3100TIP3    H2 9237   1.074   5.153   1.390 -0.4731  0.8174  0.6496
 3101TIP3   OH2 9238   7.958   2.906   1.311  0.1595 -0.0404 -0.2137
 3101TIP3    H1 9239   7.992   2.851   1.241 -1.5124  0.5091 -1.4849
 3101TIP3    H2 9240   7.864   2.888   1.312 -0.5104  3.2221 -1.0435
 3102TIP3   OH2 9241   6.637   1.739   2.390  0.2549 -0.1408 -0.1217
 3102TIP3    H1 9242   6.596   1.748   2.476 -1.5564 -1.2459 -0.8517
 3102TIP3    H2 9243   6.582   1.791   2.331 -0.6160 -2.3110 -1.2590
 3103TIP3   OH2 9244   8.345   4.318   0.509 -0.2892 -0.1150 -0.3451
 3103TIP3    H1 9245   8.424   4.305   0.456 -0.3350  0.4511 -0.5532
 3103TIP3    H2 9246   8.273   4.316   0.445 -0.2553  1.7772 -0.4774
 3104TIP3   OH2 9247   7.688   1.923   4.638  0.0115  0.0435 -0.3217
 3104TIP3    H1 9248   7.607   1.966   4.611  0.1194  0.7612  0.4581
 3104TIP3    H2 9249   7.750   1.939   4.567  0.1882  1.5795  0.1788
 3105TIP3   OH2 9250   7.108   2.396   3.407 -0.7420  0.4885 -0.1444
 3105TIP3    H1 9251   7.122   2.486   3.375 -0.4655 -0.3886 -2.5750
 3105TIP3    H2 9252   7.092   2.407   3.501  1.5399  2.8907  0.0321
 3106TIP3   OH2 9253   5.324   0.715   2.342 -0.4218 -0.3371  0.3793
 3106TIP3    H1 9254   5.362   0.718   2.255  0.2692  0.0987  0.6989
 3106TIP3    H2 9255   5.348   0.798   2.383  2.0255 -1.8411  2.1276
 3107TIP3   OH2 9256   5.474   1.113   1.385 -0.2929 -0.2474  0.7365
 3107TIP3    H1 9257   5.487   1.111   1.480 -0.4442 -0.1993  0.7589
 3107TIP3    H2 9258   5.495   1.025   1.356 -0.7120 -0.3958  0.8769
 3108TIP3   OH2 9259   0.433   2.434   0.231 -0.1937  0.5705 -0.4602
 3108TIP3    H1 9260   0.462   2.488   0.157  0.3356 -0.7318 -1.2150
 3108TIP3    H2 9261   0.505   2.373   0.246 -0.1106  1.1326  1.4418
 3109TIP3   OH2 9262   0.429   3.011   3.095  0.0488  0.6130 -0.0828
 3109TIP3    H1 9263   0.417   2.979   3.005 -1.7512 -0.5314  0.5299
 3109TIP3    H2 9264   0.347   2.988   3.139  1.4787 -0.1848  2.2606
 3110TIP3   OH2 9265   4.920   1.739   2.328 -0.3921  0.1273  0.7248
 3110TIP3    H1 9266   4.931   1.654   2.285 -1.7709 -0.2457  1.1028
 3110TIP3    H2 9267   4.901   1.718   2.419 -1.0784  0.8231  0.7490
 3111TIP3   OH2 9268   0.877   4.286   2.511 -0.1664 -0.0383 -0.4304
 3111TIP3    H1 9269   0.796   4.332   2.530 -1.2386 -0.7148 -3.2597
 3111TIP3    H2 9270   0.870   4.203   2.559 -1.6738 -0.5989 -1.6055
 3112TIP3   OH2 9271   6.240   2.041   1.497  0.4284  0.6299 -0.5658
 3112TIP3    H1 9272   6.264   2.126   1.459  3.2555  0.0526 -0.2081
 3112TIP3    H2 9273   6.274   1.977   1.434  1.2349 -0.2663  0.7506
 3113TIP3   OH2 9274   6.237   2.777   1.105  0.0731 -0.2743  0.0785
 3113TIP3    H1 9275   6.181   2.758   1.180 -1.5103  0.8575 -0.7998
 3113TIP3    H2 9276   6.200   2.727   1.033  0.3987  0.2219 -0.4352
 3114TIP3   OH2 9277   8.088   1.684   1.931  0.2689 -0.5469 -0.1426
 3114TIP3    H1 9278   8.160   1.645   1.882  2.2154  1.2332  1.2012
 3114TIP3    H2 9279   8.119   1.773   1.951 -1.7597 -0.2123  1.6002
 3115TIP3   OH2 9280   1.720   0.200   4.306 -0.5049  0.3808 -0.4200
 3115TIP3    H1 9281   1.717   0.152   4.224 -2.5713  0.2075 -0.2812
 3115TIP3    H2 9282   1.734   0.133   4.373  0.2072  0.4060 -0.5447
 3116TIP3   OH2 9283   2.072   2.294   4.236  0.5342 -0.0084  0.1168
 3116TIP3    H1 9284   2.056   2.317   4.328  1.9204 -1.9138  0.8621
 3116TIP3    H2 9285   2.166   2.281   4.230  0.3269 -0.9749 -1.3200
 3117TIP3   OH2 9286   7.721   2.252   2.043  0.6260  0.1329  0.5883
 3117TIP3    H1 9287   7.740   2.305   1.966  0.5608  0.9688  1.1407
 3117TIP3    H2 9288   7.803   2.251   2.093  0.3728  0.4740  1.0225
 3118TIP3   OH2 9289   6.963   2.995   2.891  0.1548  0.0381 -0.0297
 3118TIP3    H1 9290   6.877   2.955   2.880  0.3239 -0.5122  0.6069
 3118TIP3    H2 9291   6.946   3.089   2.891 -0.4121 -0.0639 -0.1746
 3119TIP3   OH2 9292   1.229   3.819   3.455  1.0441 -0.7270  0.1104
 3119TIP3    H1 9293   1.185   3.746   3.500 -1.6012  0.2686 -0.7268
 3119TIP3    H2 9294   1.307   3.836   3.507  0.1313 -2.2091  2.0424
 3120TIP3   OH2 9295   5.727   1.011   2.532 -0.6008 -0.3020 -0.0519
 3120TIP3    H1 9296   5.709   1.065   2.609 -1.2671 -2.7399  1.5717
 3120TIP3    H2 9297   5.783   0.940   2.565 -3.5300 -3.2191 -1.0197
 3121TIP3   OH2 9298   7.074   2.326   1.057  0.0889 -0.7141 -0.1555
 3121TIP3    H1 9299   7.163   2.290   1.065  0.9267  0.9925 -1.3703
 3121TIP3    H2 9300   7.045   2.297   0.970  1.0985  2.1051 -1.5147
 3122TIP3   OH2 9301   8.324   4.026   2.039 -0.6513  0.3106  0.2083
 3122TIP3    H1 9302   8.271   3.975   2.101 -1.0833  2.1895  1.4211
 3122TIP3    H2 9303   8.304   3.989   1.954 -1.2651 -1.2847  1.0177
 3123TIP3   OH2 9304   0.744   3.397   3.307 -0.0300  0.0409  0.4292
 3123TIP3    H1 9305   0.797   3.410   3.229  0.0668  0.9498  0.6385
 3123TIP3    H2 9306   0.683   3.327   3.283 -0.3403  0.6694 -0.6396
 3124TIP3   OH2 9307   0.365   4.398   3.964  0.0726 -0.5765 -0.2256
 3124TIP3    H1 9308   0.410   4.319   3.935  2.0346  0.6116 -0.4911
 3124TIP3    H2 9309   0.429   4.468   3.953 -1.6044  1.0523  0.0896
 3125TIP3   OH2 9310   4.777   0.709   0.703  0.6135 -0.2253 -0.3968
 3125TIP3    H1 9311   4.707   0.711   0.768  1.7929  2.7382  0.9096
 3125TIP3    H2 9312   4.732   0.716   0.618 -0.8240 -1.8898  0.2116
 3126TIP3   OH2 9313   1.233   6.540   6.404  0.4284 -0.0720  0.1778
 3126TIP3    H1 9314   1.249   6.473   6.338 -1.0341 -1.4131  1.1524
 3126TIP3    H2 9315   1.146   6.519   6.439 -0.4354  2.8154 -0.0825
 3127TIP3   OH2 9316   4.552   3.018   3.172 -0.3279 -0.2208  0.1168
 3127TIP3    H1 9317   4.513   3.053   3.252  0.9294  2.3159 -0.3341
 3127TIP3    H2 9318   4.477   2.999   3.116 -1.0654  3.0936 -0.1228
 3128TIP3   OH2 9319   3.232   6.332   5.554  0.5954 -0.7405 -0.1594
 3128TIP3    H1 9320   3.249   6.421   5.585  0.4849 -0.8078  0.1028
 3128TIP3    H2 9321   3.189   6.289   5.628  0.0492 -0.8154 -0.5196
 3129TIP3   OH2 9322   8.165   3.437   3.850 -0.2613 -0.9852 -0.1193
 3129TIP3    H1 9323   8.165   3.349   3.814  0.2033 -0.5671 -1.1459
 3129TIP3    H2 9324   8.250   3.447   3.893  0.8183 -0.0775 -2.3969
 3130TIP3   OH2 9325   7.317   2.401   3.987  0.3799 -0.1654 -0.4463
 3130TIP3    H1 9326   7.333   2.418   3.894  2.4694 -0.0649 -0.0905
 3130TIP3    H2 9327   7.388   2.445   4.032 -0.0433 -1.0816  1.1440
 3131TIP3   OH2 9328   8.071   3.960   0.430 -0.5401 -0.4206 -0.5886
 3131TIP3    H1 9329   7.995   4.003   0.468  0.9293  1.2228  0.5418
 3131TIP3    H2 9330   8.039   3.875   0.401 -2.5710 -0.1238  0.7557
 3132TIP3   OH2 9331   5.770   3.391   2.852  0.0629  0.1404 -0.3250
 3132TIP3    H1 9332   5.769   3.387   2.756 -0.7634 -1.2205 -0.2757
 3132TIP3    H2 9333   5.863   3.390   2.875  0.2410 -1.8814 -1.0547
 3133TIP3   OH2 9334   8.349   2.106   1.532  0.1965 -0.0274  0.4779
 3133TIP3    H1 9335   8.259   2.084   1.555  0.3169  0.4303  1.4356
 3133TIP3    H2 9336   8.348   2.120   1.437 -0.5614 -0.8510  0.3654
 3134TIP3   OH2 9337   6.533   2.624   0.757  0.9647 -0.7367  0.3695
 3134TIP3    H1 9338   6.549   2.718   0.763  0.4710 -0.6491  0.3448
 3134TIP3    H2 9339   6.556   2.602   0.667 -3.0212  0.1737 -0.9738
 3135TIP3   OH2 9340   6.907   2.777   3.745  0.3452  0.3309 -0.3726
 3135TIP3    H1 9341   6.859   2.699   3.717  0.1013 -0.2432  1.5680
 3135TIP3    H2 9342   6.842   2.830   3.792  1.4548 -0.2729  1.9441
 3136TIP3   OH2 9343   2.183   2.863   3.607 -0.3669  0.1271  0.8627
 3136TIP3    H1 9344   2.093   2.847   3.577 -0.1601 -2.3277  1.4415
 3136TIP3    H2 9345   2.237   2.817   3.543  0.4951  1.3608  0.6808
 3137TIP3   OH2 9346   7.340   2.228   1.972  0.0025 -0.0494  0.4450
 3137TIP3    H1 9347   7.393   2.162   2.017  1.3643  1.3266  0.9074
 3137TIP3    H2 9348   7.399   2.302   1.959 -1.3848  0.9424 -0.4201
 3138TIP3   OH2 9349   5.566   3.298   3.187  0.2630  0.1171 -0.2198
 3138TIP3    H1 9350   5.633   3.230   3.182  0.9259  0.6698  0.9530
 3138TIP3    H2 9351   5.526   3.285   3.273  0.3414  1.1569 -0.0272
 3139TIP3   OH2 9352   6.699   4.695   4.990  0.0460  0.2928 -0.0027
 3139TIP3    H1 9353   6.724   4.705   5.082  0.0784 -0.6342  0.0979
 3139TIP3    H2 9354   6.762   4.748   4.942  1.0505 -0.5258  0.3953
 3140TIP3   OH2 9355   8.429   2.553   4.374 -0.0196 -0.0731 -0.2140
 3140TIP3    H1 9356   8.520   2.545   4.403 -0.6786  2.4539  2.8589
 3140TIP3    H2 9357   8.434   2.607   4.295  1.3503 -2.4656 -1.8294
 3141TIP3   OH2 9358   1.804   1.336   2.408  0.1419  0.1619  0.3251
 3141TIP3    H1 9359   1.875   1.324   2.345  1.5313  0.5008  1.8022
 3141TIP3    H2 9360   1.764   1.249   2.417  0.6052 -0.1083 -0.2185
 3142TIP3   OH2 9361   7.951   3.775   5.028 -0.3983  0.0347  0.1019
 3142TIP3    H1 9362   7.963   3.797   4.936 -1.5405  0.3124  0.0108
 3142TIP3    H2 9363   8.039   3.757   5.060 -0.0002 -0.1137 -1.0569
 3143TIP3   OH2 9364   5.751   1.972   2.896 -0.3574  0.5123  0.0647
 3143TIP3    H1 9365   5.781   1.959   2.806  0.5111  0.8656  0.2906
 3143TIP3    H2 9366   5.696   2.050   2.892  0.2059  0.9129 -0.0576
 3144TIP3   OH2 9367   7.147   2.984   1.292  0.6784  0.1406 -0.0094
 3144TIP3    H1 9368   7.093   2.905   1.291  1.7776 -0.6258 -0.0555
 3144TIP3    H2 9369   7.197   2.979   1.211  1.4821  0.3586  0.4646
 3145TIP3   OH2 9370   0.991   2.786   1.816  1.1799 -0.0549 -0.2375
 3145TIP3    H1 9371   1.023   2.696   1.807  0.5991 -0.2395 -0.5006
 3145TIP3    H2 9372   0.896   2.777   1.828  1.1515  0.5101 -0.0212
 3146TIP3   OH2 9373   0.239   2.739   1.128 -0.4201  0.1776 -0.0919
 3146TIP3    H1 9374   0.166   2.793   1.096  0.0317  1.1651  0.4938
 3146TIP3    H2 9375   0.282   2.707   1.049 -1.3308 -0.2029 -0.4430
 3147TIP3   OH2 9376   1.023   2.588   1.554  0.0971  0.1318  0.3796
 3147TIP3    H1 9377   0.981   2.517   1.506 -0.9641 -0.1008  1.6431
 3147TIP3    H2 9378   0.952   2.629   1.604  0.3909  2.9799 -1.3691
 3148TIP3   OH2 9379   7.924   3.670   4.370 -0.2535  0.4007  0.4793
 3148TIP3    H1 9380   7.869   3.626   4.435 -1.9345  1.5186 -0.1346
 3148TIP3    H2 9381   7.989   3.605   4.344  0.2264 -0.1681  3.0082
 3149TIP3   OH2 9382   6.996   2.437   2.450 -0.8965  0.4481  0.1165
 3149TIP3    H1 9383   6.921   2.468   2.501 -1.7208  2.0001 -1.9610
 3149TIP3    H2 9384   7.041   2.517   2.423  0.2417 -0.3950 -0.5066
 3150TIP3   OH2 9385   2.150   4.008   3.023  0.1294  0.2525 -0.1441
 3150TIP3    H1 9386   2.211   4.076   3.051  0.2545  1.2606 -2.7328
 3150TIP3    H2 9387   2.071   4.055   2.999 -0.8543 -0.8351  0.8831
 3151TIP3   OH2 9388   7.877   3.995   3.124  0.0904  0.0640  0.2311
 3151TIP3    H1 9389   7.934   3.920   3.139  1.1306  0.5341 -1.2649
 3151TIP3    H2 9390   7.826   3.973   3.047  0.2609  0.8107 -0.1027
 3152TIP3   OH2 9391   5.966   3.352   2.324 -0.5655 -0.2281  0.4401
 3152TIP3    H1 9392   6.040   3.304   2.362 -0.8360 -1.4499 -0.5621
 3152TIP3    H2 9393   5.978   3.442   2.355  0.1346 -0.8525  2.0639
 3153TIP3   OH2 9394   8.261   3.401   0.285  0.0058  0.2529  0.3142
 3153TIP3    H1 9395   8.283   3.324   0.336  1.7411 -0.3079 -1.2228
 3153TIP3    H2 9396   8.235   3.367   0.199  1.2909  1.3906 -0.5428
 3154TIP3   OH2 9397   5.771   2.644   2.298  0.1424  0.1486 -0.3666
 3154TIP3    H1 9398   5.713   2.600   2.236 -2.1340  0.8203  1.2121
 3154TIP3    H2 9399   5.728   2.728   2.316  2.5751  1.4598 -0.5794
 3155TIP3   OH2 9400   7.373   3.734   2.005  0.1408 -0.1066 -0.4355
 3155TIP3    H1 9401   7.371   3.773   1.918  1.2436  0.6485 -0.1319
 3155TIP3    H2 9402   7.422   3.652   1.993 -0.2250 -0.2967 -0.6380
 3156TIP3   OH2 9403   3.865   2.419   2.426 -0.4484 -0.2411  0.2222
 3156TIP3    H1 9404   3.936   2.379   2.377 -0.7554 -0.9410  0.3466
 3156TIP3    H2 9405   3.837   2.352   2.488  0.8415  1.1044  2.3089
 3157TIP3   OH2 9406   6.752   2.466   2.560  0.0410 -0.0839  0.3381
 3157TIP3    H1 9407   6.804   2.525   2.616 -0.0924 -0.2288  0.6171
 3157TIP3    H2 9408   6.664   2.471   2.597  0.3476 -1.6239  1.2905
 3158TIP3   OH2 9409   1.029   6.464   6.619  0.3882  0.1300  0.1199
 3158TIP3    H1 9410   1.108   6.412   6.606 -0.7567 -1.0602 -2.4735
 3158TIP3    H2 9411   1.002   6.445   6.709  1.3653 -1.8562  0.0198
 3159TIP3   OH2 9412   5.571   1.655   0.778 -0.2619  0.1352  0.1756
 3159TIP3    H1 9413   5.498   1.697   0.732  0.0266  0.2963 -0.1365
 3159TIP3    H2 9414   5.552   1.561   0.771 -1.2351  0.2299  1.4221
 3160TIP3   OH2 9415   5.650   2.734   2.678 -0.4549 -0.0672  0.3987
 3160TIP3    H1 9416   5.680   2.799   2.615 -2.2930  0.4671  0.0357
 3160TIP3    H2 9417   5.694   2.757   2.759  0.8871  0.0601 -0.3518
 3161TIP3   OH2 9418   5.985   2.785   4.539  0.2349 -0.7392  0.4007
 3161TIP3    H1 9419   6.029   2.839   4.474 -0.7827  0.4141  0.6278
 3161TIP3    H2 9420   5.988   2.838   4.619  0.0328 -1.4188  0.8623
 3162TIP3   OH2 9421   6.847   2.871   1.259  0.0877 -0.3298 -0.0710
 3162TIP3    H1 9422   6.907   2.796   1.258 -1.0588 -1.2802  0.7854
 3162TIP3    H2 9423   6.802   2.867   1.174  1.5768  0.6994 -0.9415
 3163TIP3   OH2 9424   0.919   3.700   2.698  0.4499 -1.0869  0.2967
 3163TIP3    H1 9425   0.863   3.651   2.638  0.5138 -0.5125 -0.2374
 3163TIP3    H2 9426   0.881   3.787   2.700  0.3429 -1.1529  1.2371
 3164TIP3   OH2 9427   6.753   2.796   2.479  0.4682 -0.1703  0.4405
 3164TIP3    H1 9428   6.706   2.760   2.554 -0.6081  1.1710  0.4224
 3164TIP3    H2 9429   6.694   2.784   2.405  0.6210  0.4955  0.2091
 3165TIP3   OH2 9430   6.749   1.894   1.853 -0.3474  0.7046 -0.2849
 3165TIP3    H1 9431   6.724   1.960   1.918 -1.3075  0.9031 -0.8512
 3165TIP3    H2 9432   6.825   1.932   1.809 -0.2680  0.9818  0.0831
 3166TIP3   OH2 9433   0.302   2.863   2.545  0.0679 -0.5742  0.5862
 3166TIP3    H1 9434   0.233   2.918   2.583 -0.5510 -0.5020 -0.6034
 3166TIP3    H2 9435   0.346   2.921   2.482  0.6056 -0.9057  0.6543
 3167TIP3   OH2 9436   7.702   3.013   1.279  0.7721 -0.0376  0.2315
 3167TIP3    H1 9437   7.658   2.962   1.211  1.6095 -1.3066  0.6163
 3167TIP3    H2 9438   7.648   2.999   1.358 -1.0058  2.5957 -0.4756
 3168TIP3   OH2 9439   0.773   4.764   1.577 -0.1089  0.5459  0.3212
 3168TIP3    H1 9440   0.697   4.709   1.557  0.5164  0.4551 -1.9490
 3168TIP3    H2 9441   0.759   4.844   1.525  1.1603  0.6600  0.1298
 3169TIP3   OH2 9442   1.134   3.036   2.732 -0.1900  0.4254 -0.3767
 3169TIP3    H1 9443   1.194   2.966   2.707  0.3485  0.5154  0.6467
 3169TIP3    H2 9444   1.047   3.000   2.714  0.1499  0.1115 -1.4011
 3170TIP3   OH2 9445   6.006   1.140   2.435  0.2544 -0.0761  0.2818
 3170TIP3    H1 9446   5.984   1.062   2.486  0.4585  0.9748  2.0129
 3170TIP3    H2 9447   5.928   1.196   2.443 -0.0385 -0.2362 -1.2530
 3171TIP3   OH2 9448   8.459   2.733   2.733 -0.2696 -0.2701 -0.0360
 3171TIP3    H1 9449   8.522   2.805   2.743  2.0387 -2.0561 -1.0911
 3171TIP3    H2 9450   8.435   2.710   2.822 -1.7987  2.3943  0.3103
 3172TIP3   OH2 9451   6.677   3.226   1.445  0.0239 -0.2934  0.7747
 3172TIP3    H1 9452   6.673   3.296   1.511 -1.2434 -0.1243  0.5455
 3172TIP3    H2 9453   6.586   3.198   1.435  0.0031  0.4977 -1.7625
 3173TIP3   OH2 9454   7.553   3.663   0.173 -0.0526  0.0523  0.8236
 3173TIP3    H1 9455   7.481   3.665   0.109 -0.1086  0.9721  0.9114
 3173TIP3    H2 9456   7.511   3.638   0.255 -0.3257  0.8932  0.9408
 3174TIP3   OH2 9457   5.198   3.234   0.694  0.3786  0.0210  0.1193
 3174TIP3    H1 9458   5.187   3.254   0.787  0.2649 -1.5534  0.4553
 3174TIP3    H2 9459   5.129   3.172   0.674  0.2145  0.5860 -1.1018
 3175TIP3   OH2 9460   8.211   0.680   0.027  0.1919 -0.2794  0.5076
 3175TIP3    H1 9461   8.166   0.629   0.094 -0.6561 -0.8834 -0.5259
 3175TIP3    H2 9462   8.142   0.730  -0.016  0.6225 -0.5943 -0.5436
 3176TIP3   OH2 9463   8.280   3.101   1.779 -0.2438 -0.0885  0.2791
 3176TIP3    H1 9464   8.262   3.195   1.779 -1.9148 -0.3435 -3.3549
 3176TIP3    H2 9465   8.234   3.067   1.702 -0.4998 -4.0731  2.0558
 3177TIP3   OH2 9466   7.047   2.529   2.126 -0.2253 -0.0445 -0.1287
 3177TIP3    H1 9467   7.011   2.572   2.204 -1.3660  1.3961 -1.4264
 3177TIP3    H2 9468   7.045   2.436   2.147  0.2598  0.3784  1.8854
 3178TIP3   OH2 9469   5.454   1.999   2.471 -0.1159  0.0049 -0.0241
 3178TIP3    H1 9470   5.470   1.981   2.564 -0.3074 -0.7154 -0.1274
 3178TIP3    H2 9471   5.468   1.915   2.428  0.0180  0.3504 -0.6546
 3179TIP3   OH2 9472   0.546   3.012   2.703 -0.1037 -0.5419  0.1101
 3179TIP3    H1 9473   0.459   2.984   2.732  0.4745 -2.1842  0.3307
 3179TIP3    H2 9474   0.577   2.940   2.648 -0.0223  1.2785 -2.3078
 3180TIP3   OH2 9475   2.436   4.733   2.050 -0.2144 -0.3665  0.7583
 3180TIP3    H1 9476   2.416   4.671   1.979 -0.6523 -0.2136  0.7479
 3180TIP3    H2 9477   2.475   4.678   2.118 -1.4890 -0.8342  1.1418
 3181TIP3   OH2 9478   1.553   1.732   3.853  0.0047 -0.3875 -0.2555
 3181TIP3    H1 9479   1.589   1.734   3.942 -0.5461 -1.2044  0.0001
 3181TIP3    H2 9480   1.463   1.762   3.863 -0.0085 -0.3295 -0.5582
 3182TIP3   OH2 9481   5.751   3.594   5.988 -0.6196 -0.0269  0.0743
 3182TIP3    H1 9482   5.771   3.636   5.905  0.0005  0.2888  0.3866
 3182TIP3    H2 9483   5.793   3.508   5.983 -0.3084  0.1202  0.1974
 3183TIP3   OH2 9484   1.325   5.323   2.149  0.0938  0.0163  0.2202
 3183TIP3    H1 9485   1.366   5.241   2.177 -2.9952 -1.5222  0.5030
 3183TIP3    H2 9486   1.321   5.315   2.053 -0.5289 -0.3474  0.2724
 3184TIP3   OH2 9487   7.240   3.612   2.613  0.1893 -0.0977 -0.4085
 3184TIP3    H1 9488   7.197   3.597   2.529  1.0782  1.3156 -1.1455
 3184TIP3    H2 9489   7.181   3.671   2.660  1.5425  2.3463 -1.6677
 3185TIP3   OH2 9490   7.102   4.277   5.398  0.3209  0.0065 -0.2341
 3185TIP3    H1 9491   7.118   4.355   5.343  1.1676  0.9391  1.2995
 3185TIP3    H2 9492   7.189   4.240   5.412  0.1542  0.0251  0.8397
 3186TIP3   OH2 9493   1.522   2.020   3.480  0.2094 -0.1948  0.6966
 3186TIP3    H1 9494   1.454   2.007   3.414 -0.4824  1.0224  1.1432
 3186TIP3    H2 9495   1.579   1.944   3.471 -0.7678 -0.8423 -0.2229
 3187TIP3   OH2 9496   0.460   4.050   5.063  0.0801  0.4434 -0.3506
 3187TIP3    H1 9497   0.462   4.139   5.028  2.0333  0.6989  0.3077
 3187TIP3    H2 9498   0.498   4.058   5.151  0.5897 -1.0714 -0.4102
 3188TIP3   OH2 9499   2.257   1.558   4.137  0.0521  0.1484  0.6260
 3188TIP3    H1 9500   2.218   1.556   4.225 -0.1989  0.1692  0.5119
 3188TIP3    H2 9501   2.194   1.514   4.081  0.7992 -1.0364  0.6915
 3189TIP3   OH2 9502   8.391   4.673   5.012  0.0029  0.2642 -0.0742
 3189TIP3    H1 9503   8.482   4.645   5.015 -0.4732 -1.8934 -3.3435
 3189TIP3    H2 9504   8.385   4.730   4.936 -1.6485 -0.7631 -0.7511
 3190TIP3   OH2 9505   7.258   7.345   4.934  0.5207  0.2690  0.2986
 3190TIP3    H1 9506   7.179   7.388   4.967  1.1681  1.1667  0.7177
 3190TIP3    H2 9507   7.253   7.354   4.839 -0.6203 -1.0141  0.2156
 3191TIP3   OH2 9508   1.052   3.044   3.210 -0.4796 -0.2232 -0.2107
 3191TIP3    H1 9509   1.145   3.022   3.208 -0.6212 -0.7882 -1.8270
 3191TIP3    H2 9510   1.048   3.131   3.251  0.2198 -2.4280  4.8505
 3192TIP3   OH2 9511   0.346   3.204   4.946  0.2216  0.9311  0.3202
 3192TIP3    H1 9512   0.317   3.152   4.871 -0.8745  1.1443  0.5938
 3192TIP3    H2 9513   0.266   3.241   4.983  0.7087  0.4730  1.8765
 3193TIP3   OH2 9514   6.015   2.932   4.790  0.7681  0.1368  0.5507
 3193TIP3    H1 9515   6.024   2.984   4.870  1.0912  0.6040  0.2101
 3193TIP3    H2 9516   6.097   2.946   4.743 -0.1595  1.3176 -0.7359
 3194TIP3   OH2 9517   0.643   4.683   3.519  0.1468  0.2915  0.0233
 3194TIP3    H1 9518   0.662   4.769   3.555 -2.0294  1.1559 -0.8109
 3194TIP3    H2 9519   0.700   4.676   3.442  0.5332  0.8746  0.2598
 3195TIP3   OH2 9520   0.036   3.294   5.469 -0.4144  0.1900 -0.5698
 3195TIP3    H1 9521  -0.038   3.233   5.465  0.4593 -0.7929 -2.3835
 3195TIP3    H2 9522   0.017   3.360   5.403 -0.1948  0.5184 -0.3045
 3196TIP3   OH2 9523   1.505   4.795   3.964  1.1319  0.4759 -0.1047
 3196TIP3    H1 9524   1.513   4.890   3.970  0.6648  0.5628 -0.7745
 3196TIP3    H2 9525   1.457   4.770   4.043  1.2733  0.7970  0.0806
 3197TIP3   OH2 9526   0.189   5.913   1.944 -0.4183 -0.2064 -0.3992
 3197TIP3    H1 9527   0.200   5.956   2.029 -0.9935 -2.5705  0.9221
 3197TIP3    H2 9528   0.253   5.956   1.887  2.6514 -1.0835  2.2191
 3198TIP3   OH2 9529   2.238   2.423   4.846  0.1511 -0.7163 -0.4388
 3198TIP3    H1 9530   2.173   2.477   4.891 -0.0071 -0.7821 -0.5841
 3198TIP3    H2 9531   2.245   2.344   4.900  0.6897 -0.3695 -0.0071
 3199TIP3   OH2 9532   0.315   5.034   4.191 -0.6352 -0.0678  0.3669
 3199TIP3    H1 9533   0.334   5.127   4.182 -0.7662  0.1579  2.3045
 3199TIP3    H2 9534   0.285   5.024   4.281  0.4580 -2.1796  0.5279
 3200TIP3   OH2 9535   8.053   2.758   5.165 -0.1603 -0.3401 -0.1959
 3200TIP3    H1 9536   7.957   2.765   5.159  0.0474  2.0646 -1.2848
 3200TIP3    H2 9537   8.080   2.729   5.079  0.0414 -1.8266  0.3619
 3201TIP3   OH2 9538   0.934   4.675   5.009 -0.2056 -0.3291 -0.2164
 3201TIP3    H1 9539   0.954   4.640   4.922  0.7507 -0.0298 -0.1232
 3201TIP3    H2 9540   0.904   4.599   5.059  0.3326 -0.7223 -0.4794
 3202TIP3   OH2 9541   0.033   3.732   4.893 -0.0015  0.7158 -0.2614
 3202TIP3    H1 9542   0.084   3.750   4.814  1.1910 -0.3109  0.2570
 3202TIP3    H2 9543   0.079   3.659   4.934 -1.4403  0.3209  0.6391
 3203TIP3   OH2 9544   0.966   3.340   4.942 -0.2686  0.4665  0.6245
 3203TIP3    H1 9545   0.920   3.423   4.929 -1.2940 -0.4108 -1.5298
 3203TIP3    H2 9546   0.897   3.276   4.960  0.3908 -0.2215  0.7357
 3204TIP3   OH2 9547   1.247   4.146   2.456  0.1573  0.1372  0.4856
 3204TIP3    H1 9548   1.164   4.165   2.412  0.5216 -3.1298 -1.7795
 3204TIP3    H2 9549   1.224   4.093   2.532  0.0239  0.8763  0.9650
 3205TIP3   OH2 9550   1.076   3.482   2.773  0.0661  0.2775  0.3155
 3205TIP3    H1 9551   1.002   3.421   2.773 -0.5124  0.9458 -1.2156
 3205TIP3    H2 9552   1.037   3.568   2.761  1.0713  0.6596 -0.3416
 3206TIP3   OH2 9553   4.050   0.524   2.766  0.0749  0.0097  0.5640
 3206TIP3    H1 9554   3.961   0.488   2.770  0.3329 -0.5362  1.5116
 3206TIP3    H2 9555   4.085   0.491   2.683 -0.4408 -0.1671  0.4141
 3207TIP3   OH2 9556   0.803   3.517   1.538  0.4694  0.1627 -0.2310
 3207TIP3    H1 9557   0.755   3.468   1.605 -1.5285 -1.4351 -2.7123
 3207TIP3    H2 9558   0.829   3.598   1.581 -1.4264 -0.4880  2.2523
 3208TIP3   OH2 9559   0.976   4.870   1.723 -0.0961  0.8622 -0.1958
 3208TIP3    H1 9560   0.915   4.839   1.657  0.4386 -1.3871  0.3361
 3208TIP3    H2 9561   1.048   4.807   1.721  0.7063  1.6964  1.3923
 3209TIP3   OH2 9562   8.387   4.815   4.780 -0.0336  0.4170  0.2014
 3209TIP3    H1 9563   8.401   4.758   4.703 -0.9194 -2.0588  1.7995
 3209TIP3    H2 9564   8.459   4.877   4.777  1.6149 -1.4896 -1.0312
 3210TIP3   OH2 9565   1.019   4.541   5.745  0.0409 -0.3820  0.0291
 3210TIP3    H1 9566   1.104   4.553   5.787  0.8838  0.5299 -1.8841
 3210TIP3    H2 9567   1.028   4.460   5.694  0.5024  0.8401 -1.8842
 3211TIP3   OH2 9568   1.575   2.034   4.472  0.5066  0.2101  0.6005
 3211TIP3    H1 9569   1.667   2.044   4.448  0.1946  0.0970 -0.6857
 3211TIP3    H2 9570   1.527   2.051   4.391 -0.5503 -0.8371  0.9883
 3212TIP3   OH2 9571   1.277   3.500   4.156 -0.5975  0.6239 -0.7148
 3212TIP3    H1 9572   1.244   3.416   4.188 -1.6133  0.2787 -2.5958
 3212TIP3    H2 9573   1.210   3.563   4.180 -1.1844  0.4228 -1.7732
 3213TIP3   OH2 9574   0.452   5.354   2.617  0.3755 -0.1256  0.1959
 3213TIP3    H1 9575   0.367   5.317   2.638  0.8515 -0.9380  0.6917
 3213TIP3    H2 9576   0.476   5.406   2.694 -0.4638  1.5665 -0.6440
 3214TIP3   OH2 9577   0.800   5.177   4.185 -0.4105 -0.4255 -0.4671
 3214TIP3    H1 9578   0.895   5.187   4.196 -0.5629  0.9689 -0.3182
 3214TIP3    H2 9579   0.779   5.095   4.230  0.5689 -0.2029  0.4020
 3215TIP3   OH2 9580   8.019   5.016   3.121 -0.6070 -0.6302 -0.7792
 3215TIP3    H1 9581   8.042   5.104   3.151  1.1356 -1.4327  0.2955
 3215TIP3    H2 9582   7.923   5.018   3.114 -0.9377  0.2601  2.9022
 3216TIP3   OH2 9583   3.330   1.486   6.598  0.3485  0.0293  0.2042
 3216TIP3    H1 9584   3.331   1.444   6.683  0.7475  0.0904  0.2328
 3216TIP3    H2 9585   3.290   1.572   6.614 -1.1660 -0.6275 -0.0016
 3217TIP3   OH2 9586   0.873   2.394   2.389 -0.2345 -0.0409  0.3947
 3217TIP3    H1 9587   0.872   2.354   2.302 -0.4126  1.1529 -0.1617
 3217TIP3    H2 9588   0.957   2.439   2.394  0.8986 -2.2243  1.8388
 3218TIP3   OH2 9589   8.075   2.207   4.511 -0.1865  0.1477 -0.0856
 3218TIP3    H1 9590   8.131   2.275   4.548  1.4960 -0.6534 -1.0479
 3218TIP3    H2 9591   8.048   2.242   4.426 -1.3099  0.6143  0.4640
 3219TIP3   OH2 9592   0.415   4.586   1.969  0.1047  0.1599 -0.5849
 3219TIP3    H1 9593   0.447   4.545   2.049 -1.2852  1.1650  0.5047
 3219TIP3    H2 9594   0.486   4.646   1.943  0.1955  0.4834  0.3908
 3220TIP3   OH2 9595   2.069   6.595   1.149  0.5354  0.0676  0.1048
 3220TIP3    H1 9596   2.021   6.533   1.204  3.0177 -1.8026  0.2628
 3220TIP3    H2 9597   2.103   6.661   1.210  1.6772 -0.9482  0.5876
 3221TIP3   OH2 9598   2.026   3.269   2.926  0.1034  0.3373 -0.0671
 3221TIP3    H1 9599   1.966   3.279   2.852 -1.0347 -0.3197  0.7527
 3221TIP3    H2 9600   2.062   3.356   2.940  0.5371  0.4125 -1.5666
 3222TIP3   OH2 9601   7.713   3.595   5.039  0.6152  0.3506  0.0438
 3222TIP3    H1 9602   7.764   3.670   5.008  0.1919  1.1923  1.3940
 3222TIP3    H2 9603   7.622   3.623   5.034  0.3296 -0.6897 -1.0831
 3223TIP3   OH2 9604   7.620   6.107   2.525 -0.3955  0.0770  0.2453
 3223TIP3    H1 9605   7.530   6.087   2.550 -0.0959  1.9870  3.0949
 3223TIP3    H2 9606   7.672   6.034   2.560 -0.6697 -0.2701 -0.0778
 3224TIP3   OH2 9607   8.439   3.107   4.454  0.6513  0.2667  0.2789
 3224TIP3    H1 9608   8.354   3.093   4.497  0.3593  3.6768  0.9052
 3224TIP3    H2 9609   8.501   3.057   4.509 -0.7175 -1.1328  0.5991
 3225TIP3   OH2 9610   8.187   5.520   2.035  0.0729  0.6525 -0.6161
 3225TIP3    H1 9611   8.174   5.442   2.090 -0.4380 -0.0795 -1.7736
 3225TIP3    H2 9612   8.252   5.493   1.970  2.1097  2.1022  0.7512
 3226TIP3   OH2 9613   0.769   4.659   5.419  0.1711  0.3349 -0.6856
 3226TIP3    H1 9614   0.833   4.725   5.445  0.6468  0.2440 -1.5675
 3226TIP3    H2 9615   0.816   4.606   5.353 -0.0158 -1.2024  0.3946
 3227TIP3   OH2 9616   7.712   2.819   3.760 -0.0404  0.0148 -0.5213
 3227TIP3    H1 9617   7.747   2.822   3.850  0.5444  1.5915 -0.7831
 3227TIP3    H2 9618   7.673   2.732   3.753 -1.4029  0.3763  1.7562
 3228TIP3   OH2 9619   1.529   6.724   2.505  0.3159  0.3337 -0.1145
 3228TIP3    H1 9620   1.528   6.635   2.540 -0.1393 -0.3354 -1.7863
 3228TIP3    H2 9621   1.498   6.715   2.415 -1.0483  2.3718  0.1219
 3229TIP3   OH2 9622   2.063   2.205   3.308 -0.0004 -0.1732  0.6062
 3229TIP3    H1 9623   2.029   2.129   3.355 -1.7804 -0.3077 -0.8388
 3229TIP3    H2 9624   2.007   2.277   3.336  1.5154  0.5690  1.7627
 3230TIP3   OH2 9625   2.622   1.240   2.599  0.4982  0.2374 -0.0680
 3230TIP3    H1 9626   2.687   1.274   2.661  1.7907 -0.9916 -0.7311
 3230TIP3    H2 9627   2.659   1.258   2.513 -0.4835  0.3518 -0.4755
 3231TIP3   OH2 9628   0.694   4.754   6.594  0.5312  0.0618  0.3687
 3231TIP3    H1 9629   0.663   4.812   6.664  0.2553  2.6427 -1.8237
 3231TIP3    H2 9630   0.765   4.802   6.552 -1.0199 -0.2937 -2.7700
 3232TIP3   OH2 9631   2.312   3.489   3.478  0.2140 -0.4041  0.3276
 3232TIP3    H1 9632   2.323   3.402   3.439  0.7900 -0.7434  1.2403
 3232TIP3    H2 9633   2.381   3.495   3.544 -1.0296  0.0003  1.6178
 3233TIP3   OH2 9634   0.768   4.982   1.369 -0.5425 -0.3260  0.0756
 3233TIP3    H1 9635   0.796   5.050   1.429 -0.1971 -0.7822  0.4379
 3233TIP3    H2 9636   0.679   4.960   1.396 -0.7017  0.0759 -0.1270
 3234TIP3   OH2 9637   0.769   2.586   2.584  0.0638 -0.2687 -0.1543
 3234TIP3    H1 9638   0.840   2.650   2.577 -0.8433  0.6217 -1.4602
 3234TIP3    H2 9639   0.779   2.531   2.506 -0.7168 -0.0893 -0.3857
 3235TIP3   OH2 9640   7.273   3.559   4.429 -0.1067  0.6208 -0.4486
 3235TIP3    H1 9641   7.178   3.546   4.433  0.2219 -1.7090  0.4245
 3235TIP3    H2 9642   7.307   3.475   4.399  1.8444  0.7811  1.2293
 3236TIP3   OH2 9643   1.935   2.015   4.187 -0.4535 -0.0855 -0.4954
 3236TIP3    H1 9644   1.868   2.002   4.119 -0.4941  0.9718 -0.6674
 3236TIP3    H2 9645   1.965   2.105   4.173 -1.1861  0.4867  1.5327
 3237TIP3   OH2 9646   0.566   4.440   3.126  0.2794 -0.6077  0.2382
 3237TIP3    H1 9647   0.501   4.396   3.070  0.8084  1.1757 -1.8497
 3237TIP3    H2 9648   0.576   4.381   3.201 -1.7733 -2.2170 -0.6749
 3238TIP3   OH2 9649   1.277   2.604   3.435 -0.2136 -0.4009 -0.1527
 3238TIP3    H1 9650   1.192   2.576   3.403 -0.4151  1.0413 -0.9275
 3238TIP3    H2 9651   1.269   2.604   3.531 -0.9010 -0.7993 -0.2135
 3239TIP3   OH2 9652   7.001   2.915   5.536 -0.3492  0.1351 -0.5947
 3239TIP3    H1 9653   6.997   2.833   5.486 -1.8312  0.7745 -1.5625
 3239TIP3    H2 9654   6.959   2.980   5.479 -0.5066  1.2509  0.7638
 3240TIP3   OH2 9655   0.646   3.041   5.329  0.3451 -0.1935  0.3540
 3240TIP3    H1 9656   0.574   3.030   5.391 -1.2859 -0.0114 -1.4394
 3240TIP3    H2 9657   0.618   3.113   5.273  0.9598 -1.5017 -1.6884
 3241TIP3   OH2 9658   1.943   0.531   4.483  0.7164 -0.7036 -0.7560
 3241TIP3    H1 9659   1.979   0.612   4.520  1.0612 -0.5945 -1.3182
 3241TIP3    H2 9660   2.002   0.510   4.410 -0.7640 -0.1511 -2.1326
 3242TIP3   OH2 9661   2.901   3.729   2.938 -0.2946 -0.0040  1.2414
 3242TIP3    H1 9662   2.825   3.699   2.989 -0.8616  0.1626  0.5176
 3242TIP3    H2 9663   2.960   3.653   2.937 -0.8847 -0.4660  1.0017
 3243TIP3   OH2 9664   0.585   2.829   1.662  0.5502 -0.8800  0.2217
 3243TIP3    H1 9665   0.577   2.909   1.611 -0.5379 -1.1968 -0.1079
 3243TIP3    H2 9666   0.533   2.765   1.614  1.4438 -1.7999  0.4617
 3244TIP3   OH2 9667   0.311   2.288   0.686 -0.3845  0.5159 -0.0854
 3244TIP3    H1 9668   0.311   2.253   0.775  1.8267  0.0718 -0.2376
 3244TIP3    H2 9669   0.224   2.326   0.676 -0.7905  0.2766  2.1439
 3245TIP3   OH2 9670   3.048   4.782   2.344 -0.1991 -0.4728  0.3455
 3245TIP3    H1 9671   3.025   4.706   2.291  3.1394 -1.3563  0.0619
 3245TIP3    H2 9672   3.046   4.855   2.282  1.6332 -1.1791 -0.5883
 3246TIP3   OH2 9673   8.196   1.558   0.896 -0.1096 -0.0036 -0.2551
 3246TIP3    H1 9674   8.277   1.608   0.901 -0.0574 -0.1587  0.5398
 3246TIP3    H2 9675   8.224   1.469   0.874 -0.1719  0.2400 -1.3106
 3247TIP3   OH2 9676   7.529   3.620   2.850 -0.1765  0.1870 -0.0132
 3247TIP3    H1 9677   7.525   3.577   2.936 -1.2017 -1.9286 -1.0976
 3247TIP3    H2 9678   7.615   3.596   2.815 -1.4337 -2.4993 -1.3618
 3248TIP3   OH2 9679   1.162   4.327   4.654  0.5722 -0.1672 -0.5212
 3248TIP3    H1 9680   1.126   4.274   4.725 -1.9746 -0.0958 -1.6975
 3248TIP3    H2 9681   1.229   4.272   4.614  1.0688 -0.7361  1.0435
 3249TIP3   OH2 9682   0.504   4.691   2.989 -0.1355  0.2780  0.4670
 3249TIP3    H1 9683   0.599   4.706   2.994 -0.4276  1.8192  1.7904
 3249TIP3    H2 9684   0.491   4.607   3.033  0.4500  0.8612  1.7978
 3250TIP3   OH2 9685   1.386   2.895   5.714 -0.2862 -0.0520 -0.6734
 3250TIP3    H1 9686   1.425   2.982   5.704 -1.4341  0.3335 -2.0421
 3250TIP3    H2 9687   1.428   2.842   5.646 -3.0232  0.7160 -3.0858
 3251TIP3   OH2 9688   5.772   4.679   5.124  0.6070  0.9361  0.0021
 3251TIP3    H1 9689   5.687   4.684   5.080  0.9855  0.0787 -0.8578
 3251TIP3    H2 9690   5.770   4.595   5.170  1.1373  0.7260 -0.3545
 3252TIP3   OH2 9691   6.488   3.343   5.576  0.2528 -0.0665 -0.1044
 3252TIP3    H1 9692   6.540   3.282   5.523  1.8695  1.6035 -0.4939
 3252TIP3    H2 9693   6.398   3.311   5.567  0.9132 -1.7222 -1.2141
 3253TIP3   OH2 9694   1.919   3.642   3.931  0.3424 -0.4606 -0.4750
 3253TIP3    H1 9695   1.925   3.730   3.893  1.2726  0.1834  1.0760
 3253TIP3    H2 9696   1.911   3.658   4.025 -1.7946 -2.0101 -0.3593
 3254TIP3   OH2 9697   1.568   3.854   4.761  0.4887 -0.0966  0.0764
 3254TIP3    H1 9698   1.535   3.939   4.791 -0.2457 -0.8408  1.4786
 3254TIP3    H2 9699   1.654   3.845   4.803  0.0141 -0.5840  0.9645
 3255TIP3   OH2 9700   7.424   4.716   4.181 -0.5129  0.1350  0.4103
 3255TIP3    H1 9701   7.446   4.804   4.210 -0.2104  0.4456 -0.7318
 3255TIP3    H2 9702   7.406   4.725   4.087  2.1202 -1.4460 -0.3140
 3256TIP3   OH2 9703   1.760   0.872   0.183 -0.7251  0.4244  0.4500
 3256TIP3    H1 9704   1.709   0.792   0.170  0.8277 -0.5810  0.4967
 3256TIP3    H2 9705   1.740   0.900   0.272 -0.1397 -0.7106  0.9320
 3257TIP3   OH2 9706   7.996   2.107   5.879 -0.2119  0.0610 -0.1906
 3257TIP3    H1 9707   7.984   2.165   5.804  1.0710  2.1812  1.1765
 3257TIP3    H2 9708   7.971   2.160   5.955  1.5419 -0.9468  1.1512
 3258TIP3   OH2 9709   8.473   2.604   0.716 -0.0518  0.8336 -0.0366
 3258TIP3    H1 9710   8.403   2.591   0.651  0.1116  0.3508 -0.1162
 3258TIP3    H2 9711   8.512   2.517   0.727  0.0216  0.9442  0.5949
 3259TIP3   OH2 9712   8.438   1.793   6.207  0.6079 -0.2659  0.1658
 3259TIP3    H1 9713   8.516   1.849   6.204 -0.0721  0.7761  1.5394
 3259TIP3    H2 9714   8.456   1.724   6.144  1.1929  1.8711 -2.1007
 3260TIP3   OH2 9715   0.170   3.093   3.964 -0.0609 -0.2823 -0.1125
 3260TIP3    H1 9716   0.201   3.183   3.964  1.1875 -0.6941  0.1407
 3260TIP3    H2 9717   0.078   3.099   3.942  0.2678  0.9763 -1.2128
 3261TIP3   OH2 9718   2.058   2.393   3.829 -0.0358 -0.3759 -0.3803
 3261TIP3    H1 9719   2.017   2.376   3.913  0.5972  0.8796  0.1870
 3261TIP3    H2 9720   2.002   2.459   3.787  0.1992 -0.2628 -0.5201
 3262TIP3   OH2 9721   1.384   2.952   3.434 -0.5706 -0.4183 -0.1547
 3262TIP3    H1 9722   1.353   2.991   3.353  1.0931  0.7763 -0.2356
 3262TIP3    H2 9723   1.378   2.858   3.419 -2.0324 -0.2140 -0.9560
 3263TIP3   OH2 9724   1.538   2.459   3.742 -0.1677  0.7682  0.0700
 3263TIP3    H1 9725   1.590   2.446   3.822 -0.8119  1.6649  0.6495
 3263TIP3    H2 9726   1.595   2.430   3.671  0.3501 -0.2284  0.8678
 3264TIP3   OH2 9727   2.611   2.895   0.966  0.5912 -0.2776  0.0872
 3264TIP3    H1 9728   2.689   2.949   0.974  0.1541  0.1832  1.2632
 3264TIP3    H2 9729   2.642   2.806   0.985  1.2365 -0.4240 -1.5175
 3265TIP3   OH2 9730   0.503   3.290   0.340 -0.1798  0.0582  0.0241
 3265TIP3    H1 9731   0.523   3.303   0.433 -0.0302  0.8827 -0.1225
 3265TIP3    H2 9732   0.552   3.358   0.295 -2.0003  1.0468 -0.4869
 3266TIP3   OH2 9733   1.234   1.424   1.313  0.1220 -0.9861  0.1266
 3266TIP3    H1 9734   1.190   1.372   1.245 -1.9541  0.7670  0.0883
 3266TIP3    H2 9735   1.255   1.507   1.270 -1.8302  0.4000  1.7985
 3267TIP3   OH2 9736   7.503   1.369   5.092  0.2550 -0.3226 -0.4165
 3267TIP3    H1 9737   7.413   1.401   5.083  1.1694  1.8192 -2.2317
 3267TIP3    H2 9738   7.553   1.445   5.120  1.3927 -1.7034  1.4304
 3268TIP3   OH2 9739   0.132   3.789   3.623 -0.0119  0.2903  0.0516
 3268TIP3    H1 9740   0.086   3.871   3.640 -0.0581  0.5224 -1.1791
 3268TIP3    H2 9741   0.204   3.790   3.686 -0.0492  1.2484  0.0961
 3269TIP3   OH2 9742   1.159   6.243   4.027 -0.4440  0.6871 -0.3336
 3269TIP3    H1 9743   1.225   6.287   3.974  0.6077  1.6224  1.7180
 3269TIP3    H2 9744   1.081   6.299   4.021  0.3578  1.9533  0.8707
 3270TIP3   OH2 9745   1.604   2.676   4.051 -0.2274  0.2159  0.1018
 3270TIP3    H1 9746   1.610   2.767   4.023  1.4718  0.6511  1.7342
 3270TIP3    H2 9747   1.528   2.674   4.110 -1.9456 -0.0502 -2.0748
 3271TIP3   OH2 9748   0.880   2.822   3.138 -0.3002 -0.1763 -0.4839
 3271TIP3    H1 9749   0.955   2.879   3.156  0.8283 -1.3467 -1.4761
 3271TIP3    H2 9750   0.847   2.852   3.053  2.2214 -3.0094 -2.5318
 3272TIP3   OH2 9751   1.698   1.899   2.315 -0.0586  0.4201  0.1819
 3272TIP3    H1 9752   1.762   1.970   2.308 -0.1275  0.3070 -2.0577
 3272TIP3    H2 9753   1.689   1.866   2.225 -2.1723 -0.5347  0.7138
 3273TIP3   OH2 9754   8.393   5.293   2.526  0.0741  0.0868 -0.2423
 3273TIP3    H1 9755   8.422   5.379   2.554 -0.9444  0.5452 -0.5650
 3273TIP3    H2 9756   8.307   5.308   2.485 -0.6268 -1.2195  0.6980
 3274TIP3   OH2 9757   6.596   4.063   4.812 -0.3714 -0.0433  0.8190
 3274TIP3    H1 9758   6.571   3.985   4.862  1.1204 -2.9992 -2.8265
 3274TIP3    H2 9759   6.515   4.091   4.770 -0.2362 -1.8402 -0.7038
 3275TIP3   OH2 9760   2.317   1.175   3.245 -0.3979  0.2871  0.0699
 3275TIP3    H1 9761   2.333   1.139   3.332 -1.0860  0.7417  0.3947
 3275TIP3    H2 9762   2.397   1.223   3.224  0.0508 -0.4270  0.1416
 3276TIP3   OH2 9763   0.203   2.819   4.339 -0.1837 -0.6908  0.2829
 3276TIP3    H1 9764   0.285   2.775   4.361 -0.8353 -2.1609 -0.1605
 3276TIP3    H2 9765   0.199   2.816   4.244 -1.1818 -1.4368  0.3415
 3277TIP3   OH2 9766   0.231   2.835   4.074  0.0433  0.1870  0.2602
 3277TIP3    H1 9767   0.183   2.907   4.033  1.2472  0.4229 -0.7819
 3277TIP3    H2 9768   0.321   2.844   4.041  0.6831 -0.5684  1.7376
 3278TIP3   OH2 9769   8.144   3.035   2.927  0.4080  0.3783 -0.5366
 3278TIP3    H1 9770   8.145   3.023   3.022 -0.2272  0.8957 -0.4613
 3278TIP3    H2 9771   8.223   3.085   2.908  0.8840 -0.2981 -0.3645
 3279TIP3   OH2 9772   1.005   2.030   5.577  0.1954 -0.1195  0.0435
 3279TIP3    H1 9773   1.065   2.073   5.637 -1.1989 -0.8670  2.0386
 3279TIP3    H2 9774   1.048   1.947   5.556  0.9438  0.3865 -0.4452
 3280TIP3   OH2 9775   7.377   8.011   3.737  0.6011 -0.1661  0.3784
 3280TIP3    H1 9776   7.371   7.919   3.761 -1.7366  0.2547  1.5530
 3280TIP3    H2 9777   7.298   8.027   3.685  0.9830  1.1972  0.1998
 3281TIP3   OH2 9778   7.097   4.678   1.921  0.0175  0.1067 -0.7823
 3281TIP3    H1 9779   7.116   4.685   2.014 -0.0959 -1.4137 -0.6294
 3281TIP3    H2 9780   7.008   4.712   1.911 -1.8255 -3.9738  0.4439
 3282TIP3   OH2 9781   1.178   4.917   4.166 -0.3973  0.0852  0.1578
 3282TIP3    H1 9782   1.267   4.945   4.190  0.0230  0.7635 -2.0717
 3282TIP3    H2 9783   1.168   4.832   4.208  1.0308  0.3503  1.0805
 3283TIP3   OH2 9784   1.234   4.294   3.168  0.0705 -0.9221  0.2834
 3283TIP3    H1 9785   1.305   4.298   3.231 -0.8436 -1.3810  1.3677
 3283TIP3    H2 9786   1.213   4.201   3.162 -0.0794 -0.8444 -0.4364
 3284TIP3   OH2 9787   8.413   2.821   5.077 -0.5282 -0.1412  0.0362
 3284TIP3    H1 9788   8.509   2.817   5.078 -0.4375  0.7684 -2.4210
 3284TIP3    H2 9789   8.386   2.730   5.063 -0.0535 -0.4469  1.0177
 3285TIP3   OH2 9790   6.977   3.152   3.480 -0.8676 -0.4657 -0.1041
 3285TIP3    H1 9791   7.023   3.222   3.526 -2.2349 -0.2128  0.9473
 3285TIP3    H2 9792   6.897   3.193   3.447 -1.5215 -1.4225  0.2260
 3286TIP3   OH2 9793   1.517   1.697   1.834 -0.2114 -0.2965 -0.0799
 3286TIP3    H1 9794   1.591   1.647   1.798 -0.5262 -0.7197 -0.1459
 3286TIP3    H2 9795   1.439   1.648   1.806 -0.4598 -0.5613  1.0769
 3287TIP3   OH2 9796   6.288   3.118   3.809  0.1564 -0.0319 -0.3274
 3287TIP3    H1 9797   6.259   3.159   3.728 -2.2939  1.6988  1.3268
 3287TIP3    H2 9798   6.251   3.030   3.806  1.5346 -0.5805 -1.8290
 3288TIP3   OH2 9799   2.525   1.833   4.590  0.0255 -0.7429 -0.0334
 3288TIP3    H1 9800   2.556   1.782   4.516  2.0978 -0.9599  0.9469
 3288TIP3    H2 9801   2.566   1.918   4.580  0.4218 -0.8114  0.9198
 3289TIP3   OH2 9802   7.733   3.190   1.858  0.2987  0.0046 -0.5207
 3289TIP3    H1 9803   7.730   3.095   1.869  0.1228  0.0860  0.1248
 3289TIP3    H2 9804   7.804   3.218   1.916 -1.4654  0.5746  1.4312
 3290TIP3   OH2 9805   1.296   5.448   1.030  0.1596 -0.3386 -0.0386
 3290TIP3    H1 9806   1.351   5.397   0.971 -0.1107 -1.8432  0.9606
 3290TIP3    H2 9807   1.256   5.382   1.088 -0.2369  1.0129  1.2603
 3291TIP3   OH2 9808   7.869   1.679   5.297  0.5396  0.4698  0.2872
 3291TIP3    H1 9809   7.950   1.722   5.326  0.7321 -0.0121  0.4664
 3291TIP3    H2 9810   7.820   1.749   5.254  1.2123  0.6818 -0.1495
 3292TIP3   OH2 9811   7.261   2.717   5.290 -0.4769  0.3703  0.4503
 3292TIP3    H1 9812   7.251   2.780   5.218  0.5262 -1.1422 -1.0526
 3292TIP3    H2 9813   7.179   2.722   5.338 -0.6027  2.4628  0.0660
 3293TIP3   OH2 9814   1.382   4.211   1.224 -0.2553  0.2999  0.0010
 3293TIP3    H1 9815   1.456   4.159   1.191  1.6649  2.6067  0.5262
 3293TIP3    H2 9816   1.383   4.195   1.319  1.0074  2.0373  0.3126
 3294TIP3   OH2 9817   2.788   5.201   5.715 -0.1314 -0.0890  0.5295
 3294TIP3    H1 9818   2.868   5.251   5.703 -1.0650  2.0473  2.7600
 3294TIP3    H2 9819   2.740   5.248   5.783 -2.9798 -1.6794 -0.2753
 3295TIP3   OH2 9820   7.173   6.573   5.237 -0.4047  0.5881 -0.4072
 3295TIP3    H1 9821   7.219   6.641   5.188 -0.8652  0.6268 -0.7892
 3295TIP3    H2 9822   7.081   6.588   5.217 -0.2971 -2.3262 -3.2633
 3296TIP3   OH2 9823   7.770   3.806   2.937 -0.1600 -0.0808  0.3898
 3296TIP3    H1 9824   7.682   3.833   2.911 -0.0068 -0.2481 -0.3322
 3296TIP3    H2 9825   7.770   3.711   2.931  0.0777 -0.0802  0.3464
 3297TIP3   OH2 9826   7.716   2.959   4.921  0.6445  0.5321  0.2279
 3297TIP3    H1 9827   7.810   2.971   4.918  0.8433 -1.1066 -0.5384
 3297TIP3    H2 9828   7.703   2.882   4.976 -0.3073  1.3392  1.1529
 3298TIP3   OH2 9829   7.444   4.559   2.072  0.6628  0.3383  0.3632
 3298TIP3    H1 9830   7.475   4.540   2.161 -0.0912  0.4791  0.6562
 3298TIP3    H2 9831   7.351   4.540   2.074  0.6092  0.5083 -0.3565
 3299TIP3   OH2 9832   8.353   3.514   3.496  0.4199 -0.3862  0.3137
 3299TIP3    H1 9833   8.356   3.544   3.405 -0.5130  1.5835  0.8819
 3299TIP3    H2 9834   8.378   3.591   3.547  1.4899 -1.6312  1.7024
 3300TIP3   OH2 9835   8.025   3.353   5.324 -0.1757 -0.2319  0.6473
 3300TIP3    H1 9836   7.968   3.429   5.311  1.1043  0.5645 -0.5369
 3300TIP3    H2 9837   7.979   3.281   5.282 -1.1197  0.0098  1.2382
 3301TIP3   OH2 9838   2.571   0.848   4.580 -0.3030  0.3434  0.4840
 3301TIP3    H1 9839   2.543   0.932   4.544  0.2058 -0.0872 -0.9334
 3301TIP3    H2 9840   2.664   0.843   4.561 -0.3358 -0.5529  0.5373
 3302TIP3   OH2 9841   7.351   3.213   5.152 -0.6383  0.1194  0.4243
 3302TIP3    H1 9842   7.306   3.267   5.087 -2.3368 -1.7442  0.0021
 3302TIP3    H2 9843   7.281   3.172   5.202  0.5921 -1.9325  0.5339
 3303TIP3   OH2 9844   7.443   2.602   1.026 -0.5526 -0.4899 -0.2185
 3303TIP3    H1 9845   7.387   2.556   0.963 -0.6809 -0.0162 -0.4469
 3303TIP3    H2 9846   7.529   2.562   1.014 -0.3022  0.4267 -1.5345
 3304TIP3   OH2 9847   0.945   4.571   3.996 -0.5220  0.0362  0.0094
 3304TIP3    H1 9848   0.913   4.516   4.068  0.5638 -1.0767 -0.3499
 3304TIP3    H2 9849   1.031   4.601   4.025  0.0035 -0.5711 -0.8778
 3305TIP3   OH2 9850   7.400   1.614   6.136 -0.3379 -0.5962 -0.3332
 3305TIP3    H1 9851   7.424   1.596   6.226 -1.7952 -0.5232  0.0846
 3305TIP3    H2 9852   7.464   1.678   6.106 -1.3127  1.2331  1.4326
 3306TIP3   OH2 9853   2.847   0.825   3.826 -0.4568  0.4756  0.2212
 3306TIP3    H1 9854   2.757   0.791   3.824 -0.1078 -0.4342 -1.0654
 3306TIP3    H2 9855   2.866   0.847   3.735  1.1527 -0.8213  0.2098
 3307TIP3   OH2 9856   6.982   4.134   4.573 -0.2089  0.1833 -0.3615
 3307TIP3    H1 9857   6.960   4.187   4.497 -1.2027  0.6318  0.2200
 3307TIP3    H2 9858   6.898   4.095   4.600  0.2071 -0.3099  0.2443
 3308TIP3   OH2 9859   5.867   4.161   5.006 -0.4045  0.2120  0.0773
 3308TIP3    H1 9860   5.839   4.225   5.071 -0.1145  0.4841 -0.0649
 3308TIP3    H2 9861   5.794   4.100   4.999 -0.9565  0.9067 -0.2837
 3309TIP3   OH2 9862   2.292   1.876   4.363  0.1808  0.1659  0.1801
 3309TIP3    H1 9863   2.283   1.935   4.438 -0.7337  0.2408  0.0259
 3309TIP3    H2 9864   2.336   1.799   4.398  0.8511  0.7037  0.5204
 3310TIP3   OH2 9865   1.843   1.318   3.658 -0.1595  0.1014 -0.4702
 3310TIP3    H1 9866   1.821   1.345   3.569 -0.0477 -0.0436 -0.5416
 3310TIP3    H2 9867   1.881   1.396   3.698  2.4242 -0.6117 -1.4358
 3311TIP3   OH2 9868   2.166   1.827   2.194 -0.2228  0.0349  0.3489
 3311TIP3    H1 9869   2.084   1.786   2.220  0.2810  0.8509  3.4192
 3311TIP3    H2 9870   2.212   1.844   2.277  3.4536 -1.2201 -1.3018
 3312TIP3   OH2 9871   7.557   3.593   6.687 -0.4356  0.7558 -0.2737
 3312TIP3    H1 9872   7.495   3.641   6.742  0.4116  0.5856  0.8353
 3312TIP3    H2 9873   7.620   3.660   6.658  0.2055  0.5054  0.5127
 3313TIP3   OH2 9874   0.385   3.728   5.760  0.0883 -0.3329  0.3231
 3313TIP3    H1 9875   0.289   3.728   5.762  0.1156  1.0783  2.0770
 3313TIP3    H2 9876   0.407   3.798   5.699  0.0109 -0.3642  0.2589
 3314TIP3   OH2 9877   7.481   3.091   4.911  0.3564  0.1209 -0.6255
 3314TIP3    H1 9878   7.473   3.144   4.990  0.5685 -0.2416 -0.3624
 3314TIP3    H2 9879   7.568   3.053   4.915  0.5896  0.5672 -1.3286
 3315TIP3   OH2 9880   6.376   4.508   3.129 -0.0011  0.5883 -0.5066
 3315TIP3    H1 9881   6.426   4.544   3.202  0.7320 -0.2992 -0.5609
 3315TIP3    H2 9882   6.287   4.542   3.142 -0.8134 -2.5226  2.9346
 3316TIP3   OH2 9883   2.144   5.040   3.346  0.2911 -0.1223 -0.1047
 3316TIP3    H1 9884   2.191   5.065   3.267 -3.0996  0.4112 -2.0176
 3316TIP3    H2 9885   2.130   5.122   3.393  0.8615 -0.2340  0.2741
 3317TIP3   OH2 9886   0.600   2.162   2.659  0.0703  0.0056  0.2908
 3317TIP3    H1 9887   0.566   2.250   2.642  1.7260  0.7690  0.7082
 3317TIP3    H2 9888   0.528   2.103   2.639 -1.0942  1.4739  0.0757
 3318TIP3   OH2 9889   7.335   3.423   4.174  0.4304  0.0268 -0.3288
 3318TIP3    H1 9890   7.392   3.405   4.099 -0.3656  0.9914 -1.1839
 3318TIP3    H2 9891   7.274   3.350   4.176  0.9261 -0.3831 -0.1662
 3319TIP3   OH2 9892   1.671   5.886   1.503  0.0013 -0.3904 -0.3743
 3319TIP3    H1 9893   1.591   5.887   1.556  0.1091 -1.8331 -0.1610
 3319TIP3    H2 9894   1.646   5.927   1.420 -0.6086  0.3777  0.1897
 3320TIP3   OH2 9895   1.623   5.314   4.461 -0.4270 -0.7389  0.2292
 3320TIP3    H1 9896   1.534   5.338   4.433  0.6066  1.1040 -1.6405
 3320TIP3    H2 9897   1.667   5.288   4.381  0.5255 -2.4194  1.2727
 3321TIP3   OH2 9898   1.202   4.896   2.346 -0.0928 -0.5306  0.1863
 3321TIP3    H1 9899   1.244   4.936   2.422  0.4719 -2.3018  0.8298
 3321TIP3    H2 9900   1.110   4.924   2.352  0.2836  0.6421  0.6166
 3322TIP3   OH2 9901   7.331   2.956   3.349 -0.6499  0.2399 -0.2419
 3322TIP3    H1 9902   7.343   2.909   3.431 -1.0617 -0.0970 -0.3749
 3322TIP3    H2 9903   7.418   2.957   3.309 -0.6033 -0.2549 -0.1558
 3323TIP3   OH2 9904   2.126   3.131   3.465 -0.1404 -0.7638 -0.4260
 3323TIP3    H1 9905   2.144   3.065   3.532  0.1155 -1.3456 -1.0645
 3323TIP3    H2 9906   2.209   3.177   3.454  0.2552 -1.7411 -1.5123
 3324TIP3   OH2 9907   1.580   3.481   4.076 -0.2301 -0.4911  0.3829
 3324TIP3    H1 9908   1.509   3.530   4.117 -0.6553 -0.2790 -0.6083
 3324TIP3    H2 9909   1.659   3.512   4.120 -0.1776  2.9708 -1.9595
 3325TIP3   OH2 9910   1.873   4.521   2.863 -0.2699 -0.0806 -0.4572
 3325TIP3    H1 9911   1.875   4.597   2.805 -0.3520 -0.7644 -1.3589
 3325TIP3    H2 9912   1.932   4.544   2.935 -1.6291  1.5456  0.1697
 3326TIP3   OH2 9913   3.006   2.855   4.246 -0.6061  0.4785 -0.2865
 3326TIP3    H1 9914   3.038   2.770   4.216  1.9160  1.2803  0.0281
 3326TIP3    H2 9915   2.925   2.834   4.293 -0.5022 -1.6458 -0.9768
 3327TIP3   OH2 9916   8.360   3.270   3.247  0.4212  0.4321 -0.4000
 3327TIP3    H1 9917   8.336   3.234   3.332  0.6897 -1.1309 -0.9570
 3327TIP3    H2 9918   8.394   3.194   3.198  2.1290  1.6739 -1.2027
 3328TIP3   OH2 9919   2.243   2.519   2.058 -0.9115  0.1974 -0.0595
 3328TIP3    H1 9920   2.232   2.479   2.144 -1.7560 -1.4441 -0.9248
 3328TIP3    H2 9921   2.311   2.466   2.015 -0.6104  0.9073 -0.4753
 3329TIP3   OH2 9922   8.431   2.669   4.122 -0.3747  0.5401  0.4833
 3329TIP3    H1 9923   8.498   2.675   4.055 -0.1794 -0.8949  0.5214
 3329TIP3    H2 9924   8.377   2.747   4.110  0.2779  0.8245 -0.6560
 3330TIP3   OH2 9925   3.158   2.379   1.351  0.3739  0.6703 -0.3280
 3330TIP3    H1 9926   3.100   2.347   1.282 -0.1884  0.5445  0.1949
 3330TIP3    H2 9927   3.192   2.462   1.318  0.5029  0.3636 -0.9659
 3331TIP3   OH2 9928   0.891   3.142   4.012 -0.7906 -0.0375  0.1697
 3331TIP3    H1 9929   0.795   3.135   4.016 -0.9659  2.0204  0.0938
 3331TIP3    H2 9930   0.922   3.059   4.047 -2.6149 -1.4625 -1.4388
 3332TIP3   OH2 9931   7.639   3.324   5.048  0.0195 -0.2941  0.6359
 3332TIP3    H1 9932   7.632   3.406   4.999 -1.1951 -1.1779 -0.7101
 3332TIP3    H2 9933   7.610   3.346   5.137  1.1715  1.0659  0.6911
 3333TIP3   OH2 9934   2.375   1.045   3.809  0.1997  0.2227 -0.2111
 3333TIP3    H1 9935   2.358   0.957   3.843  2.0176  0.0511  0.2897
 3333TIP3    H2 9936   2.288   1.078   3.786 -0.3400 -2.4778 -2.3535
 3334TIP3   OH2 9937   7.906   3.731   0.398 -0.2727  0.3960 -0.3378
 3334TIP3    H1 9938   7.940   3.641   0.396 -0.4125  0.3412 -0.2384
 3334TIP3    H2 9939   7.836   3.729   0.463  0.0001  0.6773 -0.0345
 3335TIP3   OH2 9940   7.943   2.797   3.938 -0.3993  0.4606  0.3970
 3335TIP3    H1 9941   7.892   2.744   4.000  1.5509  0.5344  2.0927
 3335TIP3    H2 9942   7.963   2.877   3.986  1.0923  0.5346 -0.3358
 3336TIP3   OH2 9943   6.250   7.816   4.817 -0.1603 -0.3332 -0.3103
 3336TIP3    H1 9944   6.170   7.768   4.795 -0.2939 -0.0753 -0.3856
 3336TIP3    H2 9945   6.317   7.777   4.760 -0.8365  1.4256 -2.3928
 3337TIP3   OH2 9946   8.292   3.313   4.869 -0.6699 -0.1464 -0.0206
 3337TIP3    H1 9947   8.271   3.285   4.958 -1.9405  4.2171  1.1684
 3337TIP3    H2 9948   8.207   3.317   4.824 -0.3182  0.1227 -0.6772
 3338TIP3   OH2 9949   1.061   4.075   5.641  0.0103  0.2964 -0.0454
 3338TIP3    H1 9950   1.112   4.084   5.721  1.1167 -0.0256 -0.7112
 3338TIP3    H2 9951   1.125   4.056   5.572 -1.1087 -1.3746 -0.6735
 3339TIP3   OH2 9952   7.130   3.959   5.992  0.9794  0.5812 -0.0592
 3339TIP3    H1 9953   7.224   3.944   5.990  1.3967  1.9377  4.1520
 3339TIP3    H2 9954   7.104   3.939   6.082 -2.8637 -0.2417 -1.2471
 3340TIP3   OH2 9955   0.937   3.366   4.223 -0.0978 -0.0571  0.3044
 3340TIP3    H1 9956   0.922   3.320   4.140  1.2717  0.4857 -0.2477
 3340TIP3    H2 9957   0.989   3.305   4.275  0.1123  0.1111  0.2902
 3341TIP3   OH2 9958   0.301   6.409   4.907 -0.6902  0.3378  0.7273
 3341TIP3    H1 9959   0.225   6.466   4.923 -0.6553  0.6464 -0.2289
 3341TIP3    H2 9960   0.269   6.344   4.845 -0.4334 -0.0949  1.0416
 3342TIP3   OH2 9961   0.477   3.872   4.013 -0.3881  0.1762 -0.8284
 3342TIP3    H1 9962   0.461   3.836   4.101 -0.7736  1.7467 -0.2317
 3342TIP3    H2 9963   0.390   3.893   3.979 -0.0876  2.0568 -0.4878
 3343TIP3   OH2 9964   1.183   3.036   0.668 -0.0150  0.3299  0.0790
 3343TIP3    H1 9965   1.216   3.038   0.578  1.5217  1.6454  0.6571
 3343TIP3    H2 9966   1.252   2.993   0.718 -0.5092  0.3408  0.7806
 3344TIP3   OH2 9967   1.516   4.029   4.085 -0.8032 -0.6625  0.4755
 3344TIP3    H1 9968   1.558   3.961   4.137 -1.2285 -0.2917  1.3240
 3344TIP3    H2 9969   1.425   4.029   4.114 -0.3980  1.5612  1.9085
 3345TIP3   OH2 9970   3.343   1.710   3.592  0.3903 -0.0149 -0.2198
 3345TIP3    H1 9971   3.409   1.647   3.622  0.9432  0.6649  0.0237
 3345TIP3    H2 9972   3.393   1.774   3.541 -0.0676  0.5538  0.0424
 3346TIP3   OH2 9973   2.899   5.225   2.349  0.6960 -0.0173 -0.2496
 3346TIP3    H1 9974   2.912   5.313   2.385  1.2727  0.4921 -1.6650
 3346TIP3    H2 9975   2.812   5.199   2.379  1.7942 -0.2942  2.8862
 3347TIP3   OH2 9976   7.840   4.592   3.204  0.0522 -0.2408  0.8185
 3347TIP3    H1 9977   7.828   4.658   3.135 -0.3333 -1.3278 -0.1739
 3347TIP3    H2 9978   7.902   4.529   3.166 -1.4107 -1.7102  0.8320
 3348TIP3   OH2 9979   6.435   4.691   5.571  0.2023  0.3332 -0.1250
 3348TIP3    H1 9980   6.445   4.616   5.511 -0.8857  0.9567 -1.1141
 3348TIP3    H2 9981   6.505   4.751   5.547 -0.0179  0.4242 -0.5534
 3349TIP3   OH2 9982   1.070   1.088   4.933  0.4103  0.0852  0.6960
 3349TIP3    H1 9983   1.151   1.065   4.977  1.2143  2.2734  0.4143
 3349TIP3    H2 9984   1.087   1.174   4.894 -1.2311 -0.4960 -1.4229
 3350TIP3   OH2 9985   2.152   2.978   4.086 -0.0304 -0.0190  0.2913
 3350TIP3    H1 9986   2.175   2.885   4.086 -4.0331 -1.1470 -0.9181
 3350TIP3    H2 9987   2.194   3.014   4.008 -2.3622 -2.0218 -1.9866
 3351TIP3   OH2 9988   2.439   1.975   5.005  0.3337 -0.1968  0.0061
 3351TIP3    H1 9989   2.482   1.918   5.068  0.3764  0.3268  0.4563
 3351TIP3    H2 9990   2.391   1.916   4.947 -0.8891 -0.5926  1.4092
 3352TIP3   OH2 9991   2.991   1.351   0.470  0.3663  0.4668  0.0159
 3352TIP3    H1 9992   3.021   1.395   0.550  0.9683  1.1318 -0.5654
 3352TIP3    H2 9993   3.068   1.351   0.413 -0.5059  1.4972 -1.1954
 3353TIP3   OH2 9994   0.282   2.650   4.854  0.0299  0.0750 -0.1609
 3353TIP3    H1 9995   0.239   2.630   4.771  0.1544  0.9589 -0.4466
 3353TIP3    H2 9996   0.214   2.690   4.908  0.2978  0.7694 -0.3364
 3354TIP3   OH2 9997   0.078   3.907   1.636  0.2890  0.0645  0.3560
 3354TIP3    H1 9998   0.170   3.900   1.611 -0.3918 -1.7570 -1.8631
 3354TIP3    H2 9999   0.078   3.958   1.717  3.2191  0.2108  0.2982
 3355TIP3   OH210000   2.948   3.318   2.542  0.1476  0.1988 -0.3547
 3355TIP3    H110001   3.036   3.355   2.538  0.2873 -0.0732  0.1741
 3355TIP3    H210002   2.961   3.223   2.530 -0.0195  0.0965  0.2702
 3356TIP3   OH210003   0.966   1.738   1.108  0.0209 -0.1146 -0.2534
 3356TIP3    H110004   1.032   1.794   1.148  0.1243  0.4373 -1.1662
 3356TIP3    H210005   1.012   1.658   1.086 -0.3368 -0.9141  1.8718
 3357TIP3   OH210006   0.812   4.474   5.177 -0.0594  0.1084  0.2739
 3357TIP3    H110007   0.880   4.408   5.194  0.3307  0.7492  1.3108
 3357TIP3    H210008   0.754   4.433   5.114  1.7401 -0.1508 -1.2524
 3358TIP3   OH210009   1.186   3.791   3.186  0.5368 -0.0808 -0.1755
 3358TIP3    H110010   1.177   3.699   3.162 -5.1631  0.0634  0.8619
 3358TIP3    H210011   1.222   3.789   3.275  0.2312 -1.2863 -0.0724
 3359TIP3   OH210012   2.638   3.974   2.674  0.3185  0.1206 -0.1114
 3359TIP3    H110013   2.619   4.052   2.621  0.3780  1.1234  1.3140
 3359TIP3    H210014   2.552   3.942   2.701  0.3098 -0.0865 -0.3833
 3360TIP3   OH210015   7.714   1.856   6.606  0.3280  0.0973 -0.6642
 3360TIP3    H110016   7.801   1.891   6.624  0.0932  0.7872 -0.8570
 3360TIP3    H210017   7.704   1.865   6.511  0.0909 -0.0891 -0.6585
 3361TIP3   OH210018   0.653   0.503   5.080  0.0227  0.4029 -0.5494
 3361TIP3    H110019   0.566   0.542   5.092 -0.4078 -0.2933 -1.3594
 3361TIP3    H210020   0.711   0.558   5.132 -0.9088  0.8566  0.0351
 3362TIP3   OH210021   1.963   3.473   5.717 -0.2717 -0.0317 -0.4385
 3362TIP3    H110022   1.949   3.494   5.625 -0.9712  0.1940 -0.2890
 3362TIP3    H210023   1.878   3.441   5.748 -0.1294  0.1800  0.1984
 3363TIP3   OH210024   2.114   4.206   3.335  0.3871  0.0792 -0.0922
 3363TIP3    H110025   2.125   4.249   3.250  0.9646 -0.5672 -0.3532
 3363TIP3    H210026   2.031   4.239   3.369 -0.7081 -0.9461 -1.6881
 3364TIP3   OH210027   1.139   2.759   4.952  0.2809 -0.1464  0.1949
 3364TIP3    H110028   1.133   2.680   4.899  0.2987 -0.0764  0.0880
 3364TIP3    H210029   1.054   2.801   4.943 -0.2386 -0.8974  1.4230
 3365TIP3   OH210030   2.452   3.163   3.199  0.0449 -0.0591 -0.0784
 3365TIP3    H110031   2.456   3.148   3.105  0.6649 -1.3239  0.1480
 3365TIP3    H210032   2.422   3.254   3.207 -0.0052  0.0593 -1.4875
 3366TIP3   OH210033   1.816   3.598   4.691 -0.8691  0.1888  0.2586
 3366TIP3    H110034   1.893   3.540   4.688 -0.5198  0.6841 -0.4833
 3366TIP3    H210035   1.841   3.673   4.638 -1.9709  0.2402 -0.1996
 3367TIP3   OH210036   2.012   3.456   1.473 -0.0367  0.1548  0.5390
 3367TIP3    H110037   1.993   3.481   1.383 -0.1521  0.0530  0.5340
 3367TIP3    H210038   2.078   3.518   1.502 -0.8026  0.8867  0.7484
 3368TIP3   OH210039   1.714   3.296   4.949  0.3757 -0.0062 -0.1480
 3368TIP3    H110040   1.632   3.310   4.995 -0.4003 -1.7707 -0.9605
 3368TIP3    H210041   1.776   3.272   5.017 -0.3364 -0.8443  0.2154
 3369TIP3   OH210042   1.151   2.406   1.750  0.3577  0.0611  0.1162
 3369TIP3    H110043   1.193   2.326   1.719  1.0712  0.1362  0.8568
 3369TIP3    H210044   1.090   2.430   1.681 -0.4869 -1.5850  0.2846
 3370TIP3   OH210045   2.158   4.296   2.756 -0.4046  0.3178 -0.2018
 3370TIP3    H110046   2.134   4.341   2.676 -0.9480 -1.2507 -0.9284
 3370TIP3    H210047   2.079   4.300   2.811 -0.4961  0.1337 -0.3202
 3371TIP3   OH210048   0.564   3.847   2.967  0.2628  0.0434 -0.2213
 3371TIP3    H110049   0.593   3.852   3.058 -1.2033  1.3735  0.1985
 3371TIP3    H210050   0.535   3.757   2.956  2.5978 -0.7491 -0.0588
 3372TIP3   OH210051   1.967   3.185   1.270  0.4400  0.2726 -0.1996
 3372TIP3    H110052   1.978   3.111   1.211  0.5185  0.9983 -1.1235
 3372TIP3    H210053   1.945   3.258   1.211  2.3361  1.4225  0.4698
 3373TIP3   OH210054   2.243   4.612   3.221 -0.2317  1.0283  0.6901
 3373TIP3    H110055   2.171   4.674   3.234  0.1938  1.2802  1.9245
 3373TIP3    H210056   2.292   4.647   3.146 -2.0629  0.2078 -0.9030
 3374TIP3   OH210057   3.201   2.222   1.573 -0.8219 -0.3361  0.3928
 3374TIP3    H110058   3.152   2.141   1.563 -1.0087 -0.2510  0.6302
 3374TIP3    H210059   3.189   2.267   1.489 -1.1166 -0.3332  0.4351
 3375TIP3   OH210060   3.156   2.030   2.807  0.0011  0.7761  0.1387
 3375TIP3    H110061   3.237   1.987   2.832  0.6761  3.0196  2.0648
 3375TIP3    H210062   3.090   1.961   2.810  1.4123 -0.5718  0.9785
 3376TIP3   OH210063   3.087   2.660   3.672 -0.4879 -0.2914 -0.0684
 3376TIP3    H110064   3.013   2.716   3.646  0.0745  0.3048 -0.4091
 3376TIP3    H210065   3.115   2.619   3.590 -0.5972 -0.7061  0.1028
 3377TIP3   OH210066   1.997   3.839   3.187 -0.4396  0.3204 -0.1296
 3377TIP3    H110067   2.028   3.922   3.150 -0.4973  0.9064  1.1188
 3377TIP3    H210068   2.077   3.787   3.198 -0.4341  0.1029 -1.1659
 3378TIP3   OH210069   2.345   4.240   2.977 -0.5746  0.5614 -0.1784
 3378TIP3    H110070   2.328   4.240   2.883  0.0375  1.9339 -0.3046
 3378TIP3    H210071   2.268   4.282   3.015  0.4476  2.6046 -0.3345
 3379TIP3   OH210072   3.795   1.753   3.027  0.0774  0.1489  0.3842
 3379TIP3    H110073   3.855   1.696   2.981 -1.4345 -1.7297  0.6678
 3379TIP3    H210074   3.796   1.721   3.117 -0.5506  0.7531  0.6082
 3380TIP3   OH210075   2.680   3.277   2.466  0.2235  0.5114 -0.4464
 3380TIP3    H110076   2.647   3.312   2.384  0.0287  0.5391 -0.3584
 3380TIP3    H210077   2.771   3.306   2.471  0.0931  0.9207 -0.4226
 3381TIP3   OH210078   1.355   1.092   5.355 -0.3226 -0.0278 -0.3702
 3381TIP3    H110079   1.413   1.021   5.332  0.3476  0.5920 -0.6105
 3381TIP3    H210080   1.395   1.170   5.316 -1.4214  0.3721 -0.7266
 3382TIP3   OH210081   0.755   3.571   4.200  0.2024  0.0795 -0.2565
 3382TIP3    H110082   0.804   3.503   4.246 -0.6205 -0.8100 -0.6890
 3382TIP3    H210083   0.673   3.578   4.248  0.1447  0.5290 -0.4177
 3383TIP3   OH210084   4.497   1.718   2.551  0.2379  0.3532  0.5935
 3383TIP3    H110085   4.529   1.628   2.540  1.1510  0.7545 -0.1051
 3383TIP3    H210086   4.409   1.708   2.587  0.1564 -0.8300  0.0835
 3384TIP3   OH210087   1.151   1.910   4.724 -0.8523  0.0762  0.3178
 3384TIP3    H110088   1.194   1.944   4.802 -0.1996  0.5876 -0.2517
 3384TIP3    H210089   1.223   1.880   4.668 -1.3902 -1.7182  0.5663
 3385TIP3   OH210090   1.321   4.753   3.233  0.5178  0.3924  0.2694
 3385TIP3    H110091   1.291   4.716   3.150 -0.1238 -1.0577  1.1422
 3385TIP3    H210092   1.358   4.838   3.209 -0.0867  0.1872 -1.4374
 3386TIP3   OH210093   2.484   2.829   3.771  0.4183  0.3371  0.2842
 3386TIP3    H110094   2.411   2.777   3.803 -0.1331  0.7257 -0.3312
 3386TIP3    H210095   2.549   2.825   3.841  0.0174 -0.4284  0.6176
 3387TIP3   OH210096   2.768   6.445   0.752  0.3027 -0.4016 -0.2990
 3387TIP3    H110097   2.721   6.430   0.670  0.0059 -1.4198  0.0458
 3387TIP3    H210098   2.745   6.534   0.777 -2.1367 -1.1806  0.3140
 3388TIP3   OH210099   2.998   2.611   2.263 -0.2238 -0.5567 -0.3628
 3388TIP3    H110100   3.003   2.703   2.238  1.5799 -0.6284 -0.3274
 3388TIP3    H210101   3.088   2.580   2.261 -0.5912 -1.8565  1.4180
 3389TIP3   OH210102   1.579   4.022   1.212 -0.2179  0.1658 -0.3134
 3389TIP3    H110103   1.522   3.957   1.253  0.0950  0.1551  0.1162
 3389TIP3    H210104   1.612   4.074   1.286 -0.6922  0.9966 -0.6775
 3390TIP3   OH210105   2.539   4.437   2.982  0.3826  0.1220  0.7189
 3390TIP3    H110106   2.457   4.387   2.982  1.4277 -1.6669 -0.5167
 3390TIP3    H210107   2.512   4.527   3.000 -1.9507 -0.3011 -0.4472
 3391TIP3   OH210108   4.282   3.495   2.355 -0.0996 -0.6632 -0.0075
 3391TIP3    H110109   4.202   3.493   2.406  0.1348  0.0801  0.4104
 3391TIP3    H210110   4.266   3.562   2.288 -0.3150 -1.4563 -0.7489
 3392TIP3   OH210111   3.043   3.002   2.785 -0.1908 -0.5235  0.1079
 3392TIP3    H110112   3.034   2.987   2.691  1.1676 -1.8991  0.1789
 3392TIP3    H210113   3.072   3.093   2.792 -0.3333 -0.4009 -0.8048
 3393TIP3   OH210114   1.904   3.626   2.247  0.0629 -0.1148 -0.2652
 3393TIP3    H110115   1.957   3.564   2.197  2.3924  0.5614  1.3045
 3393TIP3    H210116   1.926   3.610   2.338 -1.8173  0.7790  0.3863
 3394TIP3   OH210117   2.727   2.393   2.751 -0.8307 -0.8605 -0.1355
 3394TIP3    H110118   2.751   2.303   2.733  1.1549 -0.1439 -1.1490
 3394TIP3    H210119   2.649   2.409   2.697  0.9778 -0.8573 -2.8222
 3395TIP3   OH210120   1.487   5.207   5.702 -0.3954 -0.1015  0.0373
 3395TIP3    H110121   1.567   5.219   5.651 -0.1452 -0.0474  0.4350
 3395TIP3    H210122   1.518   5.173   5.786 -0.4955  2.8852  1.3520
 3396TIP3   OH210123   1.759   5.390   2.862  0.1798 -0.4930  0.1725
 3396TIP3    H110124   1.823   5.380   2.791  0.2524  0.5432  0.0799
 3396TIP3    H210125   1.766   5.482   2.888 -0.1233 -0.7729  1.2682
 3397TIP3   OH210126   3.721   2.791   0.649 -0.2162 -0.2568  0.4189
 3397TIP3    H110127   3.805   2.766   0.687  0.0403  0.3315  0.2614
 3397TIP3    H210128   3.700   2.875   0.691 -0.4339 -0.1132  0.0331
 3398TIP3   OH210129   2.682   2.623   5.745  0.4505  0.0372 -0.3333
 3398TIP3    H110130   2.726   2.565   5.807  0.3811  1.1635  0.7943
 3398TIP3    H210131   2.753   2.670   5.702  0.4506  0.1412 -0.2198
 3399TIP3   OH210132   0.868   4.460   4.233 -0.2556 -0.8364 -0.2412
 3399TIP3    H110133   0.810   4.534   4.217  0.2302 -0.6464 -1.1981
 3399TIP3    H210134   0.812   4.392   4.270 -0.6649  0.0699  0.8220
 3400TIP3   OH210135   1.805   4.960   1.767  0.5199  0.0597 -0.4475
 3400TIP3    H110136   1.733   4.928   1.713  0.4164  1.0347 -0.8981
 3400TIP3    H210137   1.779   5.049   1.791  1.4759  0.3442 -0.4477
 3401TIP3   OH210138   2.739   3.637   4.690 -0.1175  0.2612  0.1219
 3401TIP3    H110139   2.657   3.594   4.716  0.5400 -1.5853 -0.7591
 3401TIP3    H210140   2.752   3.611   4.599  2.1317 -0.6089  0.6436
 3402TIP3   OH210141   2.377   2.122   3.490 -0.0119 -0.0813 -0.3297
 3402TIP3    H110142   2.314   2.170   3.544 -0.7453  1.0470 -2.1004
 3402TIP3    H210143   2.328   2.046   3.458 -0.2500  0.3588 -1.0433
 3403TIP3   OH210144   1.145   1.424   5.005 -0.1602  0.4993 -0.2960
 3403TIP3    H110145   1.170   1.433   5.097 -1.6577  3.0049 -0.0966
 3403TIP3    H210146   1.228   1.423   4.958  0.5559  1.7357  0.8925
 3404TIP3   OH210147   1.852   5.696   2.796 -0.3079  0.8906  0.3610
 3404TIP3    H110148   1.848   5.726   2.706 -2.2880  0.4036  0.2776
 3404TIP3    H210149   1.761   5.687   2.823  0.2114 -2.3167  1.2730
 3405TIP3   OH210150   0.626   4.845   4.671  0.2118 -0.0016  0.5152
 3405TIP3    H110151   0.612   4.768   4.725  0.2924 -0.2820  0.1368
 3405TIP3    H210152   0.685   4.900   4.723  0.8830 -0.5985  0.4036
 3406TIP3   OH210153   2.944   2.673   2.603 -0.2414  0.3676 -0.1006
 3406TIP3    H110154   2.991   2.594   2.579  1.4985  1.8058 -1.5600
 3406TIP3    H210155   2.870   2.676   2.542 -1.0743 -0.7979  0.8265
 3407TIP3   OH210156   3.296   1.975   3.109 -0.1090 -0.3958 -0.4927
 3407TIP3    H110157   3.361   2.031   3.153  0.8558 -2.4613  0.7661
 3407TIP3    H210158   3.220   1.977   3.166 -0.6102  0.7634 -1.1790
 3408TIP3   OH210159   1.984   5.287   0.065 -0.4268 -0.2787 -0.1171
 3408TIP3    H110160   1.978   5.206   0.116  3.4217 -0.9224 -0.5593
 3408TIP3    H210161   1.946   5.265  -0.020  0.3719 -1.5678 -0.1466
 3409TIP3   OH210162   1.588   4.504   3.292  0.0148  0.0737  0.3035
 3409TIP3    H110163   1.519   4.443   3.268  0.7776 -0.5620 -0.2810
 3409TIP3    H210164   1.654   4.451   3.335  1.1333  0.2949 -1.0907
 3410TIP3   OH210165   8.284   2.115   1.263  0.1271  0.6335 -0.0258
 3410TIP3    H110166   8.347   2.148   1.199  0.3640  1.0726  0.4373
 3410TIP3    H210167   8.232   2.050   1.214 -0.5048  1.8507 -1.0034
 3411TIP3   OH210168   1.590   5.774   4.296  0.0461  0.1896 -0.1109
 3411TIP3    H110169   1.682   5.750   4.288 -0.0887  0.0476 -1.3667
 3411TIP3    H210170   1.542   5.693   4.279 -0.3059  0.1904  0.8642
 3412TIP3   OH210171   2.095   3.722   2.589 -0.5319 -0.5298 -1.0808
 3412TIP3    H110172   2.068   3.631   2.583  0.8878 -0.9764 -0.9231
 3412TIP3    H210173   2.108   3.737   2.683  2.1902 -1.0817 -1.3256
 3413TIP3   OH210174   0.650   4.927   0.495  0.0427  0.0700 -0.0219
 3413TIP3    H110175   0.561   4.957   0.512 -0.0622  0.2197 -0.8267
 3413TIP3    H210176   0.698   5.007   0.473  0.0028 -0.2204 -1.1518
 3414TIP3   OH210177   3.538   3.565   2.440  0.1345  0.4768  0.5151
 3414TIP3    H110178   3.606   3.524   2.494 -0.1241 -0.1401  0.3766
 3414TIP3    H210179   3.517   3.647   2.485 -0.2445 -0.1382  1.4727
 3415TIP3   OH210180   2.925   3.145   1.652 -0.9175 -0.3961  0.0904
 3415TIP3    H110181   3.020   3.148   1.663 -0.4264 -2.9886 -2.7720
 3415TIP3    H210182   2.902   3.234   1.623  0.8827 -0.1737 -0.7213
 3416TIP3   OH210183   2.123   4.836   0.334  0.5596 -0.1328 -0.0011
 3416TIP3    H110184   2.189   4.879   0.388 -0.3755 -1.8376  2.6133
 3416TIP3    H210185   2.159   4.750   0.315  0.0070 -0.2869 -0.3700
 3417TIP3   OH210186   3.226   3.772   4.240 -0.4582 -0.1611 -0.3789
 3417TIP3    H110187   3.182   3.814   4.314  1.0202 -0.0982  0.4991
 3417TIP3    H210188   3.220   3.678   4.259  1.8724 -0.0901  1.0514
 3418TIP3   OH210189   4.831   0.051   0.976 -0.1416 -0.2962  0.2246
 3418TIP3    H110190   4.769   0.097   0.919 -0.5391 -0.2132  0.7155
 3418TIP3    H210191   4.811  -0.042   0.962 -0.8787 -0.2531  0.9206
 3419TIP3   OH210192   0.109   4.429   4.371 -0.2569  0.0692 -0.1358
 3419TIP3    H110193   0.157   4.483   4.434 -0.5111  0.0075  0.1124
 3419TIP3    H210194   0.173   4.409   4.303  0.5175 -1.2913  0.9657
 3420TIP3   OH210195   1.253   3.164   4.547 -0.4144  0.0366  0.1168
 3420TIP3    H110196   1.220   3.177   4.636 -2.6169  1.0648 -0.8000
 3420TIP3    H210197   1.189   3.106   4.506  0.6891 -0.5824 -0.7311
 3421TIP3   OH210198   2.307   2.256   1.395  0.0806 -0.1148  0.4551
 3421TIP3    H110199   2.399   2.282   1.403  1.0354 -3.6785  2.7483
 3421TIP3    H210200   2.260   2.316   1.453  1.1646  0.8889  0.3182
 3422TIP3   OH210201   1.610   5.352   3.263  0.0465 -0.0350  0.0485
 3422TIP3    H110202   1.573   5.297   3.332  2.1127  0.1586  1.3484
 3422TIP3    H210203   1.678   5.298   3.223  1.9157  1.4283  1.1640
 3423TIP3   OH210204   1.664   5.438   1.523  0.6235  0.2538  0.4074
 3423TIP3    H110205   1.718   5.498   1.471 -2.1079  0.7798 -1.9458
 3423TIP3    H210206   1.580   5.483   1.532 -0.0283 -1.3161  2.4356
 3424TIP3   OH210207   1.722   2.551   2.759 -0.2003  0.3580  0.0662
 3424TIP3    H110208   1.773   2.491   2.705 -0.8358  0.0541 -0.2033
 3424TIP3    H210209   1.736   2.637   2.720  1.7140  0.5904  1.1974
 3425TIP3   OH210210   7.901   2.414   1.315 -0.2387  0.1572 -0.1793
 3425TIP3    H110211   7.983   2.420   1.365 -0.3766 -0.0649  0.0716
 3425TIP3    H210212   7.892   2.500   1.275  0.0856  0.2051 -0.1553
 3426TIP3   OH210213   2.533   3.907   3.901  0.0169 -0.1538 -0.0992
 3426TIP3    H110214   2.498   3.820   3.882  0.4670  0.1115 -2.2812
 3426TIP3    H210215   2.555   3.904   3.994 -0.4645 -2.1932 -0.0184
 3427TIP3   OH210216   2.289   1.784   3.726 -0.0382  0.5954 -0.0721
 3427TIP3    H110217   2.367   1.830   3.757 -0.9665  1.3846  1.1560
 3427TIP3    H210218   2.271   1.821   3.639  0.6131  0.8294 -0.1036
 3428TIP3   OH210219   1.883   3.112   3.123  0.3139  0.0619 -0.2773
 3428TIP3    H110220   1.916   3.177   3.061  0.1590  0.2023 -0.2116
 3428TIP3    H210221   1.907   3.146   3.209  1.7920 -0.8216 -0.3108
 3429TIP3   OH210222   1.838   2.102   4.431 -0.6888 -0.5726  0.5193
 3429TIP3    H110223   1.869   2.076   4.518  0.9148  2.0915  0.8121
 3429TIP3    H210224   1.883   2.042   4.371  0.0485 -0.8946  1.3803
 3430TIP3   OH210225   0.587   2.546   3.272  0.4901  0.1365  0.7118
 3430TIP3    H110226   0.678   2.573   3.281 -0.1968  3.3979 -1.1930
 3430TIP3    H210227   0.585   2.495   3.192  0.1921  2.6636 -0.9594
 3431TIP3   OH210228   0.343   2.318   4.409 -0.3214 -0.1053  0.3183
 3431TIP3    H110229   0.397   2.318   4.330 -0.2643  0.4645  0.3561
 3431TIP3    H210230   0.269   2.262   4.387 -0.7885  0.8162 -0.4853
 3432TIP3   OH210231   1.551   3.502   0.593 -0.2402  0.1561 -0.5594
 3432TIP3    H110232   1.538   3.414   0.629 -0.4505  0.9325  1.3570
 3432TIP3    H210233   1.646   3.511   0.586 -0.2254 -0.2987 -0.9431
 3433TIP3   OH210234   1.964   3.897   3.770 -0.9093  0.1596  0.3353
 3433TIP3    H110235   1.875   3.923   3.792 -0.2603  1.6754  1.2431
 3433TIP3    H210236   2.015   3.977   3.777  0.6739 -0.8439  0.5942
 3434TIP3   OH210237   1.289   2.562   3.704 -0.2535 -0.4013  0.4574
 3434TIP3    H110238   1.243   2.506   3.766  1.2985  1.4102  3.3822
 3434TIP3    H210239   1.380   2.533   3.708  0.2840  1.2411  0.8667
 3435TIP3   OH210240   2.295   1.118   1.177  0.0190 -0.2193  0.4657
 3435TIP3    H110241   2.340   1.161   1.105 -0.1744 -1.4126 -0.3816
 3435TIP3    H210242   2.276   1.030   1.145 -0.7722 -0.5123  1.6847
 3436TIP3   OH210243   1.284   3.869   3.888  0.3736  0.0137 -0.1947
 3436TIP3    H110244   1.289   3.905   3.977 -3.0667  3.3845 -1.2145
 3436TIP3    H210245   1.216   3.802   3.893  0.1488  0.2345 -0.2919
 3437TIP3   OH210246   2.956   3.032   2.029  0.5901 -0.0189 -0.3689
 3437TIP3    H110247   2.888   3.096   2.012 -0.0226 -0.3540  0.7533
 3437TIP3    H210248   2.961   2.980   1.949 -0.7682 -0.2558 -0.3056
 3438TIP3   OH210249   2.852   3.590   2.424 -0.4474 -0.3752  0.3096
 3438TIP3    H110250   2.855   3.671   2.475  0.5197 -0.8449  1.0201
 3438TIP3    H210251   2.875   3.522   2.486 -0.7515 -1.1373 -0.4087
 3439TIP3   OH210252   1.792   5.815   2.526 -0.2202  0.3940 -0.4023
 3439TIP3    H110253   1.839   5.796   2.445 -0.3218  1.6194 -0.7616
 3439TIP3    H210254   1.738   5.738   2.542 -1.8129  1.0045 -2.6411
 3440TIP3   OH210255   0.647   5.220   5.396  0.0070  0.5977  0.1570
 3440TIP3    H110256   0.683   5.133   5.376  0.1315  0.4645  0.9618
 3440TIP3    H210257   0.660   5.270   5.315  1.8740  0.5079  0.3791
 3441TIP3   OH210258   2.223   1.082   4.391  0.5890  0.5551  0.7935
 3441TIP3    H110259   2.162   1.028   4.342  1.3192 -0.7630  1.3148
 3441TIP3    H210260   2.179   1.167   4.399 -1.0413 -0.2800  0.9129
 3442TIP3   OH210261   2.397   4.523   1.874 -0.1493 -0.3569  0.0312
 3442TIP3    H110262   2.399   4.462   1.948 -0.2353 -0.4155 -0.0148
 3442TIP3    H210263   2.395   4.468   1.797  1.1494 -0.2941 -0.0529
 3443TIP3   OH210264   2.592   3.100   3.668 -0.3667  0.3353  0.0827
 3443TIP3    H110265   2.557   3.021   3.709  0.9493 -0.8188 -0.9835
 3443TIP3    H210266   2.654   3.135   3.732  0.5836 -0.6488 -0.2812
 3444TIP3   OH210267   1.488   1.396   2.249 -0.0874 -0.4527  0.1073
 3444TIP3    H110268   1.479   1.437   2.335  0.5623 -2.1617  1.0172
 3444TIP3    H210269   1.527   1.310   2.267 -0.5685 -1.1126 -1.8275
 3445TIP3   OH210270   2.260   3.606   1.375 -0.8638  0.2364 -0.1214
 3445TIP3    H110271   2.342   3.607   1.426 -1.1275 -0.8991  0.3418
 3445TIP3    H210272   2.256   3.518   1.338 -2.9175 -0.4469  1.5889
 3446TIP3   OH210273   0.739   3.617   3.849 -0.0166  0.2013 -0.0371
 3446TIP3    H110274   0.795   3.570   3.788  1.8041 -0.6038  2.1615
 3446TIP3    H210275   0.716   3.551   3.915  0.6822  1.7737  1.8256
 3447TIP3   OH210276   3.447   3.389   3.147 -0.4418  0.7177  0.2376
 3447TIP3    H110277   3.444   3.461   3.211  2.7217  2.2391 -1.2162
 3447TIP3    H210278   3.515   3.331   3.181  1.9331  2.0103 -2.1247
 3448TIP3   OH210279   1.975   2.077   2.775 -0.1430 -0.0313 -0.2823
 3448TIP3    H110280   1.901   2.022   2.749 -1.3390  0.6401  1.6420
 3448TIP3    H210281   2.028   2.020   2.831 -1.6266  0.8402  2.0998
 3449TIP3   OH210282   0.482   5.131   5.086  0.4844  0.2096  0.0575
 3449TIP3    H110283   0.541   5.059   5.108 -0.1060 -0.0983  0.6664
 3449TIP3    H210284   0.530   5.210   5.110  0.6277 -0.0418  0.6026
 3450TIP3   OH210285   3.556   7.951   6.308 -0.0476 -0.5563 -0.1369
 3450TIP3    H110286   3.543   7.941   6.214 -0.3843  0.0385 -0.1585
 3450TIP3    H210287   3.500   8.025   6.332  1.2146  0.2885  0.2541
 3451TIP3   OH210288   1.212   4.695   5.416 -0.2498  0.7236  0.1974
 3451TIP3    H110289   1.248   4.620   5.465 -1.4742 -0.0430 -0.0623
 3451TIP3    H210290   1.136   4.722   5.467  0.1488  1.7571  0.2463
 3452TIP3   OH210291   2.510   4.990   3.038 -0.9183  0.2052 -0.6051
 3452TIP3    H110292   2.557   4.964   3.117 -1.8512  1.3136  0.3447
 3452TIP3    H210293   2.487   4.908   2.995  0.2243 -0.3905 -0.0950
 3453TIP3   OH210294   1.727   5.143   2.749  0.4740 -0.0299  0.0628
 3453TIP3    H110295   1.811   5.129   2.705  0.1545  0.6276 -0.7745
 3453TIP3    H210296   1.743   5.215   2.810  0.7537 -0.5093  0.5503
 3454TIP3   OH210297   5.579   3.627   0.788  0.2520 -0.5851 -0.0646
 3454TIP3    H110298   5.553   3.711   0.751  2.5387  0.5623  0.8085
 3454TIP3    H210299   5.650   3.597   0.731  2.2583  0.1044  1.9993
 3455TIP3   OH210300   2.669   3.593   3.102  0.7608  0.5718 -0.0348
 3455TIP3    H110301   2.588   3.614   3.055  0.1702 -2.2609 -0.4183
 3455TIP3    H210302   2.665   3.646   3.182 -2.5120 -0.9544  0.9293
 3456TIP3   OH210303   1.684   4.877   0.195 -0.4831 -0.5096  0.1732
 3456TIP3    H110304   1.705   4.786   0.174 -1.2721 -1.0567  1.6951
 3456TIP3    H210305   1.620   4.871   0.266  0.2818  1.2408  1.0356
 3457TIP3   OH210306   3.322   4.348   3.699 -0.0152 -0.3011 -0.7460
 3457TIP3    H110307   3.233   4.323   3.676 -1.4507  2.3714  1.5827
 3457TIP3    H210308   3.335   4.434   3.659  0.7214  0.2855  0.6909
 3458TIP3   OH210309   3.499   3.528   2.748  0.1466  0.1395  0.4858
 3458TIP3    H110310   3.450   3.608   2.730 -1.9421 -1.0245  0.8370
 3458TIP3    H210311   3.560   3.553   2.818 -0.3381  1.4638  0.4531
 3459TIP3   OH210312   0.946   3.633   2.332  0.6613 -0.7333 -0.1028
 3459TIP3    H110313   0.879   3.597   2.390 -0.7194  0.5042 -0.8819
 3459TIP3    H210314   1.025   3.636   2.386 -0.4169 -0.2892  1.5117
 3460TIP3   OH210315   1.304   5.151   3.600  0.4437  0.9755 -0.3033
 3460TIP3    H110316   1.335   5.234   3.635 -0.3492  0.8568  0.7002
 3460TIP3    H210317   1.335   5.085   3.663  1.1426  0.4974 -1.1322
 3461TIP3   OH210318   1.267   5.682   1.989  0.4299 -0.1547  0.1316
 3461TIP3    H110319   1.207   5.607   1.985  1.0816 -0.5791 -3.2396
 3461TIP3    H210320   1.210   5.758   1.978  0.2345 -0.3966 -0.5438
 3462TIP3   OH210321   3.325   1.002   2.491 -0.1063 -0.4343 -0.2492
 3462TIP3    H110322   3.350   0.968   2.577  0.7622  1.2835  0.2020
 3462TIP3    H210323   3.257   1.066   2.510 -1.6196 -1.7501 -1.0802
 3463TIP3   OH210324   2.667   2.071   3.400 -0.3420 -0.1806 -0.7188
 3463TIP3    H110325   2.705   1.990   3.433  0.9582  0.5828 -0.3201
 3463TIP3    H210326   2.576   2.068   3.429  0.6078  0.2016  2.5233
 3464TIP3   OH210327   1.434   3.710   2.916  0.1422  0.0992  0.2377
 3464TIP3    H110328   1.379   3.780   2.950  3.9976  3.4945 -0.0754
 3464TIP3    H210329   1.473   3.671   2.995  0.6651  0.6545  0.2571
 3465TIP3   OH210330   3.908   6.435   3.629 -0.1841 -0.4480  0.1274
 3465TIP3    H110331   3.904   6.526   3.659  0.0122 -0.5797  0.5621
 3465TIP3    H210332   3.981   6.433   3.567  0.1602 -0.4240  0.5278
 3466TIP3   OH210333   3.418   4.754   2.055 -0.0623 -0.2068  0.4099
 3466TIP3    H110334   3.393   4.843   2.029 -0.9086 -0.2589  1.0346
 3466TIP3    H210335   3.356   4.697   2.010  0.7683 -0.5183 -0.3585
 3467TIP3   OH210336   3.309   2.610   3.136  0.0579 -0.4657 -0.1626
 3467TIP3    H110337   3.260   2.563   3.069 -0.3239  0.4176 -0.4989
 3467TIP3    H210338   3.246   2.672   3.173  0.4675 -0.4509  0.5153
 3468TIP3   OH210339   3.509   3.800   3.186 -0.0858  0.1026 -0.2259
 3468TIP3    H110340   3.496   3.712   3.221 -0.7286  0.1445 -0.3509
 3468TIP3    H210341   3.600   3.820   3.206  0.3656 -1.0046 -1.1153
 3469TIP3   OH210342   1.314   5.814   3.706 -0.4536  0.0621 -0.4394
 3469TIP3    H110343   1.258   5.755   3.656  0.5023 -1.2002 -0.0421
 3469TIP3    H210344   1.403   5.792   3.679  0.1160 -0.8976  2.0327
 3470TIP3   OH210345   1.461   5.012   0.732 -0.1755 -0.0264 -0.2790
 3470TIP3    H110346   1.459   5.053   0.646  0.2950 -0.8995 -0.7209
 3470TIP3    H210347   1.553   5.016   0.758 -0.4578  0.9898  0.5544
 3471TIP3   OH210348   0.586   4.103   3.549  0.5544 -0.3175  0.5099
 3471TIP3    H110349   0.522   4.088   3.618 -0.0861 -0.7073 -0.1630
 3471TIP3    H210350   0.605   4.016   3.514  1.6823 -0.2463  0.8950
 3472TIP3   OH210351   0.865   2.850   1.355  0.1256 -0.0373 -0.3352
 3472TIP3    H110352   0.831   2.937   1.337 -1.2464 -0.4056  0.3836
 3472TIP3    H210353   0.897   2.855   1.445 -1.3355 -0.6541  0.2488
 3473TIP3   OH210354   1.107   2.689   4.408 -0.2449 -0.7985  0.2513
 3473TIP3    H110355   1.105   2.656   4.318 -1.6547 -0.2206  0.0710
 3473TIP3    H210356   1.068   2.619   4.460  0.5181 -1.1085  0.4163
 3474TIP3   OH210357   1.749   2.650   5.308  0.5916  0.3217  0.3567
 3474TIP3    H110358   1.783   2.625   5.394 -2.5939  0.0275  1.6227
 3474TIP3    H210359   1.723   2.568   5.267 -3.2742  0.7649  1.6079
 3475TIP3   OH210360   2.739   3.330   0.516 -0.3391 -0.0736 -0.1506
 3475TIP3    H110361   2.727   3.352   0.424  0.1592  0.8985  0.0134
 3475TIP3    H210362   2.660   3.281   0.540 -0.6039 -0.0641 -1.0068
 3476TIP3   OH210363   4.308   3.698   3.022  0.3481  0.0319 -0.5384
 3476TIP3    H110364   4.370   3.771   3.026  0.9288 -0.5407  1.5310
 3476TIP3    H210365   4.362   3.621   3.035 -0.2024 -0.8388 -3.1408
 3477TIP3   OH210366   3.309   3.139   3.936 -0.4677 -0.0106 -0.0495
 3477TIP3    H110367   3.228   3.095   3.963 -1.0500  1.4101  0.6375
 3477TIP3    H210368   3.361   3.144   4.016 -0.8763  1.4650  0.1553
 3478TIP3   OH210369   4.152   1.528   1.413 -0.4686 -0.6645  0.2936
 3478TIP3    H110370   4.209   1.603   1.434 -0.3441 -0.8649  0.6678
 3478TIP3    H210371   4.185   1.457   1.468 -1.1578 -0.7520  0.5956
 3479TIP3   OH210372   0.200   3.137   4.719  0.3516  0.0715 -0.5830
 3479TIP3    H110373   0.166   3.047   4.719  1.4925 -0.3616 -0.0324
 3479TIP3    H210374   0.282   3.132   4.670  0.6818  0.7146 -0.0951
 3480TIP3   OH210375   0.917   2.682   4.187 -0.1526 -0.5818  0.2151
 3480TIP3    H110376   0.889   2.606   4.137 -1.0386  0.2394 -0.5502
 3480TIP3    H210377   0.844   2.699   4.248  0.6800 -1.2449  1.4241
 3481TIP3   OH210378   2.156   2.973   3.196  0.2327 -0.4213 -0.3785
 3481TIP3    H110379   2.116   3.036   3.136 -1.3762 -1.0315  0.0316
 3481TIP3    H210380   2.124   2.999   3.283  0.6486 -0.9744 -0.0554
 3482TIP3   OH210381   3.569   2.118   1.844 -0.1157 -0.1195  0.0715
 3482TIP3    H110382   3.483   2.157   1.859 -0.3119 -0.9607  1.1295
 3482TIP3    H210383   3.563   2.081   1.756 -1.4070 -1.6603  0.7761
 3483TIP3   OH210384   8.484   3.621   2.268 -0.3113 -0.3442  0.3986
 3483TIP3    H110385   8.545   3.672   2.215  0.2438  0.4462  1.7796
 3483TIP3    H210386   8.405   3.615   2.214  0.3746  0.1256 -0.6733
 3484TIP3   OH210387   0.884   2.541   3.189  0.2820  0.0224 -0.8549
 3484TIP3    H110388   0.835   2.502   3.116  1.1016 -0.7353 -1.0050
 3484TIP3    H210389   0.875   2.635   3.176 -2.5116 -0.0739  0.0248
 3485TIP3   OH210390   2.811   4.236   3.450  0.0023  0.0327 -0.3078
 3485TIP3    H110391   2.821   4.143   3.432  2.4835  0.2584 -0.2622
 3485TIP3    H210392   2.759   4.270   3.377 -0.1458 -1.2124 -0.7813
 3486TIP3   OH210393   2.883   2.462   4.854  0.7510 -0.0182  0.1235
 3486TIP3    H110394   2.820   2.467   4.782  1.7169  0.5773 -0.6927
 3486TIP3    H210395   2.830   2.438   4.931 -0.4261  0.2572 -0.5891
 3487TIP3   OH210396   6.798   1.114   6.197 -0.6936  0.2714  0.3491
 3487TIP3    H110397   6.779   1.091   6.289  0.4653 -0.3613  0.4433
 3487TIP3    H210398   6.870   1.055   6.173 -0.3033  1.1604 -0.6458
 3488TIP3   OH210399   2.069   4.982   4.528 -0.2072 -0.4368  0.0397
 3488TIP3    H110400   2.039   5.071   4.507  0.8279  0.2138  1.2006
 3488TIP3    H210401   1.999   4.925   4.498 -0.7059  0.7527 -1.1094
 3489TIP3   OH210402   3.768   4.801   2.566  0.9194 -0.1521  0.1829
 3489TIP3    H110403   3.715   4.855   2.626  1.5754  0.6532  0.0386
 3489TIP3    H210404   3.724   4.716   2.567  1.4987 -0.4824  2.6153
 3490TIP3   OH210405   0.686   1.294   1.610  0.2233  0.5798  0.4440
 3490TIP3    H110406   0.732   1.375   1.590  0.2576  0.5780  0.5153
 3490TIP3    H210407   0.713   1.234   1.540  0.5992  0.4750  0.6781
 3491TIP3   OH210408   0.696   5.461   4.760  0.4209 -0.0912  0.4118
 3491TIP3    H110409   0.735   5.526   4.702 -1.5526 -0.2225 -1.1206
 3491TIP3    H210410   0.674   5.387   4.703  0.2877 -1.0641  1.6762
 3492TIP3   OH210411   2.724   2.325   2.087 -0.2820  0.4504 -0.1075
 3492TIP3    H110412   2.772   2.372   2.019 -2.2793  0.9398 -1.1909
 3492TIP3    H210413   2.722   2.386   2.161  1.3848  0.1390  0.2172
 3493TIP3   OH210414   2.550   6.079   4.464  0.3964  0.0388  0.0401
 3493TIP3    H110415   2.458   6.052   4.465  0.4120 -0.0249 -0.3537
 3493TIP3    H210416   2.551   6.159   4.516  0.1063  0.0769 -0.0095
 3494TIP3   OH210417   1.376   3.534   1.950  0.3702 -0.7619 -0.3106
 3494TIP3    H110418   1.464   3.504   1.927  0.3836 -1.1625  0.2546
 3494TIP3    H210419   1.370   3.622   1.913  1.6277 -0.0558  1.1606
 3495TIP3   OH210420   2.051   4.191   4.101 -0.0961  0.1579 -0.4120
 3495TIP3    H110421   2.051   4.098   4.122 -0.9672  0.2585  0.0629
 3495TIP3    H210422   2.067   4.234   4.185 -0.2360  0.4496 -0.5330
 3496TIP3   OH210423   1.535   3.963   1.694  0.1359  0.1573 -0.1562
 3496TIP3    H110424   1.531   3.984   1.787  0.1040 -2.6781  0.5251
 3496TIP3    H210425   1.627   3.978   1.669  0.5492 -0.8006  0.7750
 3497TIP3   OH210426   3.215   3.685   3.557 -0.0260 -0.2099 -0.8587
 3497TIP3    H110427   3.267   3.631   3.618 -1.2738  1.8424  2.1547
 3497TIP3    H210428   3.266   3.765   3.547 -1.3307  0.7628  0.0673
 3498TIP3   OH210429   2.332   3.751   4.797 -0.0674  0.3998  0.3419
 3498TIP3    H110430   2.282   3.822   4.837 -0.7985 -0.0375  0.2366
 3498TIP3    H210431   2.291   3.739   4.711 -0.3399 -0.5224  0.5855
 3499TIP3   OH210432   2.152   4.412   1.971  0.0042  0.6645 -0.1367
 3499TIP3    H110433   2.096   4.464   1.913 -1.8200 -1.0013  0.1027
 3499TIP3    H210434   2.171   4.471   2.044 -1.8418  1.1133  0.0186
 3500TIP3   OH210435   2.425   2.481   3.049 -0.1900 -0.1699  0.2064
 3500TIP3    H110436   2.370   2.554   3.075 -0.6281 -0.6701  0.6959
 3500TIP3    H210437   2.385   2.405   3.090  0.6520 -0.5880  0.2604
 3501TIP3   OH210438   1.147   3.664   1.637 -0.6897  0.0765  0.3553
 3501TIP3    H110439   1.150   3.725   1.563  1.1116 -0.2747  0.1113
 3501TIP3    H210440   1.057   3.669   1.668 -0.8745  1.9913 -0.3950
 3502TIP3   OH210441   4.344   2.399   5.175 -0.5511  0.0843 -0.1721
 3502TIP3    H110442   4.302   2.479   5.209  1.9766  1.2285  0.3856
 3502TIP3    H210443   4.419   2.386   5.233 -0.0147 -1.7920 -1.2695
 3503TIP3   OH210444   3.756   2.699   0.976  0.6797  0.1800 -0.7837
 3503TIP3    H110445   3.731   2.608   0.962 -1.0611  0.6804 -1.1018
 3503TIP3    H210446   3.754   2.711   1.071 -1.8384  0.5984 -0.8612
 3504TIP3   OH210447   2.196   3.454   4.118 -0.1808  0.6984  0.2020
 3504TIP3    H110448   2.236   3.540   4.110  1.8844 -0.1485  0.9783
 3504TIP3    H210449   2.217   3.410   4.036  1.1639 -0.0112  0.9129
 3505TIP3   OH210450   1.983   2.321   5.465  0.0848 -0.4173  0.8754
 3505TIP3    H110451   1.952   2.250   5.408  0.7998  0.1307 -0.2151
 3505TIP3    H210452   2.072   2.295   5.490  1.0000  0.8860 -0.9151
 3506TIP3   OH210453   1.562   0.680   2.958  0.0049 -0.1532  0.1714
 3506TIP3    H110454   1.626   0.679   2.887 -0.3805 -0.2526 -0.1775
 3506TIP3    H210455   1.485   0.723   2.920  0.1920  0.8435  0.8782
 3507TIP3   OH210456   1.440   4.288   5.062  0.1424  0.5005 -0.2053
 3507TIP3    H110457   1.408   4.213   5.012  3.4890 -0.7128 -0.6547
 3507TIP3    H210458   1.490   4.339   4.999  1.2011  0.9960  1.0128
 3508TIP3   OH210459   1.293   5.163   4.649 -0.0368 -0.1792 -0.1193
 3508TIP3    H110460   1.254   5.236   4.697 -1.4488 -1.1478  0.2141
 3508TIP3    H210461   1.387   5.179   4.654 -0.3012  1.1940  0.6230
 3509TIP3   OH210462   1.406   2.435   4.645 -0.3069 -0.2152 -0.1345
 3509TIP3    H110463   1.396   2.529   4.634 -0.1596 -0.1947 -0.0894
 3509TIP3    H210464   1.368   2.416   4.731  0.8765 -0.0060  0.4355
 3510TIP3   OH210465   2.416   4.792   3.932 -0.0835 -0.0324  0.3948
 3510TIP3    H110466   2.373   4.710   3.908  2.5581 -1.3207 -0.1406
 3510TIP3    H210467   2.493   4.765   3.982 -0.4708  2.2519  2.3355
 3511TIP3   OH210468   1.990   1.723   2.812  0.8300  0.2218 -0.0757
 3511TIP3    H110469   1.963   1.722   2.720 -0.2527 -1.1307  0.2412
 3511TIP3    H210470   2.074   1.676   2.812  0.7537  0.0841 -0.3456
 3512TIP3   OH210471   1.134   4.314   4.124  0.6347 -0.0741  0.3514
 3512TIP3    H110472   1.142   4.409   4.118  1.1486  0.0119  2.2110
 3512TIP3    H210473   1.153   4.283   4.035 -4.4326  1.8382 -1.5867
 3513TIP3   OH210474   2.544   2.244   4.141  0.1313  0.1365  0.3604
 3513TIP3    H110475   2.494   2.311   4.093  1.3523  1.9757  1.6151
 3513TIP3    H210476   2.505   2.243   4.228  0.2374 -0.6660  0.3978
 3514TIP3   OH210477   7.172   4.268   3.990  0.3267  0.0673 -0.1227
 3514TIP3    H110478   7.119   4.316   4.055 -0.8198  1.9276 -2.3549
 3514TIP3    H210479   7.256   4.316   3.989  0.3089  0.0981 -0.1060
 3515TIP3   OH210480   1.701   4.525   5.243  0.3509 -0.7485 -0.3377
 3515TIP3    H110481   1.724   4.441   5.204 -1.1125 -0.3349 -2.1958
 3515TIP3    H210482   1.629   4.558   5.188 -0.3668  0.8383  1.4829
 3516TIP3   OH210483   1.438   1.617   5.814  0.6394 -0.0402 -0.2640
 3516TIP3    H110484   1.443   1.610   5.718 -0.5279  0.9951 -0.4225
 3516TIP3    H210485   1.347   1.641   5.831  1.2930  1.6949  0.9707
 3517TIP3   OH210486   2.337   3.563   2.304 -0.4195 -0.1376 -0.2898
 3517TIP3    H110487   2.303   3.477   2.281  0.1168 -0.0310 -1.5113
 3517TIP3    H210488   2.262   3.622   2.295 -0.6318 -0.3760 -0.0732
 3518TIP3   OH210489   0.119   4.168   2.651 -0.1596  0.4598  0.5167
 3518TIP3    H110490   0.047   4.117   2.688 -1.5829  3.7237  2.4290
 3518TIP3    H210491   0.079   4.215   2.577  0.2900  1.3698  0.8530
 3519TIP3   OH210492   7.464   2.359   4.245  0.2562  0.2654  0.5223
 3519TIP3    H110493   7.413   2.294   4.294  0.3521  0.9745  1.5818
 3519TIP3    H210494   7.483   2.427   4.309  1.9975  0.3181 -0.0230
 3520TIP3   OH210495   0.677   4.899   3.868 -0.3415 -0.3330 -0.2727
 3520TIP3    H110496   0.739   4.901   3.941 -0.6507 -0.9918  0.0091
 3520TIP3    H210497   0.711   4.830   3.810 -0.2405  0.0100 -0.6235
 3521TIP3   OH210498   2.319   2.085   3.012  0.4799 -0.0639  0.4716
 3521TIP3    H110499   2.372   2.124   2.943  1.7526 -0.9916  0.9085
 3521TIP3    H210500   2.344   2.133   3.091 -0.4994  0.5612  0.4077
 3522TIP3   OH210501   4.862   2.115   2.173  0.1608 -0.5540  0.1442
 3522TIP3    H110502   4.914   2.195   2.164 -0.8727  0.2500  1.1229
 3522TIP3    H210503   4.926   2.045   2.177  1.0713  0.1665 -1.2122
 3523TIP3   OH210504   2.398   5.174   5.293 -0.4800 -0.5514  0.5090
 3523TIP3    H110505   2.448   5.168   5.375 -0.3211 -0.4624  0.4170
 3523TIP3    H210506   2.364   5.263   5.292  2.4823  0.6201 -1.2596
 3524TIP3   OH210507   3.952   4.334   2.111 -0.3991 -0.2851  0.0621
 3524TIP3    H110508   3.954   4.419   2.155  0.0137 -0.1270 -0.2666
 3524TIP3    H210509   3.894   4.281   2.165 -0.9936  0.3326  0.0426
 3525TIP3   OH210510   2.294   4.242   1.395 -0.1179  0.1368  0.2658
 3525TIP3    H110511   2.288   4.158   1.442  1.6867  0.3388  0.8747
 3525TIP3    H210512   2.372   4.234   1.340  1.8268  2.4916  2.5646
 3526TIP3   OH210513   2.008   5.050   2.748 -0.2391  0.2891  0.6425
 3526TIP3    H110514   2.061   5.128   2.758  2.2559 -0.8792 -2.7121
 3526TIP3    H210515   2.040   4.990   2.815 -0.0333  1.0063  1.1846
 3527TIP3   OH210516   3.743   5.385   1.885 -0.1146  0.3200  0.5362
 3527TIP3    H110517   3.747   5.361   1.978  0.8156  0.8598  0.6348
 3527TIP3    H210518   3.789   5.469   1.879 -1.2135  0.8960 -0.2172
 3528TIP3   OH210519   2.362   2.540   0.049 -0.3415 -0.0180 -0.3269
 3528TIP3    H110520   2.274   2.503   0.050 -0.7962  1.0194  1.9224
 3528TIP3    H210521   2.413   2.479  -0.005 -1.6670 -2.4523  1.0712
 3529TIP3   OH210522   2.941   1.843   2.790  0.2925 -0.0933  0.0032
 3529TIP3    H110523   2.853   1.863   2.759 -0.4503 -0.3740  1.8584
 3529TIP3    H210524   2.931   1.764   2.844  1.5232  0.3438  0.9105
 3530TIP3   OH210525   4.829   3.484   3.112  0.7674 -0.0188 -0.1051
 3530TIP3    H110526   4.783   3.407   3.077  1.2547 -0.5076  0.3103
 3530TIP3    H210527   4.803   3.556   3.055  0.9477 -0.6541 -1.0068
 3531TIP3   OH210528   1.301   1.853   5.445 -0.0986  0.3229 -0.0307
 3531TIP3    H110529   1.229   1.812   5.492  0.8573 -1.8498 -0.3881
 3531TIP3    H210530   1.279   1.843   5.353  0.9959 -1.0575 -0.1651
 3532TIP3   OH210531   2.618   2.006   2.497  0.1806  0.4581  0.3985
 3532TIP3    H110532   2.624   1.981   2.590 -3.3744  2.6321  1.3432
 3532TIP3    H210533   2.583   1.928   2.454 -1.1266  0.4283  1.4769
 3533TIP3   OH210534   1.090   3.643   3.834  0.2517  0.3301 -0.2579
 3533TIP3    H110535   1.071   3.657   3.742  0.9196 -0.4080 -0.5204
 3533TIP3    H210536   1.035   3.569   3.859 -0.1042  0.6807 -0.0031
 3534TIP3   OH210537   2.246   0.945   4.688  0.6038 -0.0775  0.0422
 3534TIP3    H110538   2.224   1.027   4.734  1.2974  0.3520 -0.3744
 3534TIP3    H210539   2.307   0.972   4.620 -0.8320 -0.6507 -1.4844
 3535TIP3   OH210540   4.000   3.868   2.399  0.7371  0.1914  0.1234
 3535TIP3    H110541   3.997   3.836   2.309 -1.0721 -0.3879  0.3624
 3535TIP3    H210542   4.061   3.941   2.397  0.3909  0.4449 -1.6624
 3536TIP3   OH210543   3.098   2.862   3.012  0.1644 -0.3572 -0.0856
 3536TIP3    H110544   3.056   2.888   2.929 -2.1364 -2.1963  0.4514
 3536TIP3    H210545   3.159   2.793   2.987  1.5849  1.0381 -0.6016
 3537TIP3   OH210546   1.245   4.776   1.581 -0.2462  0.2318  0.1525
 3537TIP3    H110547   1.300   4.698   1.578 -0.2192  0.3008 -1.7020
 3537TIP3    H210548   1.159   4.746   1.552 -0.2567  0.8753 -0.4949
 3538TIP3   OH210549   1.994   2.380   2.274  0.4300  0.1166  0.1406
 3538TIP3    H110550   1.927   2.447   2.287  0.7005  0.2831  0.7033
 3538TIP3    H210551   2.068   2.408   2.328  0.8693 -0.1895 -0.2841
 3539TIP3   OH210552   4.380   2.631   3.669 -0.1117 -0.6200  0.6049
 3539TIP3    H110553   4.422   2.568   3.728 -0.2179 -0.1723  1.1635
 3539TIP3    H210554   4.449   2.695   3.650  0.5676 -1.9100 -1.4703
 3540TIP3   OH210555   3.971   2.162   3.288  0.7594 -0.2980 -0.0654
 3540TIP3    H110556   3.917   2.108   3.230  0.1464  0.3020 -0.0563
 3540TIP3    H210557   4.049   2.180   3.236  0.0477  0.5584 -0.8663
 3541TIP3   OH210558   1.646   3.924   2.994  0.0488  0.2458 -0.1103
 3541TIP3    H110559   1.631   3.869   3.071  0.6293 -0.3168 -0.3858
 3541TIP3    H210560   1.728   3.890   2.958 -0.6050  0.0252 -1.3907
 3542TIP3   OH210561   1.122   3.148   4.803  0.0074 -0.3442 -0.1610
 3542TIP3    H110562   1.039   3.099   4.808  0.8733 -1.8917 -0.4927
 3542TIP3    H210563   1.111   3.220   4.865 -2.0246  0.1492 -1.0602
 3543TIP3   OH210564   2.416   2.955   6.169  0.1578  0.3943  0.4540
 3543TIP3    H110565   2.460   3.025   6.122 -0.8517  1.3434  0.9064
 3543TIP3    H210566   2.376   2.901   6.100 -0.1153  0.9647  0.1660
 3544TIP3   OH210567   0.240   0.057   6.562 -0.0495 -0.1225  0.0415
 3544TIP3    H110568   0.235   0.121   6.490 -1.4287 -0.6247 -0.3300
 3544TIP3    H210569   0.329   0.022   6.557  0.1354  0.4598 -0.8921
 3545TIP3   OH210570   0.617   2.577   5.269  0.2362  0.2871  0.4693
 3545TIP3    H110571   0.615   2.495   5.219  1.7408  0.2227  0.4797
 3545TIP3    H210572   0.691   2.625   5.231 -1.3038  2.0986 -0.2570
 3546TIP3   OH210573   1.507   5.780   1.891 -0.7464 -0.2171  0.0538
 3546TIP3    H110574   1.442   5.762   1.823  0.0470 -0.7201 -0.5992
 3546TIP3    H210575   1.570   5.839   1.849 -0.1049 -0.7474  0.2494
 3547TIP3   OH210576   0.360   2.742   3.282 -0.4389  0.4971 -0.8730
 3547TIP3    H110577   0.421   2.668   3.278 -0.4795  0.4445 -0.5204
 3547TIP3    H210578   0.413   2.818   3.258 -0.3002  0.4130 -0.8342
 3548TIP3   OH210579   0.298   4.306   4.218 -0.7642 -0.2435  0.4922
 3548TIP3    H110580   0.316   4.348   4.133 -2.0185 -0.5879  0.0493
 3548TIP3    H210581   0.366   4.238   4.225 -1.0277 -0.6318 -0.5403
 3549TIP3   OH210582   1.767   4.032   3.958 -0.0897 -0.2188  0.4962
 3549TIP3    H110583   1.778   4.122   3.927  0.3483 -0.8702 -1.2756
 3549TIP3    H210584   1.673   4.025   3.978  0.0491  0.9227  1.5847
 3550TIP3   OH210585   3.320   5.012   1.996 -0.1031  0.1868 -0.2548
 3550TIP3    H110586   3.333   5.029   1.902  1.9359 -1.2051 -0.2412
 3550TIP3    H210587   3.343   5.094   2.038  0.6565  0.2882 -0.8532
 3551TIP3   OH210588   2.776   5.378   2.054 -0.0853  0.1507  0.4498
 3551TIP3    H110589   2.757   5.285   2.062 -2.3590  0.5107 -0.4222
 3551TIP3    H210590   2.871   5.384   2.065  0.0433 -2.1998  0.9522
 3552TIP3   OH210591   2.070   1.139   5.260 -0.3947  0.2167  0.0030
 3552TIP3    H110592   2.035   1.055   5.231  0.1820  0.0859 -0.3126
 3552TIP3    H210593   1.992   1.191   5.282 -0.8870  0.5260 -2.3134
 3553TIP3   OH210594   2.058   2.265   3.023  0.5344  0.1412 -0.0164
 3553TIP3    H110595   2.065   2.235   3.113  0.0858 -0.6832 -0.2486
 3553TIP3    H210596   2.096   2.194   2.971  0.6330  0.5366 -0.4864
 3554TIP3   OH210597   0.584   4.059   4.584 -0.5160 -0.1201  0.2520
 3554TIP3    H110598   0.493   4.079   4.560 -0.2828  0.9761  0.2389
 3554TIP3    H210599   0.597   3.969   4.556 -1.0106  0.3358 -1.4843
 3555TIP3   OH210600   2.678   4.412   3.241  0.4151 -0.2375  0.1972
 3555TIP3    H110601   2.707   4.481   3.301  1.4993  0.6051 -1.2578
 3555TIP3    H210602   2.626   4.457   3.175  0.3242 -0.9472 -0.2207
 3556TIP3   OH210603   3.695   4.406   3.145 -0.0239  0.3903 -0.6079
 3556TIP3    H110604   3.776   4.401   3.094  0.2562  0.0848 -0.1306
 3556TIP3    H210605   3.707   4.344   3.216 -0.4052  0.8381 -0.1488
 3557TIP3   OH210606   1.454   4.245   3.373 -0.2477  0.3812  1.0581
 3557TIP3    H110607   1.445   4.195   3.454 -1.7748 -0.1772  0.5682
 3557TIP3    H210608   1.493   4.184   3.310 -1.1090  0.1412  0.7586
 3558TIP3   OH210609   1.703   3.905   5.294 -0.0956 -0.6431  0.4916
 3558TIP3    H110610   1.735   3.933   5.379  1.1058 -2.1305  0.5530
 3558TIP3    H210611   1.748   3.822   5.277 -0.8788 -0.7454 -1.2491
 3559TIP3   OH210612   1.524   2.387   2.353 -0.3809  0.4095 -0.4433
 3559TIP3    H110613   1.459   2.320   2.374  0.1576  0.2596  0.7878
 3559TIP3    H210614   1.602   2.361   2.402  0.2976  1.1310 -1.1268
 3560TIP3   OH210615   2.050   4.807   3.243  0.3562 -0.5429  0.4141
 3560TIP3    H110616   2.075   4.888   3.289  2.4389 -0.4860 -0.7507
 3560TIP3    H210617   1.954   4.805   3.249  0.3362  1.4980  1.3269
 3561TIP3   OH210618   3.821   3.135   3.835  0.2774 -0.2675  0.3511
 3561TIP3    H110619   3.825   3.041   3.819 -0.9543 -0.2640 -0.0968
 3561TIP3    H210620   3.875   3.173   3.766  1.2574 -0.6768  0.8920
 3562TIP3   OH210621   2.181   2.720   1.730 -0.0403 -0.2384  0.2227
 3562TIP3    H110622   2.261   2.669   1.742  0.6445  0.8670  0.4787
 3562TIP3    H210623   2.119   2.659   1.690  0.9421 -1.0978 -0.0126
 3563TIP3   OH210624   2.878   2.242   0.919 -0.0293 -0.2699 -0.2425
 3563TIP3    H110625   2.791   2.204   0.905  0.7370 -1.7081 -1.3460
 3563TIP3    H210626   2.930   2.211   0.844  2.0438 -1.3299  1.5509
 3564TIP3   OH210627   0.088   3.204   2.542 -0.6266  0.0952 -0.1657
 3564TIP3    H110628   0.117   3.186   2.453 -1.7013  2.1045 -0.9568
 3564TIP3    H210629   0.134   3.284   2.566 -2.1421  0.8698  0.1952
 3565TIP3   OH210630   4.250   1.083   1.670  0.2445 -0.3774  0.2008
 3565TIP3    H110631   4.300   1.060   1.748 -2.1237  1.3309  2.2632
 3565TIP3    H210632   4.255   1.005   1.615  2.5223 -1.3500  1.7327
 3566TIP3   OH210633   0.264   3.008   3.471  0.4315 -0.2190 -0.5477
 3566TIP3    H110634   0.200   2.965   3.528  0.8296 -0.0256  0.0538
 3566TIP3    H210635   0.347   3.003   3.520  0.3182  2.0026 -0.0667
 3567TIP3   OH210636   0.505   2.411   2.622 -0.6284 -0.5032 -0.4973
 3567TIP3    H110637   0.588   2.459   2.632 -0.8562 -0.4727  1.4685
 3567TIP3    H210638   0.439   2.480   2.615 -0.6035 -0.5314 -1.0305
 3568TIP3   OH210639   1.423   4.716   1.859 -0.6356 -0.3124  0.0002
 3568TIP3    H110640   1.354   4.721   1.792  1.1161 -2.1211 -2.0292
 3568TIP3    H210641   1.382   4.668   1.931 -2.3336  1.0132 -0.0398
 3569TIP3   OH210642   1.475   4.163   3.015  0.3185 -0.4052  0.0453
 3569TIP3    H110643   1.535   4.236   3.001  2.0564 -1.6437  0.8583
 3569TIP3    H210644   1.530   4.093   3.050 -1.6643 -1.4671  1.1341
 3570TIP3   OH210645   3.528   2.972   1.934 -0.0901  0.5567  0.9187
 3570TIP3    H110646   3.433   2.964   1.931 -0.0225 -0.1061  0.4112
 3570TIP3    H210647   3.560   2.883   1.916  0.6327  0.9872  0.0314
 3571TIP3   OH210648   0.475   6.955   2.512  0.2150 -0.9559  0.0746
 3571TIP3    H110649   0.381   6.938   2.518  0.2534 -1.0615  0.3732
 3571TIP3    H210650   0.494   7.011   2.587 -0.2178  1.8437 -1.7937
 3572TIP3   OH210651   3.971   4.436   1.840 -0.4769  0.2006 -0.3580
 3572TIP3    H110652   3.982   4.408   1.930  2.5714 -0.1211 -0.8024
 3572TIP3    H210653   3.923   4.365   1.798 -3.2748  1.0167  1.3058
 3573TIP3   OH210654   8.478   5.391   4.945 -0.2163  1.2430 -0.0620
 3573TIP3    H110655   8.423   5.450   4.995 -2.0379 -0.5763  0.1501
 3573TIP3    H210656   8.544   5.361   5.007 -1.7548 -0.0848  0.9805
 3574TIP3   OH210657   3.141   3.772   3.946 -0.1872  0.0920  0.5016
 3574TIP3    H110658   3.173   3.773   4.036  3.0273 -0.0235 -0.5794
 3574TIP3    H210659   3.117   3.681   3.931 -2.5519  0.4696  1.8158
 3575TIP3   OH210660   1.097   5.924   1.973 -0.0327 -0.2699 -0.0586
 3575TIP3    H110661   1.066   5.936   1.883  1.0964 -2.2824 -0.7474
 3575TIP3    H210662   1.018   5.928   2.027 -1.0979 -2.0323 -1.4524
 3576TIP3   OH210663   1.734   3.586   4.951 -0.4013 -0.0499 -0.2474
 3576TIP3    H110664   1.731   3.491   4.946 -1.5320 -0.0391  0.0517
 3576TIP3    H210665   1.776   3.613   4.869 -1.3173 -0.7510 -0.9681
 3577TIP3   OH210666   1.811   4.361   4.395  0.2719 -0.3658  0.2817
 3577TIP3    H110667   1.761   4.342   4.315  0.0089 -0.7267  0.5288
 3577TIP3    H210668   1.794   4.286   4.452 -2.3115  1.4375  2.0062
 3578TIP3   OH210669   3.233   4.232   0.761  0.5591 -0.6658 -0.1758
 3578TIP3    H110670   3.282   4.271   0.689  1.8445 -0.9056  0.5607
 3578TIP3    H210671   3.299   4.209   0.826 -0.4433 -1.7611  0.4773
 3579TIP3   OH210672   3.425   2.427   0.513  0.1195 -0.2252  0.4186
 3579TIP3    H110673   3.488   2.357   0.494  0.0379  0.0438 -0.9228
 3579TIP3    H210674   3.391   2.451   0.427 -1.4263  0.0053  1.0873
 3580TIP3   OH210675   5.501   3.889   1.288 -0.0321  0.0350  0.2139
 3580TIP3    H110676   5.484   3.846   1.204 -0.9281  0.8310 -0.0279
 3580TIP3    H210677   5.485   3.822   1.354 -0.1247 -0.3670 -0.2165
 3581TIP3   OH210678   3.436   4.065   2.817 -0.2493 -1.4366  0.2392
 3581TIP3    H110679   3.378   4.107   2.753  2.0588 -2.0960 -2.4175
 3581TIP3    H210680   3.438   4.125   2.891 -1.5729  0.2940 -1.0824
 3582TIP3   OH210681   1.568   3.885   1.967  0.0371  0.2280  0.5728
 3582TIP3    H110682   1.485   3.886   2.015 -0.7178 -0.6624 -0.7034
 3582TIP3    H210683   1.634   3.880   2.036 -1.0621 -1.8735  1.5364
 3583TIP3   OH210684   3.498   1.271   2.050 -0.5349  0.1638  0.5353
 3583TIP3    H110685   3.428   1.329   2.082 -1.2531 -0.2812 -0.2253
 3583TIP3    H210686   3.561   1.330   2.009 -1.1298  0.4389  0.0065
 3584TIP3   OH210687   5.509   4.190   0.777 -0.1300 -0.7383  0.4292
 3584TIP3    H110688   5.598   4.177   0.809 -1.1257 -0.4117  3.5732
 3584TIP3    H210689   5.507   4.280   0.745  0.4713 -0.4837  1.1026
 3585TIP3   OH210690   2.870   3.843   3.790  0.6726  0.3275 -0.2424
 3585TIP3    H110691   2.940   3.867   3.850  0.8411 -1.3348  0.2446
 3585TIP3    H210692   2.819   3.777   3.838 -0.2513  0.3021 -1.2352
 3586TIP3   OH210693   3.463   3.093   3.714 -0.3974 -0.4750  0.0991
 3586TIP3    H110694   3.410   3.129   3.785  0.7695 -0.8902  1.1923
 3586TIP3    H210695   3.476   3.001   3.738 -0.1963 -0.6795 -0.7783
 3587TIP3   OH210696   6.639   4.826   2.797 -0.1930 -0.0779 -0.3972
 3587TIP3    H110697   6.626   4.744   2.845  1.7176  0.5883  1.3577
 3587TIP3    H210698   6.575   4.886   2.835  0.4589  0.0869  0.4591
 3588TIP3   OH210699   3.513   3.517   4.899  0.3436  0.4160 -0.7038
 3588TIP3    H110700   3.456   3.577   4.946 -0.6538  0.7805 -2.3328
 3588TIP3    H210701   3.543   3.455   4.965 -1.0593  0.8786  0.3864
 3589TIP3   OH210702   3.804   2.708   3.369 -0.1005  0.6453  0.2855
 3589TIP3    H110703   3.742   2.763   3.320  1.7339  1.6400 -0.9967
 3589TIP3    H210704   3.872   2.769   3.396  1.7269 -0.9023 -0.7331
 3590TIP3   OH210705   1.989   4.973   2.485  0.4129  0.5802  0.1495
 3590TIP3    H110706   1.910   4.920   2.501 -0.8857  2.4041  0.0043
 3590TIP3    H210707   2.006   5.016   2.568  1.2031  0.2863  0.1445
 3591TIP3   OH210708   3.311   3.523   1.736 -0.5507 -0.1567  0.0158
 3591TIP3    H110709   3.380   3.589   1.736 -0.1025 -0.6204  0.2235
 3591TIP3    H210710   3.267   3.535   1.821 -0.1147 -0.4904  0.2904
 3592TIP3   OH210711   4.010   4.581   2.430  0.2305  0.2255 -0.0397
 3592TIP3    H110712   3.986   4.544   2.515  0.2352  0.3692  0.0252
 3592TIP3    H210713   3.945   4.546   2.369 -0.9862  1.7066  0.3771
 3593TIP3   OH210714   6.569   5.261   2.584  0.3140  0.0991 -0.1337
 3593TIP3    H110715   6.478   5.285   2.566 -0.3267 -1.0350  1.4316
 3593TIP3    H210716   6.572   5.167   2.567  0.2578 -0.5645  3.2406
 3594TIP3   OH210717   3.221   2.167   3.976 -0.1329  0.5104 -0.0764
 3594TIP3    H110718   3.222   2.142   3.883 -1.0516 -1.0724  0.3200
 3594TIP3    H210719   3.304   2.136   4.010 -0.4824 -0.3624 -0.0097
 3595TIP3   OH210720   4.949   3.679   1.165 -0.3925 -0.6662  0.0919
 3595TIP3    H110721   4.900   3.602   1.191  0.5294 -1.3462 -0.1613
 3595TIP3    H210722   5.037   3.646   1.144 -0.1536  0.3605 -0.5739
 3596TIP3   OH210723   3.642   3.662   2.955 -0.9136  0.3068 -0.0595
 3596TIP3    H110724   3.711   3.727   2.967 -1.3349  0.7565 -0.0719
 3596TIP3    H210725   3.561   3.709   2.972 -1.2608 -0.0538 -0.6924
 3597TIP3   OH210726   5.207   4.958   4.177  0.0370  0.0656 -0.2315
 3597TIP3    H110727   5.130   4.929   4.225 -0.1824 -0.0148 -0.6324
 3597TIP3    H210728   5.222   4.890   4.111 -0.2977  0.6999 -0.9734
 3598TIP3   OH210729   3.056   2.431   2.614  0.3909  0.6474  0.0475
 3598TIP3    H110730   3.069   2.372   2.539  1.6817 -0.0076  0.7727
 3598TIP3    H210731   3.013   2.377   2.680  1.0763  0.6557  0.5088
 3599TIP3   OH210732   3.004   4.248   2.806  0.4876 -0.2557  0.0215
 3599TIP3    H110733   2.951   4.327   2.811  0.5588 -0.2565  0.8561
 3599TIP3    H210734   3.058   4.250   2.885  1.4758 -0.4387 -0.6289
 3600TIP3   OH210735   3.935   4.812   0.661  0.1345  0.0311 -0.4833
 3600TIP3    H110736   4.021   4.773   0.675  0.4509  1.0996  0.6975
 3600TIP3    H210737   3.946   4.867   0.584  0.1423 -0.8846 -1.1390
 3601TIP3   OH210738   4.338   3.968   2.723  0.4575  0.3585  0.3796
 3601TIP3    H110739   4.312   4.021   2.799 -0.9635  0.7354 -0.3469
 3601TIP3    H210740   4.353   4.033   2.654 -1.4530 -0.1692 -0.5636
 3602TIP3   OH210741   3.712   4.217   2.776 -0.1890 -0.7196 -0.0759
 3602TIP3    H110742   3.630   4.175   2.749 -0.9374  1.1619 -0.8162
 3602TIP3    H210743   3.690   4.310   2.782  1.3955 -0.4329  1.6661
 3603TIP3   OH210744   3.906   3.872   2.820  0.1708 -0.5714  0.7163
 3603TIP3    H110745   3.996   3.841   2.810  0.6808  1.1926 -0.4001
 3603TIP3    H210746   3.864   3.853   2.737  0.9367  2.9852 -0.5919
 3604TIP3   OH210747   2.538   4.353   2.031  0.2708  0.1135 -0.5184
 3604TIP3    H110748   2.618   4.319   1.990  0.0566 -0.8851 -0.1330
 3604TIP3    H210749   2.525   4.297   2.107 -1.5101 -0.5923 -1.3088
 3605TIP3   OH210750   4.628   2.145   4.169 -0.3199  0.4527  0.6995
 3605TIP3    H110751   4.704   2.153   4.227 -0.2828 -0.3448  0.7633
 3605TIP3    H210752   4.553   2.145   4.228 -0.4729  2.5059  0.5688
 3606TIP3   OH210753   1.820   4.779   2.774 -0.6958 -0.3407  0.5855
 3606TIP3    H110754   1.877   4.855   2.785  0.8146 -1.3379 -0.1033
 3606TIP3    H210755   1.750   4.792   2.837 -1.3943  2.4476 -0.6836
 3607TIP3   OH210756   4.104   2.864   2.432 -0.0844  0.0869  0.3281
 3607TIP3    H110757   4.104   2.907   2.517  0.5163 -0.2052  0.4792
 3607TIP3    H210758   4.022   2.814   2.429  0.4760 -0.8957  1.2369
 3608TIP3   OH210759   2.266   4.635   3.500  0.0553  0.2230  0.4254
 3608TIP3    H110760   2.346   4.610   3.545 -0.7524 -1.8282  0.7993
 3608TIP3    H210761   2.289   4.635   3.407  0.3145 -1.0972  0.4804
 3609TIP3   OH210762   2.729   3.745   4.368 -0.6730 -0.1983  0.0494
 3609TIP3    H110763   2.749   3.833   4.336 -1.8460 -0.3486 -1.1444
 3609TIP3    H210764   2.785   3.687   4.317  1.9834  0.0239  2.6168
 3610TIP3   OH210765   2.784   4.180   2.411 -0.1293  0.3973 -0.0269
 3610TIP3    H110766   2.692   4.171   2.436 -0.2580  0.4544 -0.4707
 3610TIP3    H210767   2.831   4.184   2.494 -0.7250  2.4408  0.2528
 3611TIP3   OH210768   4.098   3.776   3.834  0.3297 -0.0477  0.2104
 3611TIP3    H110769   4.081   3.682   3.844 -0.5921  0.3345  2.4689
 3611TIP3    H210770   4.193   3.784   3.846  0.6901 -0.8756 -1.7901
 3612TIP3   OH210771   3.959   3.400   1.687 -0.2988 -0.2442  0.3679
 3612TIP3    H110772   3.999   3.429   1.605  0.1475 -2.0860 -0.0709
 3612TIP3    H210773   3.971   3.474   1.747  1.0593  0.3775 -0.6592
 3613TIP3   OH210774   2.953   2.722   3.916  0.3666 -0.2958 -0.4358
 3613TIP3    H110775   2.987   2.675   3.840 -0.4661 -3.3004  0.9636
 3613TIP3    H210776   3.003   2.688   3.990  0.0412  1.3876  0.6017
 3614TIP3   OH210777   3.206   3.607   1.997  0.3286 -0.6398 -0.0031
 3614TIP3    H110778   3.147   3.635   2.067  0.4005  0.3670 -0.3258
 3614TIP3    H210779   3.291   3.643   2.022  0.2994 -0.0475 -0.7344
 3615TIP3   OH210780   1.585   5.186   4.692 -0.3404  0.2373 -0.0774
 3615TIP3    H110781   1.595   5.244   4.616 -1.5603 -1.1534 -1.3418
 3615TIP3    H210782   1.642   5.112   4.673 -0.6008 -0.0886  0.4018
 3616TIP3   OH210783   2.301   6.833   3.668 -0.0013 -0.2711  0.2248
 3616TIP3    H110784   2.374   6.823   3.607 -0.0179 -1.3229  0.3643
 3616TIP3    H210785   2.249   6.905   3.632 -0.2354 -1.1516 -1.2364
 3617TIP3   OH210786   6.469   5.593   4.735 -0.2127  0.3687  0.2662
 3617TIP3    H110787   6.507   5.618   4.651  0.1924  1.2072  0.6825
 3617TIP3    H210788   6.398   5.656   4.749 -0.3402  0.1722  0.5043
 3618TIP3   OH210789   1.728   4.501   3.980 -0.1571  0.1363  0.1275
 3618TIP3    H110790   1.716   4.592   4.007 -1.1314 -0.1899  0.8215
 3618TIP3    H210791   1.802   4.470   4.034  0.4067  0.6114 -0.3643
 3619TIP3   OH210792   1.527   3.980   2.746 -0.5400  0.2597  0.0881
 3619TIP3    H110793   1.443   4.022   2.765 -0.4745 -0.0218  1.0234
 3619TIP3    H210794   1.571   3.974   2.830  0.7744  1.1308 -0.5162
 3620TIP3   OH210795   8.377   3.961   4.081  0.1377  0.0227  0.2494
 3620TIP3    H110796   8.342   3.948   3.993 -1.4152  1.0440  0.6887
 3620TIP3    H210797   8.431   4.040   4.074 -0.5939  0.5412  0.3632
 3621TIP3   OH210798   5.619   4.162   1.783 -0.1996 -0.3727 -0.1731
 3621TIP3    H110799   5.524   4.167   1.792 -0.1397  1.3516 -0.2415
 3621TIP3    H210800   5.653   4.179   1.871  0.0693  1.0388 -0.5320
 3622TIP3   OH210801   2.889   2.951   1.033 -0.2003 -0.2611 -0.5352
 3622TIP3    H110802   2.931   2.882   1.084 -0.4377 -1.5487 -2.0434
 3622TIP3    H210803   2.952   2.973   0.964 -0.2159  0.8929 -0.2002
 3623TIP3   OH210804   3.164   4.165   2.108  0.2438 -0.3906 -0.3486
 3623TIP3    H110805   3.254   4.165   2.140  1.0453  0.9655 -2.4289
 3623TIP3    H210806   3.167   4.116   2.026 -1.3587 -2.1874  0.6401
 3624TIP3   OH210807   2.607   2.587   2.073 -0.1413  0.0618  0.2464
 3624TIP3    H110808   2.693   2.625   2.052  1.1222 -2.0003  1.5361
 3624TIP3    H210809   2.607   2.580   2.169 -2.1463  0.8933  0.3334
 3625TIP3   OH210810   1.303   3.972   4.426  0.3172 -0.5722 -0.1970
 3625TIP3    H110811   1.289   3.978   4.331  2.8828  0.0342 -0.5752
 3625TIP3    H210812   1.335   3.883   4.440 -0.8359 -0.9260  0.2228
 3626TIP3   OH210813   3.262   3.129   2.330 -0.5262 -0.3021  0.1248
 3626TIP3    H110814   3.231   3.043   2.359 -0.9517  0.1471  0.9891
 3626TIP3    H210815   3.183   3.181   2.320 -0.2493  0.0629 -0.1827
 3627TIP3   OH210816   4.327   4.831   1.627 -0.1546  0.3492  0.1294
 3627TIP3    H110817   4.393   4.847   1.694 -0.9068 -2.6423  1.6688
 3627TIP3    H210818   4.377   4.825   1.546  1.1798  0.4989  0.9203
 3628TIP3   OH210819   5.908   3.935   1.231  0.1837  0.5470 -0.2368
 3628TIP3    H110820   5.873   4.004   1.287 -0.6780 -0.4589  0.4731
 3628TIP3    H210821   5.853   3.938   1.153  0.5016  1.0243 -0.4459
 3629TIP3   OH210822   1.572   1.873   0.257 -0.0937 -0.0450  0.0635
 3629TIP3    H110823   1.511   1.799   0.252 -0.2015  0.0229  0.3441
 3629TIP3    H210824   1.516   1.951   0.245  0.0627 -0.0211 -0.5311
 3630TIP3   OH210825   1.830   3.395   3.528  0.3673  0.2417 -0.4892
 3630TIP3    H110826   1.849   3.341   3.605 -0.1833  0.9891  0.1721
 3630TIP3    H210827   1.745   3.366   3.497  0.3601  0.2917 -0.5183
 3631TIP3   OH210828   3.708   3.556   2.192 -0.3986 -0.0692  0.3693
 3631TIP3    H110829   3.659   3.540   2.111  0.3256 -2.1602  0.3311
 3631TIP3    H210830   3.641   3.560   2.260 -0.9818  1.3712 -0.2481
 3632TIP3   OH210831   5.203   3.895   3.599  0.0538  0.2540 -0.3378
 3632TIP3    H110832   5.253   3.950   3.539  1.3015  0.1455  0.5787
 3632TIP3    H210833   5.215   3.806   3.565 -1.1159  0.4231 -1.2247
 3633TIP3   OH210834   2.552   3.559   4.421  0.0457 -0.7033  0.1172
 3633TIP3    H110835   2.469   3.597   4.450  0.3894 -0.3775  0.6748
 3633TIP3    H210836   2.611   3.634   4.414  0.9460 -1.2128  1.9293
 3634TIP3   OH210837   2.689   2.719   2.468 -0.2851  0.1052 -0.0670
 3634TIP3    H110838   2.620   2.749   2.526  0.0150 -1.2555  1.0225
 3634TIP3    H210839   2.684   2.777   2.392 -0.4486  2.1570  1.4661
 3635TIP3   OH210840   4.264   5.226   2.332  0.0535  0.2283 -0.0200
 3635TIP3    H110841   4.184   5.278   2.338 -1.1029 -1.3261 -1.4474
 3635TIP3    H210842   4.245   5.161   2.264  0.9336 -2.9401  2.6495
 3636TIP3   OH210843   2.646   3.757   3.364  0.2339 -0.0092  0.2567
 3636TIP3    H110844   2.574   3.809   3.398 -0.8731 -0.7067 -0.9603
 3636TIP3    H210845   2.700   3.819   3.315  0.3129  0.4588  0.9318
 3637TIP3   OH210846   3.303   3.886   0.956 -0.1053  0.3360 -0.0761
 3637TIP3    H110847   3.272   3.880   0.866  1.2821 -2.2519 -0.4189
 3637TIP3    H210848   3.229   3.920   1.005 -1.4529  0.0784 -1.8924
 3638TIP3   OH210849   2.829   1.491   0.213 -0.2078 -0.1485 -0.4187
 3638TIP3    H110850   2.796   1.496   0.123 -1.1880 -0.6809 -0.0925
 3638TIP3    H210851   2.888   1.565   0.220 -1.3984  0.8738 -0.9925
 3639TIP3   OH210852   3.980   3.257   2.863  0.1217  0.1909  0.0043
 3639TIP3    H110853   3.932   3.214   2.793  0.4685 -0.5794  0.2376
 3639TIP3    H210854   4.000   3.188   2.925 -1.0868  1.0685  1.3855
 3640TIP3   OH210855   2.568   3.837   0.831  0.1902  0.1257  0.0345
 3640TIP3    H110856   2.534   3.784   0.904 -0.4019 -0.1113 -0.4065
 3640TIP3    H210857   2.651   3.795   0.807 -0.2060 -0.5235 -0.2160
 3641TIP3   OH210858   5.455   2.616   1.947 -0.4139  0.3563  0.2772
 3641TIP3    H110859   5.386   2.638   1.884  1.6111  1.1733 -1.7502
 3641TIP3    H210860   5.408   2.595   2.028 -3.0155  1.0114 -0.9938
 3642TIP3   OH210861   4.081   1.001   4.175  1.0979 -0.8423  0.5688
 3642TIP3    H110862   4.013   1.060   4.143 -0.1544 -1.6696  1.6170
 3642TIP3    H210863   4.115   0.958   4.096 -0.2281 -1.0628  0.0971
 3643TIP3   OH210864   2.044   3.310   2.442  0.2741  0.1060  0.3416
 3643TIP3    H110865   1.960   3.350   2.462  0.4625  1.5513 -1.6020
 3643TIP3    H210866   2.023   3.219   2.421 -0.4911 -0.1566  2.1346
 3644TIP3   OH210867   4.102   4.673   2.880 -0.0490  1.1346 -0.0167
 3644TIP3    H110868   4.045   4.696   2.954 -1.9903 -0.8515 -0.8033
 3644TIP3    H210869   4.168   4.742   2.877 -0.3064  1.6048  3.1704
 3645TIP3   OH210870   5.255   5.380   1.378 -0.3912 -0.0144  0.0727
 3645TIP3    H110871   5.237   5.470   1.352 -0.6327 -0.2362 -0.5265
 3645TIP3    H210872   5.259   5.331   1.296 -0.5548 -0.6060  0.4142
 3646TIP3   OH210873   3.638   1.617   0.873 -0.3596  0.0110  0.0280
 3646TIP3    H110874   3.583   1.581   0.943  0.1316  0.1716  0.5039
 3646TIP3    H210875   3.727   1.596   0.900 -0.2633 -2.1020 -1.7724
 3647TIP3   OH210876   4.512   1.646   4.354 -0.4122  0.1743 -0.3194
 3647TIP3    H110877   4.481   1.686   4.273  1.1006 -0.7464 -1.3827
 3647TIP3    H210878   4.554   1.717   4.401  0.9478  0.1955 -1.5192
 3648TIP3   OH210879   1.030   4.080   2.042 -0.1530  0.3745  0.0436
 3648TIP3    H110880   0.984   4.153   2.083 -1.2033  0.2528 -0.9128
 3648TIP3    H210881   1.075   4.037   2.115 -2.0648  0.1028  1.0903
 3649TIP3   OH210882   4.064   3.464   1.443 -0.2716  0.3351 -0.0456
 3649TIP3    H110883   4.083   3.523   1.370 -0.0274  0.8865  0.4585
 3649TIP3    H210884   4.133   3.397   1.438  0.4896  1.0771  0.4309
 3650TIP3   OH210885   3.571   2.904   2.214 -0.5412  0.0685 -1.1395
 3650TIP3    H110886   3.579   2.992   2.249 -2.7694 -0.0010 -0.3931
 3650TIP3    H210887   3.545   2.916   2.123 -1.8914  0.1900 -0.7468
 3651TIP3   OH210888   2.696   1.373   0.499  0.3181  0.5603  0.1026
 3651TIP3    H110889   2.612   1.380   0.545  0.1794 -1.2616  0.1307
 3651TIP3    H210890   2.761   1.362   0.569  0.1560 -1.7786 -0.0995
 3652TIP3   OH210891   1.727   3.295   1.417 -0.0130  0.0083 -0.7321
 3652TIP3    H110892   1.746   3.206   1.387 -0.3664 -0.2655 -0.1577
 3652TIP3    H210893   1.813   3.334   1.433  0.1606 -0.0188 -1.5917
 3653TIP3   OH210894   3.315   3.727   1.343 -0.0833  0.5066 -0.0684
 3653TIP3    H110895   3.388   3.672   1.370  1.6120  2.5089 -0.5236
 3653TIP3    H210896   3.320   3.804   1.399  0.7311  2.6162 -2.9411
 3654TIP3   OH210897   5.137   3.570   3.176  0.1617  0.7917 -0.0573
 3654TIP3    H110898   5.130   3.538   3.266  2.4791 -2.7380 -1.0447
 3654TIP3    H210899   5.050   3.557   3.138  0.0308 -0.7131  0.7383
 3655TIP3   OH210900   3.820   6.084   1.386 -0.1819 -0.3581 -0.7102
 3655TIP3    H110901   3.752   6.119   1.327  0.1914 -1.6819 -1.9545
 3655TIP3    H210902   3.773   6.066   1.468 -0.9766  0.3183 -1.0070
 3656TIP3   OH210903   5.864   4.341   3.053  0.3409  0.9626  0.3883
 3656TIP3    H110904   5.783   4.357   3.102 -0.6915 -0.2782 -0.8657
 3656TIP3    H210905   5.853   4.390   2.971 -0.7113 -1.9910 -1.3260
 3657TIP3   OH210906   3.092   4.268   1.852  0.1296 -0.0454 -0.7075
 3657TIP3    H110907   3.122   4.272   1.943 -0.0905  0.9207 -0.6669
 3657TIP3    H210908   3.095   4.175   1.829  2.0294 -0.0963 -0.3321
 3658TIP3   OH210909   2.304   4.827   4.527  0.1148  0.2876  0.2147
 3658TIP3    H110910   2.375   4.880   4.490  0.4338 -0.5619 -0.4148
 3658TIP3    H210911   2.229   4.887   4.533  0.3441  0.6916 -0.9174
 3659TIP3   OH210912   3.231   3.248   3.393 -0.2065 -0.2495  0.5840
 3659TIP3    H110913   3.157   3.294   3.431 -0.6132  1.8714 -2.6239
 3659TIP3    H210914   3.192   3.183   3.335  0.4510 -1.6102  1.6210
 3660TIP3   OH210915   5.882   4.302   2.019 -0.2473 -0.0350  0.1638
 3660TIP3    H110916   5.917   4.331   2.103 -1.5024  2.7943 -0.2460
 3660TIP3    H210917   5.795   4.269   2.039 -0.7471  1.1137 -0.0783
 3661TIP3   OH210918   5.206   3.588   2.016 -0.1350 -0.0311  0.3582
 3661TIP3    H110919   5.252   3.508   2.043 -0.3802 -0.4454 -0.4315
 3661TIP3    H210920   5.200   3.580   1.921 -0.7007  0.6433  0.3401
 3662TIP3   OH210921   4.143   4.781   3.326  0.6045 -0.4668 -0.0146
 3662TIP3    H110922   4.197   4.844   3.278  1.2374 -1.0567 -0.0838
 3662TIP3    H210923   4.200   4.706   3.339 -0.4261 -1.3798 -0.7037
 3663TIP3   OH210924   5.369   2.205   1.270 -0.1040  0.7287  0.3009
 3663TIP3    H110925   5.452   2.232   1.309 -0.3178  0.3802  1.0019
 3663TIP3    H210926   5.306   2.210   1.341 -0.1922 -1.4103  0.3986
 3664TIP3   OH210927   3.649   3.616   0.558  0.1125 -0.1368 -0.5072
 3664TIP3    H110928   3.596   3.630   0.479 -0.0088  0.5375 -0.3044
 3664TIP3    H210929   3.730   3.664   0.541  0.2521 -0.3287 -0.3900
 3665TIP3   OH210930   4.061   3.667   0.643  0.5778 -0.0753 -0.2359
 3665TIP3    H110931   4.142   3.717   0.631 -0.2292  1.1349 -0.7048
 3665TIP3    H210932   4.090   3.582   0.676  2.0019  0.5231  0.0742
 3666TIP3   OH210933   2.531   5.369   3.161  0.1944 -0.0580 -0.1381
 3666TIP3    H110934   2.493   5.442   3.112 -1.1978 -0.6134  0.1208
 3666TIP3    H210935   2.554   5.407   3.246 -0.4409  0.0988 -0.0374
 3667TIP3   OH210936   3.318   2.645   3.861 -0.3304 -0.1346 -0.2484
 3667TIP3    H110937   3.238   2.665   3.812 -0.2858 -0.5137 -0.4737
 3667TIP3    H210938   3.349   2.562   3.825  0.2281  0.0641 -0.2372
 3668TIP3   OH210939   5.389   4.027   2.048 -0.0260  0.0917 -0.3498
 3668TIP3    H110940   5.337   3.951   2.072  1.0880 -0.7641 -0.6182
 3668TIP3    H210941   5.389   4.082   2.127 -0.5099 -0.3679 -0.0298
 3669TIP3   OH210942   4.478   3.687   0.327 -1.1313  0.0499 -0.2329
 3669TIP3    H110943   4.412   3.694   0.258 -1.1005  0.3950 -0.2261
 3669TIP3    H210944   4.562   3.685   0.280 -1.0949  0.5743 -0.1899
 3670TIP3   OH210945   5.274   4.074   3.256  0.4564  0.1653  0.1336
 3670TIP3    H110946   5.282   3.988   3.216  4.5005  0.4768  0.0837
 3670TIP3    H210947   5.325   4.068   3.337 -0.6496  2.0039  1.0024
 3671TIP3   OH210948   4.635   3.963   1.102  0.3906  0.1290  0.5112
 3671TIP3    H110949   4.702   3.913   1.055  1.0561  1.3012  0.1793
 3671TIP3    H210950   4.612   3.909   1.177 -0.2394 -1.5023 -0.8350
 3672TIP3   OH210951   4.393   4.559   0.441 -0.2375  0.3844  0.0746
 3672TIP3    H110952   4.330   4.622   0.476 -0.3417  0.6548 -0.5987
 3672TIP3    H210953   4.430   4.602   0.363  2.3042  1.1108  1.6176
 3673TIP3   OH210954   2.648   4.634   1.793  0.2188  0.4653 -0.5776
 3673TIP3    H110955   2.688   4.564   1.741 -1.2698 -1.5362  0.8919
 3673TIP3    H210956   2.576   4.591   1.839  0.6142  2.4987  2.0322
 3674TIP3   OH210957   2.108   1.420   0.867  0.6390 -0.5138 -0.2455
 3674TIP3    H110958   2.093   1.456   0.955  0.0612 -0.5971 -0.3057
 3674TIP3    H210959   2.196   1.384   0.870  1.2211  0.8935 -0.1683
 3675TIP3   OH210960   2.347   3.418   3.136  0.0324  0.5228 -0.1972
 3675TIP3    H110961   2.398   3.452   3.063 -0.0619 -0.2344 -0.6254
 3675TIP3    H210962   2.297   3.493   3.168 -0.7309  0.6419 -1.5897
 3676TIP3   OH210963   2.734   2.175   3.117 -0.0494  0.3315  0.3518
 3676TIP3    H110964   2.685   2.158   3.197 -0.2233 -0.6850  0.0249
 3676TIP3    H210965   2.719   2.268   3.100 -1.6557  0.0912  0.3862
 3677TIP3   OH210966   2.374   5.845   2.365 -0.5075  0.1465 -0.1330
 3677TIP3    H110967   2.372   5.891   2.281 -0.8102  0.4095  0.0154
 3677TIP3    H210968   2.380   5.752   2.342 -0.4845  0.2271 -0.4428
 3678TIP3   OH210969   2.474   2.341   1.967 -0.1074  0.0437  0.5035
 3678TIP3    H110970   2.539   2.396   2.011  0.4162  1.8316 -2.3644
 3678TIP3    H210971   2.526   2.275   1.921 -0.3580  0.8917 -1.0173
 3679TIP3   OH210972   1.661   4.359   2.968 -0.2085  0.4183 -0.2640
 3679TIP3    H110973   1.732   4.422   2.950 -0.5896  1.2706  1.1382
 3679TIP3    H210974   1.688   4.315   3.048 -2.0947  2.0175  1.2960
 3680TIP3   OH210975   4.982   4.163   3.070 -0.2150 -0.3597  0.2367
 3680TIP3    H110976   5.045   4.103   3.031 -0.2478 -0.2403 -0.0044
 3680TIP3    H210977   4.932   4.197   2.996  0.2671  0.4954  0.2972
 3681TIP3   OH210978   3.109   3.092   3.644 -0.3732 -0.1503  0.3311
 3681TIP3    H110979   3.079   3.181   3.666 -2.4883 -0.5312 -0.8605
 3681TIP3    H210980   3.198   3.088   3.677  0.3845  3.0241 -1.1416
 3682TIP3   OH210981   3.784   3.324   4.648 -0.7255  0.1660  1.0205
 3682TIP3    H110982   3.811   3.234   4.665  1.1309  0.1966 -1.4803
 3682TIP3    H210983   3.726   3.318   4.572 -1.8374  0.9206  1.7990
 3683TIP3   OH210984   2.513   3.206   0.628 -0.6402 -0.4947 -0.0371
 3683TIP3    H110985   2.473   3.285   0.663 -0.3823 -0.6999  0.7339
 3683TIP3    H210986   2.458   3.181   0.554 -1.0294  0.1032  0.0527
 3684TIP3   OH210987   2.227   3.372   4.387  0.5022  0.1067 -0.3919
 3684TIP3    H110988   2.248   3.447   4.442  1.8334 -1.1325  0.8219
 3684TIP3    H210989   2.218   3.409   4.299 -0.0783  1.8633  0.3780
 3685TIP3   OH210990   4.336   1.975   0.457 -0.0142 -0.4912 -0.8900
 3685TIP3    H110991   4.299   2.029   0.388  1.3328 -0.1780 -1.3768
 3685TIP3    H210992   4.300   2.012   0.538  0.5022  0.8169 -1.2505
 3686TIP3   OH210993   2.278   4.143   1.919  0.0641 -0.1362 -0.6575
 3686TIP3    H110994   2.232   4.227   1.922  2.3055  1.1385 -0.7601
 3686TIP3    H210995   2.297   4.122   2.010  3.4783  1.7748 -0.8666
 3687TIP3   OH210996   2.952   3.623   0.529 -0.1133 -0.0673  0.2061
 3687TIP3    H110997   3.019   3.581   0.475 -0.7171 -0.7349 -0.0267
 3687TIP3    H210998   2.950   3.714   0.497  0.2144 -0.2091 -0.2321
 3688TIP3   OH210999   4.410   2.668   2.339 -0.4613  0.5282 -0.3233
 3688TIP3    H111000   4.337   2.617   2.305 -2.1091  2.0779  0.8115
 3688TIP3    H211001   4.416   2.641   2.431 -0.0834  0.9530 -0.2253
 3689TIP3   OH211002   3.402   4.166   1.811 -0.5684  0.4966 -0.3187
 3689TIP3    H111003   3.367   4.111   1.742  0.5099  1.2108 -1.4596
 3689TIP3    H211004   3.415   4.252   1.770 -0.9493  1.2420  1.0585
 3690TIP3   OH211005   2.132   4.342   3.848 -0.2854  0.2835 -0.2386
 3690TIP3    H111006   2.096   4.305   3.928 -0.2666 -0.1874 -0.4493
 3690TIP3    H211007   2.075   4.417   3.829  0.0331  0.7346  0.5112
 3691TIP3   OH211008   4.003   2.735   2.702  0.3793  0.1348 -0.4852
 3691TIP3    H111009   4.081   2.790   2.702 -0.8671  1.9819 -0.9657
 3691TIP3    H211010   3.932   2.795   2.723 -0.6387 -1.9850  2.4294
 3692TIP3   OH211011   3.084   3.739   3.284  0.0277 -0.0454  0.1899
 3692TIP3    H111012   3.029   3.665   3.259 -2.1861  1.7106 -0.3410
 3692TIP3    H211013   3.109   3.722   3.375 -1.0747 -1.0876  0.3021
 3693TIP3   OH211014   2.550   4.077   3.434 -0.3777 -0.2880  0.0672
 3693TIP3    H111015   2.456   4.075   3.453 -0.3212 -1.3439  0.2277
 3693TIP3    H211016   2.592   4.076   3.520 -0.2062 -0.4432 -0.0175
 3694TIP3   OH211017   0.798   4.804   3.320  0.4226  0.5180  0.3436
 3694TIP3    H111018   0.827   4.719   3.285 -0.7123 -0.2125  1.1084
 3694TIP3    H211019   0.756   4.847   3.246  0.6817  0.2489  0.0386
 3695TIP3   OH211020   4.281   5.020   1.905  0.2090 -0.3163  0.1322
 3695TIP3    H111021   4.362   5.051   1.865  0.7209 -2.5981 -0.7021
 3695TIP3    H211022   4.213   5.037   1.840  0.3323 -0.0536  0.0763
 3696TIP3   OH211023   6.548   2.647   2.686 -0.4845  0.1425 -0.0210
 3696TIP3    H111024   6.580   2.601   2.763 -1.1897 -0.7353 -0.2435
 3696TIP3    H211025   6.458   2.616   2.675 -0.6140  0.7647 -0.8072
 3697TIP3   OH211026   2.761   3.410   2.930  0.2277  0.4461  0.6074
 3697TIP3    H111027   2.713   3.434   2.850  1.6912 -0.9781 -0.7436
 3697TIP3    H211028   2.722   3.464   2.998 -0.5864  2.2287 -1.2058
 3698TIP3   OH211029   2.816   4.750   2.679  0.0051  0.2142  0.3880
 3698TIP3    H111030   2.810   4.675   2.737 -1.9292 -0.4090 -0.5781
 3698TIP3    H211031   2.908   4.752   2.652 -0.0135 -2.0593  0.0945
 3699TIP3   OH211032   1.663   3.747   2.687 -0.4143  0.2418  0.1805
 3699TIP3    H111033   1.612   3.673   2.720 -0.2213 -0.0259 -0.1155
 3699TIP3    H211034   1.619   3.824   2.723 -1.9031  0.0887 -1.2587
 3700TIP3   OH211035   4.180   4.200   1.288  0.0638 -0.0441 -0.0482
 3700TIP3    H111036   4.214   4.111   1.293  1.0570  0.3807  1.2014
 3700TIP3    H211037   4.256   4.253   1.263 -0.0157  0.7189  1.2819
 3701TIP3   OH211038   3.254   3.365   1.288 -0.2064  0.4079  0.6241
 3701TIP3    H111039   3.190   3.395   1.353  0.0419  0.3566  0.8948
 3701TIP3    H211040   3.312   3.440   1.275 -0.5491  0.5781  0.0976
 3702TIP3   OH211041   2.055   2.940   2.809  0.3515 -0.9767 -0.1724
 3702TIP3    H111042   1.992   2.978   2.747  1.1053 -0.3958 -0.5813
 3702TIP3    H211043   2.089   3.015   2.858  0.2131 -1.3700  0.5262
 3703TIP3   OH211044   3.884   4.180   2.556  0.2345 -0.0496  0.1254
 3703TIP3    H111045   3.822   4.180   2.629 -0.6289  4.7513 -0.4904
 3703TIP3    H211046   3.970   4.195   2.597  0.1972 -0.6548  0.4305
 3704TIP3   OH211047   1.623   5.146   3.644 -0.0300  0.3778 -0.1452
 3704TIP3    H111048   1.587   5.144   3.555 -1.7261 -3.6613  0.5675
 3704TIP3    H211049   1.562   5.201   3.693  0.4619  1.9447 -1.2141
 3705TIP3   OH211050   2.214   3.784   2.861  0.1093 -0.4490 -0.0695
 3705TIP3    H111051   2.164   3.843   2.917  0.6646 -0.1179  0.0799
 3705TIP3    H211052   2.306   3.807   2.876  0.2873 -0.6594 -0.7765
 3706TIP3   OH211053   4.313   5.687   0.978  1.2727 -0.7019  0.4378
 3706TIP3    H111054   4.333   5.705   1.070 -0.9701 -1.6159  1.1117
 3706TIP3    H211055   4.307   5.774   0.938  0.1724 -0.2354  1.6023
 3707TIP3   OH211056   3.380   4.936   3.651  0.1729 -0.1258  0.5270
 3707TIP3    H111057   3.337   4.851   3.653 -0.5609  0.2364  0.2180
 3707TIP3    H211058   3.412   4.944   3.561 -0.6920  0.3855  0.2622
 3708TIP3   OH211059   3.433   4.694   2.700 -0.1775 -0.3707  0.0097
 3708TIP3    H111060   3.477   4.698   2.785  0.5485  0.8010 -0.4069
 3708TIP3    H211061   3.421   4.786   2.675 -2.2044 -0.6969 -0.2238
 3709TIP3   OH211062   6.457   6.514   6.401  0.1921 -0.6387  0.1479
 3709TIP3    H111063   6.427   6.594   6.356  1.8047 -1.2535 -2.1145
 3709TIP3    H211064   6.377   6.462   6.413 -0.5038  0.2342 -0.6112
 3710TIP3   OH211065   5.370   4.109   2.582  0.5635  0.6124  0.1412
 3710TIP3    H111066   5.314   4.031   2.577  0.4447  0.7190 -0.2031
 3710TIP3    H211067   5.429   4.091   2.655 -0.3568  0.7802  0.9435
 3711TIP3   OH211068   2.879   2.532   1.956  0.7804 -0.0287 -0.2369
 3711TIP3    H111069   2.876   2.627   1.943 -1.0751 -0.4311 -3.2262
 3711TIP3    H211070   2.965   2.506   1.921  0.9524  0.4567 -0.1817
 3712TIP3   OH211071   3.048   5.272   3.535 -0.1467  0.1225  0.0277
 3712TIP3    H111072   3.002   5.213   3.476  1.1860 -2.0156  1.0517
 3712TIP3    H211073   3.130   5.292   3.490 -1.5180  3.0446 -1.3055
 3713TIP3   OH211074   3.682   3.407   3.544 -1.6688  0.0055 -0.5049
 3713TIP3    H111075   3.634   3.328   3.568 -0.7379 -0.7160 -0.9520
 3713TIP3    H211076   3.679   3.409   3.448 -0.5377 -0.2434 -0.5562
 3714TIP3   OH211077   2.238   3.293   2.245  0.0663 -0.1262  0.4647
 3714TIP3    H111078   2.256   3.199   2.250 -1.0751 -0.4680 -1.4229
 3714TIP3    H211079   2.171   3.307   2.312 -1.3177 -1.0903 -0.6711
 3715TIP3   OH211080   3.147   3.177   4.899 -0.2448  0.1317  0.1111
 3715TIP3    H111081   3.133   3.084   4.917 -0.3172  0.3101  0.9621
 3715TIP3    H211082   3.157   3.181   4.803 -0.2320 -0.7495  0.0705
 3716TIP3   OH211083   2.541   4.028   0.431  0.0192 -0.4367  0.6589
 3716TIP3    H111084   2.513   4.067   0.348 -0.0887 -2.1789 -0.1511
 3716TIP3    H211085   2.631   4.058   0.443  0.2145 -0.5995 -0.3682
 3717TIP3   OH211086   3.741   3.767   3.660 -0.2774  1.0166 -0.2716
 3717TIP3    H111087   3.722   3.797   3.749 -0.8469 -1.4774  0.5032
 3717TIP3    H211088   3.836   3.754   3.658 -0.3385  0.4756  0.1867
 3718TIP3   OH211089   6.396   2.242   1.742  0.0457  0.1952  0.2341
 3718TIP3    H111090   6.305   2.228   1.770  0.2746  1.1963  1.5133
 3718TIP3    H211091   6.429   2.154   1.725 -1.1916 -0.1806 -0.3487
 3719TIP3   OH211092   4.071   3.133   2.334  0.0317 -0.4661 -0.1540
 3719TIP3    H111093   4.076   3.039   2.347  1.9039 -0.5411 -1.2815
 3719TIP3    H211094   4.125   3.171   2.403  0.6159 -0.3016 -0.6991
 3720TIP3   OH211095   3.523   2.073   3.538 -0.0073  0.7331 -0.7610
 3720TIP3    H111096   3.606   2.119   3.528 -0.1066  0.5426 -2.6574
 3720TIP3    H211097   3.528   2.001   3.475 -0.1361 -1.4845  1.6712
 3721TIP3   OH211098   3.271   2.950   4.228  0.0213  0.3680  0.2036
 3721TIP3    H111099   3.178   2.926   4.229  0.2183 -0.3849  0.2219
 3721TIP3    H211100   3.316   2.871   4.200  0.5935  0.9502 -0.5476
 3722TIP3   OH211101   6.146   2.931   4.371  0.5361 -0.4008  0.2980
 3722TIP3    H111102   6.106   3.018   4.373  0.1847 -0.5808  1.1981
 3722TIP3    H211103   6.238   2.946   4.393  0.3224 -0.3375  1.1676
 3723TIP3   OH211104   4.167   3.747   2.747  0.7134  0.1575  0.5227
 3723TIP3    H111105   4.219   3.822   2.719  0.7476 -0.0160  0.1083
 3723TIP3    H211106   4.195   3.729   2.837 -1.1236  2.2322  1.5633
 3724TIP3   OH211107   2.644   1.951   4.166 -0.1572 -0.2360 -0.4460
 3724TIP3    H111108   2.603   2.035   4.185  2.2098  0.6580  0.9345
 3724TIP3    H211109   2.726   1.973   4.122  0.4709 -1.8304 -0.1263
 3725TIP3   OH211110   3.488   4.260   3.043 -0.2559  0.2152  0.1498
 3725TIP3    H111111   3.543   4.327   3.085 -1.1689  0.9252  0.2428
 3725TIP3    H211112   3.413   4.309   3.009 -1.7852 -0.9716  1.6876
 3726TIP3   OH211113   2.811   3.642   3.972 -0.6148 -0.3179 -0.3313
 3726TIP3    H111114   2.830   3.635   4.066 -2.8449  1.8312  0.3198
 3726TIP3    H211115   2.772   3.557   3.950  1.0517 -1.3044  0.3579
 3727TIP3   OH211116   2.669   2.809   1.343  0.0748 -0.0380 -0.6048
 3727TIP3    H111117   2.603   2.875   1.323  0.5760  0.8373  0.5886
 3727TIP3    H211118   2.734   2.855   1.395  0.4676 -1.4567  0.1795
 3728TIP3   OH211119   3.444   2.793   4.793  0.2095 -0.0242 -0.2754
 3728TIP3    H111120   3.444   2.700   4.773  0.4657  0.1848 -1.2636
 3728TIP3    H211121   3.423   2.836   4.710  0.8966  0.8322 -0.0174
 3729TIP3   OH211122   4.215   4.053   3.240  0.7401 -0.2834 -0.1236
 3729TIP3    H111123   4.223   4.105   3.320  0.6463 -0.9619  0.3263
 3729TIP3    H211124   4.297   4.004   3.235 -0.2796 -2.1366  0.8956
 3730TIP3   OH211125   3.463   3.069   2.734  0.5458 -0.6833 -0.0755
 3730TIP3    H111126   3.490   3.133   2.799 -0.9889 -0.8233  0.7361
 3730TIP3    H211127   3.373   3.046   2.760 -0.1411 -0.6278 -2.3237
 3731TIP3   OH211128   5.914   1.907   5.607  0.3533 -0.0466 -0.0835
 3731TIP3    H111129   5.993   1.854   5.594  0.0911 -0.4105 -0.2252
 3731TIP3    H211130   5.912   1.967   5.533 -1.0536 -2.0020 -1.7058
 3732TIP3   OH211131   3.794   5.014   2.753  0.0003  0.1809 -0.2492
 3732TIP3    H111132   3.839   5.031   2.670  0.4038 -0.6626 -0.2098
 3732TIP3    H211133   3.865   4.994   2.814 -0.3616 -0.1359  0.0669
 3733TIP3   OH211134   2.020   4.595   1.820  0.1211  0.0450 -0.6433
 3733TIP3    H111135   2.055   4.652   1.751 -0.7328  0.7803 -0.4801
 3733TIP3    H211136   1.925   4.597   1.807  0.0538 -1.0862 -0.4256
 3734TIP3   OH211137   4.815   7.418   6.859  0.1679  0.2138  0.0750
 3734TIP3    H111138   4.739   7.365   6.885  0.7602 -0.5145  0.3538
 3734TIP3    H211139   4.885   7.354   6.846  0.6323  0.8431 -0.5655
 3735TIP3   OH211140   1.763   4.187   3.549  0.7207  0.3656  0.2517
 3735TIP3    H111141   1.809   4.114   3.508  0.0989  0.0739  0.0772
 3735TIP3    H211142   1.673   4.157   3.559  0.2845  1.3828 -0.5163
 3736TIP3   OH211143   2.442   5.009   2.187  0.6856  0.2397  0.1113
 3736TIP3    H111144   2.472   4.924   2.218 -1.1906 -0.7924 -0.8088
 3736TIP3    H211145   2.360   5.024   2.234 -0.9105 -0.1985 -2.4058
 3737TIP3   OH211146   4.893   4.873   3.021 -0.2441 -0.2378  0.1775
 3737TIP3    H111147   4.846   4.801   3.063  0.8746 -0.3932  1.2020
 3737TIP3    H211148   4.825   4.937   2.999 -1.0922 -1.0634  0.3868
 3738TIP3   OH211149   3.093   4.774   2.612 -0.2509  0.4367 -0.7817
 3738TIP3    H111150   3.074   4.868   2.603 -0.9691  0.3430 -0.2612
 3738TIP3    H211151   3.100   4.742   2.522 -0.0641  0.9763 -0.9604
 3739TIP3   OH211152   3.618   5.335   1.629 -0.5355  0.2835  0.0105
 3739TIP3    H111153   3.631   5.251   1.586 -0.2979  1.2176 -1.8306
 3739TIP3    H211154   3.692   5.345   1.688  0.8955  0.3675 -1.7474
 3740TIP3   OH211155   5.006   2.371   1.209  0.3246  0.3227 -0.0181
 3740TIP3    H111156   5.023   2.278   1.195  0.1222  0.2092  0.4940
 3740TIP3    H211157   5.068   2.416   1.152  1.0059 -0.1101  0.3846
 3741TIP3   OH211158   5.642   4.461   3.167  0.4280 -0.2119 -0.0567
 3741TIP3    H111159   5.566   4.513   3.138  0.0294 -1.1060 -0.6356
 3741TIP3    H211160   5.689   4.520   3.226  0.7606  1.3337 -1.8022
 3742TIP3   OH211161   2.253   3.716   3.248  0.1507 -0.7640 -0.5090
 3742TIP3    H111162   2.285   3.678   3.330  2.1541 -0.2922 -1.0598
 3742TIP3    H211163   2.317   3.783   3.225 -0.9373 -0.1779 -1.9331
 3743TIP3   OH211164   5.596   4.657   0.433  0.3803  0.5418  0.1474
 3743TIP3    H111165   5.583   4.745   0.399  1.2198  0.4888 -0.3115
 3743TIP3    H211166   5.672   4.664   0.490 -0.8021  0.5523  1.7595
 3744TIP3   OH211167   5.377   5.756   0.554 -0.1323 -0.3951 -0.2582
 3744TIP3    H111168   5.405   5.701   0.627  0.5243  1.2736  0.7702
 3744TIP3    H211169   5.281   5.752   0.557 -0.1077 -2.3617 -0.9106
 3745TIP3   OH211170   5.167   4.956   1.969  0.3309  0.4193 -0.1396
 3745TIP3    H111171   5.146   4.870   2.005  0.4168  0.1225 -0.7927
 3745TIP3    H211172   5.226   4.995   2.033  1.6638 -0.6854 -0.6574
 3746TIP3   OH211173   2.099   2.916   5.077 -0.3293 -0.5888  0.9462
 3746TIP3    H111174   2.147   2.859   5.137  0.2846  0.8428  1.8246
 3746TIP3    H211175   2.022   2.864   5.052 -0.3181 -1.3987  2.5504
 3747TIP3   OH211176   4.794   4.001   3.246  0.1463 -0.0829  0.2119
 3747TIP3    H111177   4.884   4.018   3.275  0.2645  1.5374 -0.9960
 3747TIP3    H211178   4.762   3.933   3.304  2.0279 -0.3834  0.9247
 3748TIP3   OH211179   6.033   3.226   1.805  0.0892  0.3866  0.0906
 3748TIP3    H111180   6.060   3.148   1.854 -1.1020  0.1677  0.4264
 3748TIP3    H211181   6.034   3.296   1.870 -1.7538  0.0426  0.5075
 3749TIP3   OH211182   2.217   2.041   0.516  0.0634  0.2077 -0.2585
 3749TIP3    H111183   2.275   2.027   0.442  0.1455 -0.2329 -0.1093
 3749TIP3    H211184   2.130   2.022   0.482  0.0412  0.5334 -0.3877
 3750TIP3   OH211185   4.826   4.847   2.133 -0.0373  0.2324  0.0917
 3750TIP3    H111186   4.836   4.902   2.210  0.4340  0.5739 -0.2075
 3750TIP3    H211187   4.841   4.907   2.059  2.8571 -0.7890 -0.1901
 3751TIP3   OH211188   4.527   3.536   1.666 -0.4049  0.5935  0.6050
 3751TIP3    H111189   4.598   3.600   1.667  0.4554 -0.3220 -0.6859
 3751TIP3    H211190   4.553   3.472   1.600 -2.3218  0.1038  0.3060
 3752TIP3   OH211191   2.248   3.314   1.696  0.1798  0.3902  0.0090
 3752TIP3    H111192   2.192   3.390   1.713 -1.5904 -1.1845  1.5060
 3752TIP3    H211193   2.291   3.298   1.780  2.3858  1.1506 -0.9407
 3753TIP3   OH211194   4.009   3.062   3.051 -0.2634 -0.6834  0.3615
 3753TIP3    H111195   3.932   3.055   3.107  0.8511 -0.7093  1.9043
 3753TIP3    H211196   4.083   3.045   3.109  1.1147  2.2970 -0.4248
 3754TIP3   OH211197   4.796   1.412   3.636 -0.0460  0.1133  0.0608
 3754TIP3    H111198   4.843   1.487   3.601  0.3372  0.2069  0.7776
 3754TIP3    H211199   4.812   1.414   3.730  0.6863 -1.3664 -0.0114
 3755TIP3   OH211200   2.406   2.037   3.901  0.2417 -0.5363 -0.2347
 3755TIP3    H111201   2.466   2.072   3.835 -0.6902  0.5626 -0.5217
 3755TIP3    H211202   2.435   2.076   3.983  0.2056 -0.3548 -0.3072
 3756TIP3   OH211203   1.935   2.433   4.060 -0.0589 -0.5199 -0.0380
 3756TIP3    H111204   1.976   2.363   4.110  1.6166  0.7200  0.3487
 3756TIP3    H211205   1.842   2.409   4.057  0.3506 -2.2875  0.8270
 3757TIP3   OH211206   1.234   3.928   4.157 -0.0650  0.2598 -0.1899
 3757TIP3    H111207   1.154   3.937   4.105  1.3330 -0.4395 -2.5411
 3757TIP3    H211208   1.221   3.847   4.206 -1.4454  0.9768  0.6816
 3758TIP3   OH211209   2.626   4.856   1.648  0.5574 -0.2319  0.3712
 3758TIP3    H111210   2.619   4.772   1.692  0.8979 -0.8978 -0.8123
 3758TIP3    H211211   2.660   4.916   1.714  0.2052 -0.9952  1.2500
 3759TIP3   OH211212   3.018   2.923   0.652 -0.6675  0.1666  0.0148
 3759TIP3    H111213   3.021   3.019   0.651  0.5643  0.1226 -1.4766
 3759TIP3    H211214   2.927   2.902   0.630 -0.3462  0.9777 -2.1857
 3760TIP3   OH211215   1.675   2.271   1.746  0.0791  0.5284 -0.4729
 3760TIP3    H111216   1.600   2.214   1.728  1.4999 -2.1734  1.6612
 3760TIP3    H211217   1.645   2.330   1.815 -0.3159 -0.0342 -0.1591
 3761TIP3   OH211218   3.665   3.923   3.437 -0.1981 -0.3914 -0.1740
 3761TIP3    H111219   3.686   3.858   3.504 -0.5221 -1.0823 -0.7412
 3761TIP3    H211220   3.707   3.890   3.357 -1.1856 -0.4190 -0.6901
 3762TIP3   OH211221   3.268   1.647   1.923  0.7734  0.1967  0.5862
 3762TIP3    H111222   3.349   1.598   1.909  0.1458 -0.5972 -0.3536
 3762TIP3    H211223   3.284   1.732   1.882  0.9473 -0.1399 -0.0450
 3763TIP3   OH211224   2.440   3.969   3.168  0.5029  0.0265 -0.1510
 3763TIP3    H111225   2.394   4.031   3.224  2.5619  0.5231  0.9904
 3763TIP3    H211226   2.521   4.013   3.144  0.0006 -0.4545 -2.9782
 3764TIP3   OH211227   3.888   4.890   3.343  0.5349 -0.1036  0.2942
 3764TIP3    H111228   3.857   4.829   3.411 -0.0348  0.3952  0.4864
 3764TIP3    H211229   3.983   4.880   3.343  0.2664 -3.3585 -1.8651
 3765TIP3   OH211230   2.070   4.254   2.185  0.3050  0.4766  0.1498
 3765TIP3    H111231   2.073   4.311   2.108 -1.7272  0.6709  0.1862
 3765TIP3    H211232   2.156   4.212   2.187  0.7780  1.3111 -1.5705
 3766TIP3   OH211233   1.404   0.020   6.889  0.2805  0.0221  0.3964
 3766TIP3    H111234   1.496   0.018   6.916  0.0819 -1.7367  1.0449
 3766TIP3    H211235   1.357   0.055   6.966  0.4093  0.9479  0.0551
 3767TIP3   OH211236   4.337   3.080   2.961 -0.4004  0.1154 -0.3761
 3767TIP3    H111237   4.344   3.138   2.884 -0.6627  1.0475  0.2872
 3767TIP3    H211238   4.314   3.139   3.033  0.5210 -0.6518  0.5591
 3768TIP3   OH211239   2.388   5.296   1.843  0.8367 -0.1535  0.1170
 3768TIP3    H111240   2.373   5.332   1.756 -1.6601  1.6997  1.2524
 3768TIP3    H211241   2.458   5.350   1.880  0.9306 -0.0447 -0.2234
 3769TIP3   OH211242   2.315   4.144   2.217 -0.3992 -0.1211  0.2338
 3769TIP3    H111243   2.319   4.050   2.199  2.6676  0.0023 -0.0957
 3769TIP3    H211244   2.301   4.150   2.311 -0.8764 -0.9210  0.2138
 3770TIP3   OH211245   0.135   5.019   3.195  0.3872  0.0362  0.2061
 3770TIP3    H111246   0.089   5.058   3.120 -0.9163  0.2930  1.1216
 3770TIP3    H211247   0.211   5.076   3.208  0.4026  0.2319 -0.6529
 3771TIP3   OH211248   2.987   3.481   3.186  0.5544  0.1878  0.1985
 3771TIP3    H111249   3.043   3.418   3.140 -0.5857 -0.5610 -0.1755
 3771TIP3    H211250   2.932   3.519   3.118 -0.0621  0.2260  0.7150
 3772TIP3   OH211251   6.607   2.821   3.000  0.2186  0.4934  0.4422
 3772TIP3    H111252   6.637   2.886   3.063 -0.9089  0.4899  0.9773
 3772TIP3    H211253   6.688   2.779   2.970  0.9754  2.2514 -0.0446
 3773TIP3   OH211254   2.847   4.885   3.171 -0.6052  0.4850  0.3064
 3773TIP3    H111255   2.910   4.936   3.222  0.7367 -0.4234 -0.3814
 3773TIP3    H211256   2.870   4.903   3.080  1.1452 -2.7007  0.0103
 3774TIP3   OH211257   1.772   4.825   2.496  0.0240 -0.0968 -0.4875
 3774TIP3    H111258   1.762   4.777   2.579 -1.4234  1.6992  0.4130
 3774TIP3    H211259   1.683   4.833   2.462  0.3440  1.1596 -1.0574
 3775TIP3   OH211260   1.652   4.643   1.530  0.3930  0.4462  0.0602
 3775TIP3    H111261   1.730   4.595   1.502  0.0787 -0.1771  0.2547
 3775TIP3    H211262   1.656   4.725   1.481  1.7014  0.8467  0.8236
 3776TIP3   OH211263   6.830   7.062   3.339  0.5918  0.6195 -0.3286
 3776TIP3    H111264   6.806   7.038   3.429 -0.9796  1.2869 -0.5467
 3776TIP3    H211265   6.900   7.126   3.349  2.1945 -1.2075  0.3432
 3777TIP3   OH211266   4.888   3.859   2.118 -0.0529 -0.2076 -0.0241
 3777TIP3    H111267   4.910   3.834   2.029 -0.5927  0.1834 -0.2723
 3777TIP3    H211268   4.940   3.801   2.173 -0.4947 -1.1661 -0.5932
 3778TIP3   OH211269   4.686   3.675   2.969 -0.2667  0.5506  0.6119
 3778TIP3    H111270   4.739   3.753   2.986  1.6015 -0.2004 -1.5361
 3778TIP3    H211271   4.627   3.702   2.897 -1.1591  0.6344  1.3609
 3779TIP3   OH211272   4.083   3.037   1.646 -0.1729  0.2495 -0.4189
 3779TIP3    H111273   4.030   3.103   1.691  1.3418  3.6944 -3.4930
 3779TIP3    H211274   4.158   3.022   1.704 -0.5846  1.1349  0.3393
 3780TIP3   OH211275   5.683   3.360   1.801  0.1676 -0.1041  0.6134
 3780TIP3    H111276   5.641   3.432   1.847  1.4141 -0.8804  3.0776
 3780TIP3    H211277   5.775   3.385   1.797  0.1382 -0.2149 -1.2054
 3781TIP3   OH211278   5.308   3.161   2.839 -0.4600 -0.4300  0.0561
 3781TIP3    H111279   5.380   3.219   2.864  1.4387 -1.4502 -2.7665
 3781TIP3    H211280   5.235   3.189   2.894  1.8194  1.2100  2.4044
 3782TIP3   OH211281   6.023   6.568   0.730  0.0552 -0.2290  0.1131
 3782TIP3    H111282   6.084   6.574   0.803  1.2453  0.5393 -0.9224
 3782TIP3    H211283   5.982   6.482   0.740  2.3554 -1.3811  0.0126
 3783TIP3   OH211284   3.588   2.212   0.372  0.1106  0.1623  0.1036
 3783TIP3    H111285   3.671   2.227   0.326  0.3694  0.6462  0.7085
 3783TIP3    H211286   3.583   2.117   0.384  0.3467  0.0928 -0.3615
 3784TIP3   OH211287   2.259   3.742   4.080 -0.5815  0.5336 -0.5839
 3784TIP3    H111288   2.307   3.726   3.999  1.9929  1.6767  0.6509
 3784TIP3    H211289   2.291   3.827   4.111 -0.7369 -0.3524  2.1381
 3785TIP3   OH211290   4.860   2.759   1.862  0.3214 -0.5187 -0.4136
 3785TIP3    H111291   4.787   2.804   1.906 -0.0146 -0.0800 -1.3916
 3785TIP3    H211292   4.817   2.697   1.803  0.6800  0.6734 -1.9891
 3786TIP3   OH211293   5.603   7.659   6.759  0.1674  0.4432  0.0970
 3786TIP3    H111294   5.646   7.716   6.695  1.8841 -1.0400 -0.1106
 3786TIP3    H211295   5.628   7.570   6.733 -0.9310 -0.3084  1.5241
 3787TIP3   OH211296   3.393   1.134   0.645  0.1137  0.2764 -0.1924
 3787TIP3    H111297   3.434   1.204   0.595  0.4915  0.6311  0.6109
 3787TIP3    H211298   3.304   1.164   0.661  0.9032  1.5467  2.0038
 3788TIP3   OH211299   3.791   4.191   2.298 -0.4173  0.0257 -0.6725
 3788TIP3    H111300   3.763   4.278   2.329 -0.3645  0.1137 -0.8663
 3788TIP3    H211301   3.814   4.143   2.377 -0.0578  0.3270 -0.5936
 3789TIP3   OH211302   3.920   2.055   1.527 -0.2757  0.3288  0.5429
 3789TIP3    H111303   3.869   1.974   1.524 -0.5914  0.5217  0.6193
 3789TIP3    H211304   3.859   2.123   1.497 -0.6276  0.8427  2.3420
 3790TIP3   OH211305   3.975   2.923   3.471  0.0192  0.0932  0.0355
 3790TIP3    H111306   3.960   3.006   3.516 -0.7826  0.4841 -0.9374
 3790TIP3    H211307   4.048   2.883   3.519 -2.2448 -0.5555  3.1157
 3791TIP3   OH211308   1.398   5.689   1.229 -0.1371  1.0289 -0.1163
 3791TIP3    H111309   1.440   5.747   1.166  1.0646  0.5265  0.2177
 3791TIP3    H211310   1.363   5.617   1.177  0.9581  0.5549 -0.2020
 3792TIP3   OH211311   3.683   2.907   3.176  0.0524 -0.2678 -0.4454
 3792TIP3    H111312   3.654   2.859   3.099 -0.1109 -1.2908  0.2359
 3792TIP3    H211313   3.602   2.939   3.216  0.2008  1.2003 -1.2750
 3793TIP3   OH211314   4.672   4.279   2.591  0.2089 -0.0713 -0.4876
 3793TIP3    H111315   4.698   4.334   2.518  2.8221  0.3968  0.7443
 3793TIP3    H211316   4.602   4.329   2.635  0.8112  1.1048 -0.8439
 3794TIP3   OH211317   7.087   3.817   1.097  0.1180 -0.1214 -0.4602
 3794TIP3    H111318   7.066   3.785   1.010 -0.5767  1.0947 -0.7550
 3794TIP3    H211319   7.002   3.841   1.135  0.5075  0.2898  0.1733
 3795TIP3   OH211320   5.173   6.115   3.084  0.2590 -0.6210  0.0694
 3795TIP3    H111321   5.121   6.130   3.005 -0.3695 -1.2344  0.3572
 3795TIP3    H211322   5.156   6.023   3.106 -0.7991 -0.0257  1.7912
 3796TIP3   OH211323   3.606   4.409   2.001 -0.3435  0.5699 -0.2141
 3796TIP3    H111324   3.580   4.436   1.913  0.4191  0.6632 -0.4138
 3796TIP3    H211325   3.652   4.484   2.036 -0.2708  0.3737  0.1064
 3797TIP3   OH211326   7.212   4.409   0.797 -0.2457 -0.4947 -0.3707
 3797TIP3    H111327   7.229   4.403   0.703  1.0247 -0.8926 -0.1319
 3797TIP3    H211328   7.299   4.420   0.836 -0.7962  0.0233  0.7308
 3798TIP3   OH211329   3.889   4.197   1.713 -0.1651  0.2917 -0.3436
 3798TIP3    H111330   3.939   4.155   1.644  0.3091  1.2304 -0.5759
 3798TIP3    H211331   3.806   4.150   1.715 -0.0236  0.0104 -1.2793
 3799TIP3   OH211332   6.043   5.971   1.513  0.2300 -0.5567  0.2467
 3799TIP3    H111333   6.009   6.021   1.587  1.5102 -0.4402  0.7687
 3799TIP3    H211334   6.094   5.901   1.553  1.3879 -0.1623 -0.5379
 3800TIP3   OH211335   5.921   5.283   1.814  0.1428  0.2524 -0.0410
 3800TIP3    H111336   5.857   5.214   1.834 -1.2025  1.8323  1.2779
 3800TIP3    H211337   5.902   5.307   1.723 -0.3955 -0.0759 -0.0202
 3801TIP3   OH211338   7.056   4.009   1.329  0.0603  0.1485 -0.0973
 3801TIP3    H111339   6.965   4.034   1.341  0.5691  1.8821  0.3257
 3801TIP3    H211340   7.065   3.928   1.378 -1.6859 -1.0189 -1.6495
 3802TIP3   OH211341   5.975   5.796   3.410  0.0720  0.6966 -0.4364
 3802TIP3    H111342   6.017   5.710   3.415  0.4542  0.8353 -1.1328
 3802TIP3    H211343   6.031   5.853   3.462  0.1657  0.6514 -0.4857
 3803TIP3   OH211344   7.151   5.152   2.628  0.2478  0.2526  0.5275
 3803TIP3    H111345   7.130   5.191   2.712 -0.6027  1.3598 -0.1758
 3803TIP3    H211346   7.098   5.201   2.565  3.0574  1.4300 -1.0299
 3804TIP3   OH211347   5.446   3.313   2.576 -0.1572  0.0365  0.2819
 3804TIP3    H111348   5.447   3.298   2.670  1.5654 -1.0211  0.1273
 3804TIP3    H211349   5.355   3.300   2.549 -0.0561 -2.9992  1.2867
 3805TIP3   OH211350   4.303   4.742   2.313  0.1903 -0.4354 -0.0487
 3805TIP3    H111351   4.245   4.760   2.239 -1.1303 -1.8653  0.5999
 3805TIP3    H211352   4.314   4.826   2.356 -2.5201 -0.3545  0.5928
 3806TIP3   OH211353   8.110   5.932   6.761 -0.2431 -0.2151 -0.3134
 3806TIP3    H111354   8.099   5.890   6.675  1.5092  0.1108 -0.7055
 3806TIP3    H211355   8.020   5.944   6.792 -0.8911 -0.8620 -1.8412
 3807TIP3   OH211356   4.648   3.419   0.334 -0.7348  0.4976 -0.6075
 3807TIP3    H111357   4.557   3.414   0.361 -0.8201 -1.0654 -1.1479
 3807TIP3    H211358   4.692   3.466   0.405 -1.2046 -2.3217  1.6208
 3808TIP3   OH211359   6.632   4.866   1.381 -0.1674 -0.1460  0.3227
 3808TIP3    H111360   6.658   4.941   1.434  0.3186 -0.8339  1.0572
 3808TIP3    H211361   6.695   4.864   1.309 -0.4367  0.3911  0.0601
 3809TIP3   OH211362   7.887   3.800   3.351 -0.0312 -0.0569 -0.1374
 3809TIP3    H111363   7.798   3.775   3.375  0.9112 -1.5785  1.9372
 3809TIP3    H211364   7.909   3.871   3.412  0.5024 -0.3147 -0.0274
 3810TIP3   OH211365   7.195   2.748   3.794  0.4032 -0.5567 -0.3060
 3810TIP3    H111366   7.099   2.741   3.793  0.3196  0.1671  1.2308
 3810TIP3    H211367   7.214   2.831   3.750  0.3357 -0.7654 -0.7307
 3811TIP3   OH211368   3.679   5.522   1.439 -0.5869 -0.3912  0.3216
 3811TIP3    H111369   3.741   5.465   1.392 -1.7592 -0.9104 -0.6203
 3811TIP3    H211370   3.634   5.463   1.499 -1.3022 -0.3368 -0.1513
 3812TIP3   OH211371   4.082   4.907   1.721  0.0324 -0.3561 -1.0893
 3812TIP3    H111372   4.030   4.826   1.726  0.2694 -0.4195  0.9142
 3812TIP3    H211373   4.158   4.883   1.667  0.4013 -1.6797 -0.0272
 3813TIP3   OH211374   6.405   2.282   1.478 -0.0632 -0.1503  0.2776
 3813TIP3    H111375   6.489   2.321   1.453  0.3171  0.6180  2.6203
 3813TIP3    H211376   6.411   2.272   1.573 -1.6719 -2.3644  0.1852
 3814TIP3   OH211377   6.388   3.677   2.303 -0.3806  0.5742 -0.0884
 3814TIP3    H111378   6.422   3.602   2.352 -0.5576 -0.6563 -1.8089
 3814TIP3    H211379   6.370   3.743   2.370 -0.2062 -0.9013  1.4484
 3815TIP3   OH211380   5.802   4.048   2.966 -0.8365 -0.1928  0.1707
 3815TIP3    H111381   5.730   4.043   3.030 -1.3793 -0.2978 -0.4459
 3815TIP3    H211382   5.878   4.072   3.019 -0.9942 -1.5923  1.0802
 3816TIP3   OH211383   3.956   5.163   2.488 -0.4098  0.0117  0.0185
 3816TIP3    H111384   3.975   5.084   2.438  0.4792  0.0556  0.2914
 3816TIP3    H211385   3.965   5.234   2.425 -0.8535 -0.0708 -0.1396
 3817TIP3   OH211386   6.817   3.882   1.156  0.8621  0.3667 -0.2489
 3817TIP3    H111387   6.793   3.943   1.225 -0.4336 -0.4452  0.0371
 3817TIP3    H211388   6.802   3.930   1.075  1.8262  1.1192 -0.0011
 3818TIP3   OH211389   5.802   2.975   1.965  0.2148  0.1929 -0.0310
 3818TIP3    H111390   5.811   2.909   2.034 -0.1144 -0.3126 -0.4671
 3818TIP3    H211391   5.815   2.926   1.883 -3.6287 -0.0940 -0.5802
 3819TIP3   OH211392   5.790   5.224   0.243  0.1917 -0.6155  0.3597
 3819TIP3    H111393   5.709   5.275   0.249  0.6337  0.1186  0.1609
 3819TIP3    H211394   5.765   5.146   0.193 -0.6165 -0.8646  1.1376
 3820TIP3   OH211395   5.747   6.146   3.235  0.2522 -0.2865  0.2730
 3820TIP3    H111396   5.708   6.233   3.241  0.8846 -0.0173  0.5714
 3820TIP3    H211397   5.802   6.140   3.314  1.0578 -0.5314 -0.3051
 3821TIP3   OH211398   4.823   5.137   2.077  0.2003 -0.2137 -0.5241
 3821TIP3    H111399   4.812   5.229   2.054  0.5412 -0.6003 -2.2988
 3821TIP3    H211400   4.743   5.114   2.124 -0.3932  0.6937 -1.0859
 3822TIP3   OH211401   5.885   3.649   0.914 -0.1689 -0.2651 -0.5081
 3822TIP3    H111402   5.957   3.712   0.922  0.5540 -1.0022 -1.1892
 3822TIP3    H211403   5.807   3.700   0.937  0.6230  0.4019  0.7868
 3823TIP3   OH211404   5.927   3.739   0.448 -0.0538  0.5462  0.1242
 3823TIP3    H111405   5.972   3.746   0.532 -0.9361 -0.3473  0.6828
 3823TIP3    H211406   5.982   3.678   0.397  0.9626  1.7872 -0.2855
 3824TIP3   OH211407   4.133   4.104   1.948 -0.3460 -0.2382  0.3345
 3824TIP3    H111408   4.038   4.109   1.959 -0.3340  2.1915 -0.3633
 3824TIP3    H211409   4.147   4.026   1.895 -1.8904 -0.9671  0.9528
 3825TIP3   OH211410   5.413   3.800   1.769  0.5011 -0.2621  0.2123
 3825TIP3    H111411   5.496   3.811   1.724  0.8917  0.6997  1.1612
 3825TIP3    H211412   5.419   3.714   1.811  0.9010 -0.3100  0.0560
 3826TIP3   OH211413   4.669   2.138   3.756 -0.7475  0.3687 -0.2065
 3826TIP3    H111414   4.616   2.145   3.676  1.1467  2.9010 -1.3282
 3826TIP3    H211415   4.695   2.228   3.774  2.6821 -0.7446  0.6284
 3827TIP3   OH211416   7.421   4.132   2.756  0.2453  0.3724  0.6916
 3827TIP3    H111417   7.491   4.070   2.737  0.6102 -0.1799  3.5967
 3827TIP3    H211418   7.458   4.218   2.737  0.8942 -0.0805 -0.0768
 3828TIP3   OH211419   5.113   2.822   2.739  0.0251 -0.2100  0.7962
 3828TIP3    H111420   5.045   2.810   2.673 -0.4312  1.4946  0.9400
 3828TIP3    H211421   5.186   2.863   2.692  0.4720 -0.8624  0.9168
 3829TIP3   OH211422   5.583   4.460   1.320 -0.3536 -0.2020  0.1593
 3829TIP3    H111423   5.614   4.425   1.404  0.5784  0.5353  0.1296
 3829TIP3    H211424   5.660   4.460   1.264 -1.0030 -0.8104 -0.7538
 3830TIP3   OH211425   6.020   3.075   1.019  0.7919  0.3052 -0.2556
 3830TIP3    H111426   5.954   3.133   1.057  0.3371 -0.0757 -0.4598
 3830TIP3    H211427   6.029   3.104   0.928 -1.5040 -1.7338 -1.1809
 3831TIP3   OH211428   6.251   2.633   2.245 -0.8331  0.0531  0.1199
 3831TIP3    H111429   6.302   2.696   2.296 -0.7345  0.5392 -0.5775
 3831TIP3    H211430   6.280   2.646   2.154 -0.2913 -1.4724  0.0456
 3832TIP3   OH211431   5.431   6.418   3.650  0.1853 -0.2761  0.2935
 3832TIP3    H111432   5.511   6.382   3.613 -0.7733 -0.8885 -1.2500
 3832TIP3    H211433   5.434   6.511   3.629  0.2273 -0.3983 -0.2390
 3833TIP3   OH211434   6.413   4.745   3.288  0.5780  0.4701  0.4621
 3833TIP3    H111435   6.363   4.795   3.352 -0.8567 -0.1548 -0.1323
 3833TIP3    H211436   6.402   4.793   3.206 -0.9920 -0.8866 -0.1563
 3834TIP3   OH211437   7.069   5.668   3.660 -0.1474  0.7968  0.3083
 3834TIP3    H111438   7.060   5.610   3.584 -0.8384  2.3152 -0.7864
 3834TIP3    H211439   7.163   5.667   3.680  0.1609  1.0381 -1.0833
 3835TIP3   OH211440   5.441   2.740   3.620  0.8213 -0.0218  0.1387
 3835TIP3    H111441   5.379   2.800   3.577 -0.3205  0.2171  2.0625
 3835TIP3    H211442   5.428   2.657   3.575  0.5647  0.5282 -0.8273
 3836TIP3   OH211443   5.440   4.772   1.553  0.0075 -0.2088  0.2214
 3836TIP3    H111444   5.375   4.759   1.622  0.3950 -1.0134  0.4475
 3836TIP3    H211445   5.519   4.799   1.599 -0.2069  0.9576 -0.0696
 3837TIP3   OH211446   5.809   3.776   2.792 -0.4239 -0.3081 -0.3374
 3837TIP3    H111447   5.798   3.845   2.857  1.5289  0.0754 -0.3871
 3837TIP3    H211448   5.885   3.727   2.821 -0.5113 -1.1364 -1.4647
 3838TIP3   OH211449   2.787   5.684   2.926  0.1799  0.7016  0.2181
 3838TIP3    H111450   2.729   5.727   2.989  0.1659 -0.1631  0.8038
 3838TIP3    H211451   2.789   5.592   2.953  2.9202  0.9419  1.0765
 3839TIP3   OH211452   6.941   3.353   2.336  0.0209  0.4085 -0.3996
 3839TIP3    H111453   7.011   3.355   2.402  0.6710 -1.8558 -0.9492
 3839TIP3    H211454   6.879   3.420   2.364  1.3052  0.9057  1.3625
 3840TIP3   OH211455   5.060   3.259   3.870  0.2804 -0.2260 -0.3205
 3840TIP3    H111456   5.008   3.324   3.917  0.8906  0.0754 -0.0550
 3840TIP3    H211457   5.107   3.310   3.803  0.0618 -0.5265 -0.7045
 3841TIP3   OH211458   6.577   4.583   1.206  0.6881 -1.2551  0.1998
 3841TIP3    H111459   6.663   4.585   1.248  1.0834  1.1876 -0.6033
 3841TIP3    H211460   6.596   4.580   1.113 -0.0231  0.9705 -0.0492
 3842TIP3   OH211461   5.674   3.924   2.330 -0.5555  0.0879 -0.3427
 3842TIP3    H111462   5.629   3.854   2.376 -0.5058  0.8314  0.8695
 3842TIP3    H211463   5.658   3.906   2.237 -0.6850 -1.4125 -0.0430
 3843TIP3   OH211464   4.591   4.290   2.073  0.4755 -0.6599  0.0175
 3843TIP3    H111465   4.544   4.245   2.003 -0.3029  0.4365 -0.1711
 3843TIP3    H211466   4.527   4.299   2.144  0.9916 -0.9293  0.5333
 3844TIP3   OH211467   0.822   5.661   0.257 -0.2796 -0.1058  1.1014
 3844TIP3    H111468   0.829   5.574   0.295 -0.9097 -0.4244  0.5033
 3844TIP3    H211469   0.864   5.654   0.172 -1.2369 -0.1038  0.6161
 3845TIP3   OH211470   2.596   4.848   2.466 -0.4856  0.1774  0.4970
 3845TIP3    H111471   2.606   4.779   2.400  0.5962  0.8891 -0.0960
 3845TIP3    H211472   2.675   4.844   2.518 -1.3451 -0.3838  1.7748
 3846TIP3   OH211473   7.217   4.402   1.965 -0.0535  0.5833 -0.1787
 3846TIP3    H111474   7.198   4.486   1.924 -0.5848  0.5475 -0.0015
 3846TIP3    H211475   7.186   4.337   1.902  2.3747  0.4837 -1.3262
 3847TIP3   OH211476   5.803   2.168   1.522  0.1492  0.2161  0.0005
 3847TIP3    H111477   5.743   2.172   1.597  1.3408 -0.5976  1.0276
 3847TIP3    H211478   5.759   2.218   1.453 -1.3376  0.3023  0.9830
 3848TIP3   OH211479   8.311   3.614   1.458 -0.0492 -0.0298 -0.1375
 3848TIP3    H111480   8.276   3.526   1.465 -0.8388  0.4002  1.6888
 3848TIP3    H211481   8.241   3.671   1.493 -0.1263  1.4509 -2.6005
 3849TIP3   OH211482   2.817   3.895   2.192 -0.8600 -0.5322 -0.0611
 3849TIP3    H111483   2.756   3.857   2.256 -1.5223  0.5581 -0.0239
 3849TIP3    H211484   2.798   3.989   2.194  0.5904 -0.2256 -0.3173
 3850TIP3   OH211485   5.911   4.862   2.367  0.4873  0.4105  0.0673
 3850TIP3    H111486   5.989   4.807   2.365  1.9885  2.3830  2.0349
 3850TIP3    H211487   5.926   4.930   2.302  0.3639  0.7074  0.3430
 3851TIP3   OH211488   4.381   3.310   1.742 -0.3299  0.1163  0.0029
 3851TIP3    H111489   4.394   3.404   1.752 -0.2892  0.1131 -0.0151
 3851TIP3    H211490   4.401   3.273   1.828  1.1956 -0.0321 -0.3883
 3852TIP3   OH211491   5.807   5.442   4.565 -0.0145  0.0298 -0.4001
 3852TIP3    H111492   5.868   5.508   4.532 -0.2793 -0.0822 -1.1315
 3852TIP3    H211493   5.751   5.490   4.627 -2.0402  1.1913 -3.0194
 3853TIP3   OH211494   5.228   4.758   0.404 -0.0662  0.5059 -0.1636
 3853TIP3    H111495   5.158   4.820   0.427 -1.1649 -0.5775 -0.5221
 3853TIP3    H211496   5.282   4.805   0.341 -1.4030  0.8049 -1.1201
 3854TIP3   OH211497   6.841   3.101   0.614  0.0378  0.3568  0.4278
 3854TIP3    H111498   6.821   3.008   0.615 -1.2543  0.5933 -1.5540
 3854TIP3    H211499   6.774   3.140   0.671 -1.7435  0.4869 -1.7082
 3855TIP3   OH211500   2.084   5.018   3.867 -0.5672  0.9702 -0.0364
 3855TIP3    H111501   2.158   5.063   3.908  0.0163  0.7226 -0.7984
 3855TIP3    H211502   2.121   4.937   3.833 -1.7429 -0.3887  1.8633
 3856TIP3   OH211503   6.318   4.507   1.310 -0.2523 -0.0181 -0.6040
 3856TIP3    H111504   6.407   4.539   1.297 -0.1380  0.4088  1.1226
 3856TIP3    H211505   6.262   4.578   1.279  0.0136  0.9000  0.9632
 3857TIP3   OH211506   6.792   2.990   1.696  0.1144 -0.1422  0.1203
 3857TIP3    H111507   6.754   2.912   1.655 -1.0123  0.3064  0.2873
 3857TIP3    H211508   6.768   3.062   1.637 -1.4260  0.4899  1.4656
 3858TIP3   OH211509   4.451   4.285   0.620  0.1029 -0.4650  0.1798
 3858TIP3    H111510   4.474   4.233   0.697 -0.2322 -1.7016 -0.5475
 3858TIP3    H211511   4.513   4.357   0.620 -0.7885  0.3549  2.4210
 3859TIP3   OH211512   5.433   3.473   2.282  0.0099 -0.4103 -0.3395
 3859TIP3    H111513   5.528   3.478   2.266  0.2614 -0.0350  1.1147
 3859TIP3    H211514   5.424   3.496   2.375 -1.5012 -0.5645 -0.4386
 3860TIP3   OH211515   6.823   3.587   1.646 -0.3304 -0.1367  0.2434
 3860TIP3    H111516   6.795   3.625   1.730 -0.2130  0.4444  0.0151
 3860TIP3    H211517   6.918   3.585   1.651 -0.2897  0.6288 -0.2012
 3861TIP3   OH211518   7.939   6.803   6.263  0.2201  0.0310 -0.0816
 3861TIP3    H111519   7.890   6.832   6.185  1.8542  0.8168 -0.8409
 3861TIP3    H211520   7.878   6.746   6.309 -1.2754  0.6500 -1.2244
 3862TIP3   OH211521   2.902   3.969   3.346 -0.6722 -0.1920  0.7145
 3862TIP3    H111522   2.865   3.946   3.260  0.6882  0.7700 -0.1445
 3862TIP3    H211523   2.984   3.920   3.351 -0.6488 -0.0880  1.3968
 3863TIP3   OH211524   3.917   2.834   0.207 -0.4724  0.6189 -0.7377
 3863TIP3    H111525   3.990   2.861   0.151 -0.5477  1.3456 -0.4891
 3863TIP3    H211526   3.840   2.844   0.151 -0.8601  3.8480  0.2560
 3864TIP3   OH211527   6.123   4.361   2.203  0.2970 -0.2517  0.6023
 3864TIP3    H111528   6.219   4.363   2.200  0.3013  1.1954  1.0462
 3864TIP3    H211529   6.102   4.359   2.296 -0.1100 -0.9144  0.5000
 3865TIP3   OH211530   7.875   4.353   1.945  0.2717  0.1086  0.4436
 3865TIP3    H111531   7.928   4.307   2.010  0.1687 -0.4313  0.1473
 3865TIP3    H211532   7.853   4.436   1.987  2.9502  1.1645 -0.1453
 3866TIP3   OH211533   4.310   4.306   0.978 -0.8491  0.0516 -0.5213
 3866TIP3    H111534   4.342   4.270   1.061 -1.5979 -1.3109 -0.8159
 3866TIP3    H211535   4.389   4.326   0.929 -0.4160 -0.7331 -0.1524
 3867TIP3   OH211536   0.142   0.691   1.355 -0.2312  0.2704 -0.5710
 3867TIP3    H111537   0.053   0.674   1.387  0.4898  0.0479  1.3849
 3867TIP3    H211538   0.198   0.666   1.428  1.3771  1.7422 -1.2868
 3868TIP3   OH211539   4.939   0.674   1.898  0.0932  0.9057 -0.3438
 3868TIP3    H111540   4.963   0.623   1.975  0.4064  0.0478 -1.0115
 3868TIP3    H211541   4.846   0.692   1.909 -0.0521  0.0685 -0.1814
 3869TIP3   OH211542   6.708   2.578   0.202 -0.1945  0.1244 -0.2665
 3869TIP3    H111543   6.709   2.585   0.298  0.0077 -1.5771 -0.1317
 3869TIP3    H211544   6.615   2.572   0.179 -0.1929 -0.6773 -0.0741
 3870TIP3   OH211545   0.105   5.364   1.794 -0.0746  0.0859 -0.2589
 3870TIP3    H111546   0.191   5.388   1.760 -1.0178 -0.2683 -2.9803
 3870TIP3    H211547   0.103   5.269   1.790 -0.7271  0.1094 -0.5006
 3871TIP3   OH211548   5.679   6.273   3.629 -0.1845  0.4576 -0.4391
 3871TIP3    H111549   5.748   6.245   3.569  0.1039  1.3537 -0.5294
 3871TIP3    H211550   5.631   6.193   3.649  1.8118 -0.4652  0.8295
 3872TIP3   OH211551   5.673   2.649   0.130 -0.1851 -0.2385 -0.2951
 3872TIP3    H111552   5.681   2.708   0.206 -0.0149 -0.8456  0.1608
 3872TIP3    H211553   5.761   2.647   0.093 -0.1047 -0.4950 -0.0921
 3873TIP3   OH211554   5.679   2.640   1.136 -0.4431 -0.3359 -0.0949
 3873TIP3    H111555   5.684   2.554   1.096  1.1319 -0.9096  1.2752
 3873TIP3    H211556   5.620   2.628   1.211 -0.1017 -0.2497  0.1855
 3874TIP3   OH211557   5.445   3.198   0.168 -0.1326 -0.1752  0.0363
 3874TIP3    H111558   5.491   3.276   0.199 -0.8584  0.5662 -0.7566
 3874TIP3    H211559   5.376   3.184   0.233  1.5050 -1.6259  1.5530
 3875TIP3   OH211560   4.563   4.394   0.906  0.1285  0.3897  0.6239
 3875TIP3    H111561   4.654   4.371   0.924  0.1570  0.3363  0.4083
 3875TIP3    H211562   4.566   4.485   0.876  0.3695 -0.3560 -1.6577
 3876TIP3   OH211563   7.210   3.090   2.736  0.3428  0.3308  0.0078
 3876TIP3    H111564   7.221   3.167   2.792  0.4914  0.3542 -0.0538
 3876TIP3    H211565   7.296   3.048   2.735 -0.3253 -1.1639  1.9708
 3877TIP3   OH211566   5.678   3.056   2.770 -0.5092 -0.1138 -0.2494
 3877TIP3    H111567   5.734   3.008   2.831 -0.7444 -0.0153  0.0438
 3877TIP3    H211568   5.703   3.147   2.781 -1.0304 -0.0232  0.1965
 3878TIP3   OH211569   7.408   4.046   3.851 -0.0686 -0.5668 -0.0067
 3878TIP3    H111570   7.415   4.127   3.902 -0.7581  0.1758 -1.0762
 3878TIP3    H211571   7.335   4.061   3.791  1.8055 -0.7411 -2.4216
 3879TIP3   OH211572   6.630   4.529   0.953 -0.3323  0.8406 -0.0218
 3879TIP3    H111573   6.683   4.512   0.875  1.2193  0.7596  1.0242
 3879TIP3    H211574   6.581   4.449   0.967 -0.0120  0.5673 -0.4504
 3880TIP3   OH211575   2.416   6.081   5.049 -0.1072 -0.4716 -0.2144
 3880TIP3    H111576   2.479   6.150   5.070  1.1945 -1.4230 -0.8452
 3880TIP3    H211577   2.455   6.002   5.086 -1.5723 -0.8767  0.4926
 3881TIP3   OH211578   3.383   3.796   2.872 -0.7063 -0.3998  0.5939
 3881TIP3    H111579   3.343   3.798   2.960  0.9738  2.1991  1.3546
 3881TIP3    H211580   3.402   3.888   2.853  1.0550 -1.1761 -1.5374
 3882TIP3   OH211581   4.950   5.920   3.542  0.1313  0.2040 -0.4317
 3882TIP3    H111582   5.021   5.903   3.605  0.8512 -1.3409 -1.6257
 3882TIP3    H211583   4.882   5.857   3.566 -0.6101  1.2803  0.3332
 3883TIP3   OH211584   5.280   4.707   4.066 -0.1613 -0.4437 -0.2492
 3883TIP3    H111585   5.288   4.643   4.137 -0.1140 -0.1836 -0.0202
 3883TIP3    H211586   5.347   4.681   4.003 -0.1542 -0.6332 -0.1640
 3884TIP3   OH211587   3.179   3.317   3.102 -0.0236 -0.1575  0.2733
 3884TIP3    H111588   3.161   3.240   3.157 -0.0726  0.3394  0.9503
 3884TIP3    H211589   3.271   3.337   3.118 -0.3555  0.7157  1.0875
 3885TIP3   OH211590   1.014   7.834   6.071  0.0855 -0.3582  0.2196
 3885TIP3    H111591   0.999   7.922   6.105  0.8144 -0.4112  0.6804
 3885TIP3    H211592   0.978   7.776   6.138  0.6738 -0.4361  0.4773
 3886TIP3   OH211593   6.303   3.859   0.399 -0.0154  0.0621 -0.3264
 3886TIP3    H111594   6.225   3.905   0.368  1.8819  2.5004 -1.7313
 3886TIP3    H211595   6.334   3.812   0.322 -1.2114 -2.5903  0.7702
 3887TIP3   OH211596   6.397   3.672   1.998  0.4025  0.2320 -0.0535
 3887TIP3    H111597   6.374   3.579   2.001  0.7638  0.0834 -1.3786
 3887TIP3    H211598   6.325   3.716   2.043  0.4522 -0.7186  0.9825
 3888TIP3   OH211599   5.996   3.620   2.480  0.5480  0.4050 -0.0596
 3888TIP3    H111600   6.058   3.692   2.468  1.0547 -0.0272 -0.0645
 3888TIP3    H211601   5.910   3.662   2.485  0.9753  1.1524  1.4145
 3889TIP3   OH211602   4.798   5.401   2.003 -0.5129  0.1029 -0.0285
 3889TIP3    H111603   4.878   5.439   2.042 -2.3846  1.4469  2.6566
 3889TIP3    H211604   4.808   5.416   1.909  1.9935  1.0528  0.3436
 3890TIP3   OH211605   4.498   5.513   3.733 -0.2478  0.5324  0.1635
 3890TIP3    H111606   4.516   5.514   3.639 -0.5827  0.9154  0.1007
 3890TIP3    H211607   4.482   5.421   3.753  0.4429  0.3654 -0.0328
 3891TIP3   OH211608   5.631   5.691   3.651  0.1460  0.2433  0.2117
 3891TIP3    H111609   5.581   5.623   3.696 -0.9855  0.3786 -0.8210
 3891TIP3    H211610   5.590   5.697   3.565  0.1974  2.2656  0.3147
 3892TIP3   OH211611   4.744   7.068   3.137  0.1291 -0.4278  0.6932
 3892TIP3    H111612   4.673   7.132   3.143  0.6931  0.3006 -0.3489
 3892TIP3    H211613   4.808   7.108   3.079 -0.6883 -3.0339 -2.1797
 3893TIP3   OH211614   4.268   4.431   2.967 -0.3382  0.2029  0.4301
 3893TIP3    H111615   4.329   4.469   2.904  1.2705 -0.0398  1.8023
 3893TIP3    H211616   4.212   4.504   2.995  0.3677  0.7758  0.3421
 3894TIP3   OH211617   7.385   4.059   3.016 -0.0941 -0.2044 -0.6025
 3894TIP3    H111618   7.379   4.091   2.926 -2.3848  0.0379 -0.3734
 3894TIP3    H211619   7.374   3.964   3.008 -2.4166  0.0234 -0.3977
 3895TIP3   OH211620   5.628   4.215   2.109  0.0839 -0.4381  0.1117
 3895TIP3    H111621   5.660   4.250   2.192 -1.6279  1.3354  0.0651
 3895TIP3    H211622   5.585   4.133   2.132  1.8380 -1.2416  0.6029
 3896TIP3   OH211623   6.476   2.608   1.753  0.0217 -0.5508  0.3238
 3896TIP3    H111624   6.484   2.623   1.848  1.9806  2.4587 -0.2469
 3896TIP3    H211625   6.506   2.518   1.741  0.1561 -0.8369  2.5097
 3897TIP3   OH211626   3.073   4.028   1.363  0.1992  0.6341  0.0296
 3897TIP3    H111627   3.153   4.081   1.357  2.1065 -2.0730  0.2963
 3897TIP3    H211628   3.073   3.975   1.283  0.4426 -1.7015  1.5233
 3898TIP3   OH211629   6.496   1.905   2.227 -0.4115 -0.1431  0.8385
 3898TIP3    H111630   6.455   1.987   2.255  0.6845  1.5761 -2.2821
 3898TIP3    H211631   6.436   1.870   2.162  0.7508 -0.0390 -0.3101
 3899TIP3   OH211632   5.010   6.073   2.628  0.6881  0.3247  0.3436
 3899TIP3    H111633   5.029   6.076   2.535 -0.4606  0.4970  0.1179
 3899TIP3    H211634   5.023   6.163   2.658 -1.2668  0.7909 -0.1174
 3900TIP3   OH211635   5.427   4.647   3.119  0.4295 -0.1074  0.4627
 3900TIP3    H111636   5.342   4.675   3.153  0.1520 -0.1359 -0.2134
 3900TIP3    H211637   5.409   4.613   3.032  1.2352  0.5030  0.0515
 3901TIP3   OH211638   6.006   5.350   0.085  0.4277 -0.2488  0.1255
 3901TIP3    H111639   5.942   5.306   0.141 -0.1877 -0.2475 -0.5678
 3901TIP3    H211640   6.086   5.354   0.138  0.0303 -0.7917  0.7716
 3902TIP3   OH211641   3.073   4.887   2.092  0.2600 -0.4211  0.3703
 3902TIP3    H111642   3.032   4.836   2.022  0.7527 -0.9382  0.4543
 3902TIP3    H211643   3.163   4.900   2.063  1.0847 -2.5147  1.8843
 3903TIP3   OH211644   0.976   0.145   6.307 -0.3114  0.2612  0.2615
 3903TIP3    H111645   0.945   0.178   6.223  2.5186  1.2408 -0.4637
 3903TIP3    H211646   0.934   0.200   6.372 -1.6680  0.2077 -0.5467
 3904TIP3   OH211647   6.338   5.500   2.725  0.1364 -0.0523 -0.6388
 3904TIP3    H111648   6.260   5.552   2.706  0.6254  0.9615  0.0976
 3904TIP3    H211649   6.305   5.410   2.735 -0.9139  0.3453 -0.4558
 3905TIP3   OH211650   6.081   3.834   0.946  0.3181  0.1792  0.0868
 3905TIP3    H111651   6.127   3.918   0.940  1.2957 -0.2923  0.9070
 3905TIP3    H211652   6.097   3.804   1.035 -1.0336 -0.3134  0.1832
 3906TIP3   OH211653   4.938   3.663   0.745  0.5644  0.3371  0.0170
 3906TIP3    H111654   4.854   3.617   0.744  0.9945 -0.4662 -1.9108
 3906TIP3    H211655   4.984   3.630   0.668  2.9193  0.2998  1.4131
 3907TIP3   OH211656   3.918   3.721   0.380  0.2166 -0.2026 -0.4166
 3907TIP3    H111657   3.962   3.706   0.463  0.3451  1.7128 -0.1144
 3907TIP3    H211658   3.989   3.741   0.319  0.0664 -0.9087 -0.8289
 3908TIP3   OH211659   6.595   3.493   0.866  0.3201 -0.1506 -0.0815
 3908TIP3    H111660   6.517   3.492   0.810  1.6936  0.7883 -2.0584
 3908TIP3    H211661   6.639   3.575   0.845  0.2640  0.8175  3.2885
 3909TIP3   OH211662   6.188   5.353   1.173  0.7702  0.3199  0.1684
 3909TIP3    H111663   6.249   5.318   1.109 -1.7285 -2.3500 -0.8660
 3909TIP3    H211664   6.217   5.318   1.257 -0.4731 -2.6243 -0.5900
 3910TIP3   OH211665   4.463   6.903   1.164 -0.1172  0.2582  0.1320
 3910TIP3    H111666   4.367   6.898   1.172 -0.0300  1.3702  2.0622
 3910TIP3    H211667   4.483   6.995   1.179  1.4017 -0.2566  1.2481
 3911TIP3   OH211668   4.146   5.061   2.161  0.4644 -0.1981  0.2001
 3911TIP3    H111669   4.052   5.077   2.153  0.2024 -1.4848  0.6998
 3911TIP3    H211670   4.177   5.054   2.070 -0.0724 -0.6650  0.0513
 3912TIP3   OH211671   5.749   1.787   2.400 -0.2004 -0.1403 -0.5878
 3912TIP3    H111672   5.817   1.744   2.348  0.8798  0.7325  0.1047
 3912TIP3    H211673   5.672   1.731   2.388 -0.0388  0.1556 -3.3200
 3913TIP3   OH211674   8.161   6.917   6.916 -0.5043 -0.0104  0.7674
 3913TIP3    H111675   8.245   6.956   6.942 -0.4775 -0.8561  1.9374
 3913TIP3    H211676   8.165   6.827   6.947 -1.6766 -0.1850  0.4394
 3914TIP3   OH211677   2.010   1.862   3.033  0.2076  0.5124 -0.1361
 3914TIP3    H111678   2.073   1.821   3.093  1.2059  1.1420 -0.7319
 3914TIP3    H211679   2.003   1.800   2.960 -0.3046  0.1759  0.1956
 3915TIP3   OH211680   4.341   3.011   1.353 -0.6245 -0.2222 -0.2165
 3915TIP3    H111681   4.310   2.943   1.413  0.3041  1.8883  2.7850
 3915TIP3    H211682   4.436   3.002   1.355 -0.4631  1.5821  0.7419
 3916TIP3   OH211683   6.342   4.305   1.888  0.6336  0.2934 -0.1416
 3916TIP3    H111684   6.264   4.324   1.836  0.0009  0.1031  0.7291
 3916TIP3    H211685   6.398   4.382   1.874  0.2670  0.4703 -0.7103
 3917TIP3   OH211686   3.125   3.252   1.960  0.1618  0.3350  0.3504
 3917TIP3    H111687   3.084   3.205   2.032 -2.9649 -0.2373 -1.6816
 3917TIP3    H211688   3.087   3.340   1.964 -0.0664  0.2903 -0.5788
 3918TIP3   OH211689   3.690   5.828   4.143 -1.0958  0.0079 -0.0509
 3918TIP3    H111690   3.782   5.802   4.156 -0.7600  0.2238 -1.9425
 3918TIP3    H211691   3.654   5.761   4.086 -1.8856  0.4221 -0.0354
 3919TIP3   OH211692   3.940   5.092   5.124 -0.1835  0.3344  0.4222
 3919TIP3    H111693   3.964   5.096   5.032 -0.6626  3.1105  0.3533
 3919TIP3    H211694   3.973   5.008   5.155  1.7736  0.2532 -1.7826
 3920TIP3   OH211695   4.813   5.911   4.039 -0.3015 -0.7800 -0.1899
 3920TIP3    H111696   4.827   5.832   3.988 -1.0347 -1.8448  1.2053
 3920TIP3    H211697   4.873   5.902   4.114 -0.7881 -0.2955  0.2640
 3921TIP3   OH211698   4.962   0.588   5.909 -0.1242  0.0777  0.4680
 3921TIP3    H111699   4.944   0.680   5.887  1.2900  0.3160  0.2573
 3921TIP3    H211700   4.974   0.588   6.004 -0.7867 -0.0060  0.5530
 3922TIP3   OH211701   8.006   2.858   4.557  0.0556  0.7222 -0.3686
 3922TIP3    H111702   8.048   2.823   4.478 -0.3849 -0.6440 -0.0021
 3922TIP3    H211703   7.962   2.783   4.596 -0.2079  1.5212  0.8791
 3923TIP3   OH211704   6.065   4.362   1.830 -0.2570  0.2452  0.4260
 3923TIP3    H111705   5.988   4.334   1.879 -0.5076 -0.9675 -0.6169
 3923TIP3    H211706   6.040   4.353   1.738  0.7576  0.8956  0.0665
 3924TIP3   OH211707   3.259   4.479   2.584  0.0789 -0.2443  0.1055
 3924TIP3    H111708   3.267   4.478   2.489  1.2886 -0.5955  0.2040
 3924TIP3    H211709   3.290   4.565   2.611 -0.2798 -0.1376  0.1877
 3925TIP3   OH211710   6.420   5.355   2.297  0.2998  0.5650 -0.1169
 3925TIP3    H111711   6.384   5.352   2.208 -0.6473 -0.4214  0.2846
 3925TIP3    H211712   6.367   5.293   2.346  1.2362  0.6295  0.9963
 3926TIP3   OH211713   6.920   6.290   5.066 -0.4134 -0.1051 -0.5598
 3926TIP3    H111714   6.967   6.207   5.075 -0.7590 -0.2792 -0.3410
 3926TIP3    H211715   6.968   6.351   5.121  1.9927  0.7832 -3.4679
 3927TIP3   OH211716   6.036   4.477   0.594 -0.4220 -0.2049 -0.0773
 3927TIP3    H111717   6.019   4.427   0.674  1.3413  0.3674  0.6762
 3927TIP3    H211718   6.015   4.567   0.616 -1.0026 -0.2053 -0.6060
 3928TIP3   OH211719   5.754   0.074   1.593  0.1731  0.8403 -0.6360
 3928TIP3    H111720   5.806   0.107   1.666 -0.9559 -1.3494  1.2116
 3928TIP3    H211721   5.818   0.050   1.526  1.3494  0.9164  0.4541
 3929TIP3   OH211722   4.069   5.386   2.062 -0.2649  0.3016  0.2880
 3929TIP3    H111723   4.058   5.311   2.003  0.1322  1.4870 -1.3408
 3929TIP3    H211724   4.115   5.451   2.009 -0.2210  1.5423  1.8146
 3930TIP3   OH211725   4.614   1.403   1.028 -0.3780  0.2474 -0.2785
 3930TIP3    H111726   4.708   1.396   1.012 -0.3628  0.8359 -0.4332
 3930TIP3    H211727   4.574   1.385   0.943 -0.3611  1.2643 -0.5120
 3931TIP3   OH211728   5.439   5.080   1.081  0.0539 -0.0504 -0.1179
 3931TIP3    H111729   5.476   5.169   1.077  0.7015 -0.3749 -1.7633
 3931TIP3    H211730   5.510   5.026   1.117 -0.3023  0.0740  0.7811
 3932TIP3   OH211731   5.412   4.460   1.715  0.4362 -0.9812  0.1876
 3932TIP3    H111732   5.345   4.474   1.782 -1.8252  1.6695 -2.4638
 3932TIP3    H211733   5.485   4.515   1.742 -1.3368  1.8483 -0.6060
 3933TIP3   OH211734   4.810   2.107   2.543 -0.1396  0.2317  0.5258
 3933TIP3    H111735   4.769   2.159   2.613  0.2321 -0.3977  1.2242
 3933TIP3    H211736   4.879   2.164   2.509 -0.6718  0.7517  0.3064
 3934TIP3   OH211737   5.554   4.400   0.559 -0.3212 -0.4205 -0.3169
 3934TIP3    H111738   5.565   4.482   0.511 -0.1253 -0.6229 -0.6207
 3934TIP3    H211739   5.616   4.340   0.518 -0.6700 -0.8023 -0.2864
 3935TIP3   OH211740   7.135   5.286   2.895 -0.2861  0.4335 -0.3058
 3935TIP3    H111741   7.186   5.350   2.945 -1.1510  1.7243 -1.0454
 3935TIP3    H211742   7.046   5.321   2.895 -0.2584  0.5890 -2.9663
 3936TIP3   OH211743   6.946   6.865   2.821  0.0286  0.0113 -0.2058
 3936TIP3    H111744   7.033   6.828   2.811 -0.0159 -0.3208  0.5757
 3936TIP3    H211745   6.958   6.941   2.877 -0.2452 -0.3368  0.3434
 3937TIP3   OH211746   3.669   4.878   2.321  0.2514  0.0780  0.2717
 3937TIP3    H111747   3.685   4.835   2.405  1.5757 -0.0558 -0.0372
 3937TIP3    H211748   3.657   4.970   2.343  1.8147  0.2339  0.4886
 3938TIP3   OH211749   6.537   5.024   4.430  0.0988 -0.0314 -0.7238
 3938TIP3    H111750   6.505   5.042   4.342 -2.3960 -1.3437 -0.1612
 3938TIP3    H211751   6.472   5.064   4.488  1.1868 -0.0216  0.5227
 3939TIP3   OH211752   6.484   3.617   0.257  0.0125  0.6099  0.1772
 3939TIP3    H111753   6.488   3.574   0.172  0.3536  0.8963  0.0487
 3939TIP3    H211754   6.571   3.656   0.269 -0.0418  0.5897  0.6427
 3940TIP3   OH211755   7.148   2.680   3.452  0.0762  0.1816 -0.2863
 3940TIP3    H111756   7.122   2.730   3.374 -1.8547 -1.3471 -0.6563
 3940TIP3    H211757   7.152   2.745   3.522 -1.7084  0.9903 -0.9087
 3941TIP3   OH211758   7.360   2.949   6.788  0.1189 -0.2692 -0.0134
 3941TIP3    H111759   7.277   2.940   6.741  0.1547  1.2882 -0.3916
 3941TIP3    H211760   7.356   2.881   6.855  0.0365 -2.4838 -2.1841
 3942TIP3   OH211761   6.903   3.246   4.202  0.1489 -0.1030 -0.0538
 3942TIP3    H111762   6.868   3.239   4.114 -1.2907  2.5869  0.2475
 3942TIP3    H211763   6.998   3.237   4.191 -0.2062 -2.3835 -1.5118
 3943TIP3   OH211764   2.813   4.457   3.644  0.2366  0.6912 -0.9520
 3943TIP3    H111765   2.735   4.511   3.628  0.2433  0.7887 -0.6650
 3943TIP3    H211766   2.818   4.399   3.568 -2.2032 -1.7865  0.6820
 3944TIP3   OH211767   6.528   4.625   3.677 -0.2033 -0.0889 -0.1052
 3944TIP3    H111768   6.519   4.573   3.757 -2.2959  0.3206 -0.0447
 3944TIP3    H211769   6.617   4.608   3.647  0.6873 -0.0563  2.4368
 3945TIP3   OH211770   5.391   1.898   4.911  0.0447 -0.0840  0.0368
 3945TIP3    H111771   5.298   1.889   4.892 -0.2082  1.5212  0.4727
 3945TIP3    H211772   5.424   1.957   4.843 -0.0478  2.4037  2.0844
 3946TIP3   OH211773   5.841   1.578   3.881 -0.0438 -0.8096  0.2031
 3946TIP3    H111774   5.823   1.672   3.872  1.1185 -0.3795  2.0930
 3946TIP3    H211775   5.856   1.566   3.975  0.4243 -2.7838 -0.1127
 3947TIP3   OH211776   5.953   4.734   3.199 -0.4448  0.5433  0.0903
 3947TIP3    H111777   5.992   4.806   3.249 -0.3470  1.4264 -1.2393
 3947TIP3    H211778   5.874   4.710   3.248  0.1056  0.8149  1.1200
 3948TIP3   OH211779   1.015   3.307   6.590 -0.3055  0.5165 -0.3920
 3948TIP3    H111780   0.938   3.344   6.633 -0.9300  0.0574 -1.1024
 3948TIP3    H211781   0.981   3.269   6.509  0.2187 -2.1053  0.5762
 3949TIP3   OH211782   5.710   4.346   1.582 -0.5408 -0.4081 -0.5051
 3949TIP3    H111783   5.721   4.428   1.630  1.9095 -0.9465 -0.0636
 3949TIP3    H211784   5.672   4.285   1.646 -1.5352  0.1351 -0.5778
 3950TIP3   OH211785   4.406   6.214   1.986 -0.5797  0.9138 -0.2452
 3950TIP3    H111786   4.404   6.208   1.890  2.1212  1.0081 -0.3339
 3950TIP3    H211787   4.319   6.246   2.010 -1.1866  1.1661 -2.6831
 3951TIP3   OH211788   1.518   4.793   2.408 -0.3910 -0.1591  0.0194
 3951TIP3    H111789   1.524   4.697   2.405 -1.3976 -0.1807 -1.8850
 3951TIP3    H211790   1.428   4.811   2.435 -0.6790  0.2360 -1.1665
 3952TIP3   OH211791   4.158   1.569   6.410  0.2049 -0.6602 -0.2441
 3952TIP3    H111792   4.112   1.523   6.481  1.4930  0.2412  1.2137
 3952TIP3    H211793   4.155   1.661   6.435  0.9815 -0.3649 -1.1951
 3953TIP3   OH211794   6.715   4.392   1.909 -0.2904 -0.2571  0.2950
 3953TIP3    H111795   6.780   4.382   1.839  1.1363 -1.9268  1.8148
 3953TIP3    H211796   6.756   4.451   1.972 -0.6396 -0.5433  0.7922
 3954TIP3   OH211797   7.359   4.716   3.198  0.1796  0.3438  0.5948
 3954TIP3    H111798   7.428   4.669   3.245  0.4228  0.2572  0.1586
 3954TIP3    H211799   7.387   4.807   3.199 -0.1652  0.4427  1.2236
 3955TIP3   OH211800   6.597   6.052   0.726  0.2659  0.1687  0.2070
 3955TIP3    H111801   6.572   5.962   0.747  1.6525 -0.1013  0.7278
 3955TIP3    H211802   6.626   6.048   0.635 -0.7695  0.3168 -0.1320
 3956TIP3   OH211803   5.714   2.237   2.583 -0.1536  0.4930 -0.0671
 3956TIP3    H111804   5.714   2.332   2.588 -0.7488  0.4838  0.0995
 3956TIP3    H211805   5.642   2.210   2.640 -1.7615  0.0503 -2.2219
 3957TIP3   OH211806   6.741   3.660   0.365  0.0851  0.3853  0.2126
 3957TIP3    H111807   6.739   3.571   0.399  0.8175  0.3412  0.1500
 3957TIP3    H211808   6.820   3.664   0.311 -0.8779  0.5695 -1.1924
 3958TIP3   OH211809   5.170   2.182   1.824  0.1268  0.1650 -0.4953
 3958TIP3    H111810   5.174   2.202   1.917  0.1083  0.1502 -0.4913
 3958TIP3    H211811   5.221   2.251   1.781  0.9676 -0.3743 -0.3891
 3959TIP3   OH211812   6.290   5.949   2.333  0.3675 -0.5267 -0.7639
 3959TIP3    H111813   6.294   5.859   2.366 -0.7305 -0.2363  0.2174
 3959TIP3    H211814   6.340   6.000   2.396 -2.1768  0.1116  0.8490
 3960TIP3   OH211815   3.907   0.369   6.443  0.3009  0.0716 -0.3114
 3960TIP3    H111816   3.825   0.319   6.447  0.1811  0.1889 -1.3125
 3960TIP3    H211817   3.879   0.460   6.434  0.5420  0.1551 -0.2079
 3961TIP3   OH211818   5.583   3.592   1.962 -0.3671 -0.0502 -0.4977
 3961TIP3    H111819   5.634   3.665   1.997  1.3755 -1.6399  0.4462
 3961TIP3    H211820   5.510   3.582   2.023 -1.1914  1.5147 -1.1987
 3962TIP3   OH211821   5.824   5.407   0.843 -0.1710 -0.3149 -0.4252
 3962TIP3    H111822   5.822   5.312   0.832 -0.2937 -0.1678 -1.7917
 3962TIP3    H211823   5.903   5.435   0.797  0.2910  0.1704  0.6511
 3963TIP3   OH211824   2.095   2.791   6.258  0.2551  0.6024 -0.4130
 3963TIP3    H111825   2.167   2.729   6.272 -1.3714 -1.1672  0.2491
 3963TIP3    H211826   2.090   2.840   6.340 -0.5212 -0.5887  0.2691
 3964TIP3   OH211827   7.822   3.559   2.832 -0.0033  0.2861 -0.3673
 3964TIP3    H111828   7.918   3.553   2.825  0.0724  2.2112 -1.1047
 3964TIP3    H211829   7.790   3.505   2.760  0.4172 -3.4667  2.0593
 3965TIP3   OH211830   3.584   0.823   6.190 -0.0553  0.2350 -0.7181
 3965TIP3    H111831   3.642   0.784   6.256  0.2248  0.5940 -0.7576
 3965TIP3    H211832   3.502   0.841   6.238  0.4644  1.3627 -0.2405
 3966TIP3   OH211833   6.814   1.418   0.645  0.1070  0.7668  0.0515
 3966TIP3    H111834   6.788   1.506   0.671  0.4020  0.8688 -0.0020
 3966TIP3    H211835   6.830   1.372   0.728 -0.3343  0.6739  0.0889
 3967TIP3   OH211836   0.047   6.103   6.660 -0.2683  0.4285 -0.2770
 3967TIP3    H111837  -0.048   6.102   6.671 -0.1706 -1.4334  0.7293
 3967TIP3    H211838   0.081   6.076   6.746  1.1088 -0.3435 -1.0476
 3968TIP3   OH211839   6.911   5.443   1.872  0.1051 -0.1113  0.0401
 3968TIP3    H111840   6.969   5.500   1.922 -1.4223 -1.3160  3.3597
 3968TIP3    H211841   6.965   5.366   1.851  0.4526 -0.0981  0.8591
 3969TIP3   OH211842   7.428   4.273   3.229  0.0301 -0.3568 -0.3477
 3969TIP3    H111843   7.450   4.184   3.256 -0.1697 -1.2634 -3.0214
 3969TIP3    H211844   7.451   4.277   3.137  0.5062  2.5556 -0.1577
 3970TIP3   OH211845   0.714   4.418   1.456  0.3671  0.3941  0.1376
 3970TIP3    H111846   0.718   4.368   1.374  0.6638 -1.6257  1.3683
 3970TIP3    H211847   0.777   4.375   1.514  0.7989  2.3428  1.1705
 3971TIP3   OH211848   6.055   3.850   1.648 -0.3396 -0.4160 -0.2898
 3971TIP3    H111849   5.979   3.906   1.665 -0.0397 -0.4526  1.3021
 3971TIP3    H211850   6.128   3.896   1.689  0.4159 -0.6196 -1.3943
 3972TIP3   OH211851   6.331   3.991   1.344  0.0873 -0.0323 -0.1989
 3972TIP3    H111852   6.403   3.964   1.288  2.7988  1.6634  2.2728
 3972TIP3    H211853   6.330   3.927   1.416  1.5117  1.8997  1.6181
 3973TIP3   OH211854   3.525   1.845   2.073 -0.0349  0.6130  0.4463
 3973TIP3    H111855   3.567   1.929   2.089 -0.4911  0.7152  1.1439
 3973TIP3    H211856   3.451   1.844   2.133 -0.6837  0.1842 -0.3420
 3974TIP3   OH211857   7.527   2.998   2.224 -0.1392 -0.0040 -0.7109
 3974TIP3    H111858   7.535   2.994   2.129 -0.8980 -1.1713 -0.7372
 3974TIP3    H211859   7.487   2.914   2.248  1.1580 -0.2063  0.7583
 3975TIP3   OH211860   6.406   3.224   1.396 -0.1353  0.2462 -0.2909
 3975TIP3    H111861   6.392   3.182   1.311 -0.1897 -1.8614  0.7438
 3975TIP3    H211862   6.372   3.313   1.384 -0.6916 -0.2086 -2.2878
 3976TIP3   OH211863   5.304   6.095   2.689 -0.1505  0.7434  0.5153
 3976TIP3    H111864   5.215   6.069   2.667 -0.3133  2.7921 -1.3985
 3976TIP3    H211865   5.295   6.148   2.769 -0.5462  0.2108  0.8203
 3977TIP3   OH211866   6.020   4.016   0.011  0.3529 -0.6159  0.0805
 3977TIP3    H111867   6.047   3.960   0.084  0.7412  0.8796  1.1059
 3977TIP3    H211868   6.050   4.104   0.035 -0.5751  0.1143 -1.3261
 3978TIP3   OH211869   6.904   6.543   2.717 -0.5709 -0.5823  0.3099
 3978TIP3    H111870   6.845   6.492   2.662  0.7571 -0.2775 -1.4158
 3978TIP3    H211871   6.845   6.588   2.778 -2.2874  0.8962 -2.3377
 3979TIP3   OH211872   4.356   6.138   2.905 -0.2889  0.2845  0.4779
 3979TIP3    H111873   4.289   6.127   2.838 -0.9410  0.5703  1.0775
 3979TIP3    H211874   4.420   6.069   2.887  0.1652  1.1001 -1.1733
 3980TIP3   OH211875   6.351   3.148   2.031 -0.2193 -0.0391 -0.1178
 3980TIP3    H111876   6.286   3.082   2.056 -0.8950  0.8255  0.4304
 3980TIP3    H211877   6.401   3.107   1.961  0.5533 -1.8448  1.4637
 3981TIP3   OH211878   2.434   5.062   3.878  0.0646  0.3893 -0.4294
 3981TIP3    H111879   2.421   4.970   3.902 -0.2194  0.8354  1.1689
 3981TIP3    H211880   2.402   5.111   3.954  0.6523  1.7938 -1.0830
 3982TIP3   OH211881   6.311   3.004   2.835 -0.2349 -0.0813  0.4220
 3982TIP3    H111882   6.401   2.975   2.850 -0.0586 -0.4769 -1.2427
 3982TIP3    H211883   6.317   3.099   2.829  0.2192 -0.1578 -0.5069
 3983TIP3   OH211884   6.674   4.050   1.596 -0.1725 -0.3073  0.0548
 3983TIP3    H111885   6.743   4.063   1.662 -0.3660 -0.8449  0.3711
 3983TIP3    H211886   6.665   3.955   1.590  2.2406 -0.4205 -3.2845
 3984TIP3   OH211887   6.433   6.181   2.437 -1.1541  0.2879 -0.0931
 3984TIP3    H111888   6.348   6.200   2.477 -0.6091  1.4168  0.5410
 3984TIP3    H211889   6.496   6.193   2.507 -0.5093 -1.1069 -0.4138
 3985TIP3   OH211890   4.903   7.638   3.502  0.3621 -0.3252 -0.2540
 3985TIP3    H111891   4.832   7.575   3.515  0.2987 -0.6576 -2.0248
 3985TIP3    H211892   4.980   7.597   3.540  0.1303 -1.1022 -0.6162
 3986TIP3   OH211893   4.939   6.345   3.548 -0.0461 -0.1304  0.4700
 3986TIP3    H111894   4.899   6.343   3.461  0.6362  1.8016  0.1027
 3986TIP3    H211895   5.026   6.307   3.536 -0.7007 -1.7852  0.7413
 3987TIP3   OH211896   5.782   4.837   1.579  0.1872  0.1863  0.3107
 3987TIP3    H111897   5.749   4.912   1.530 -2.3933 -1.7317 -1.0308
 3987TIP3    H211898   5.719   4.825   1.650  2.2231  1.0660  2.3246
 3988TIP3   OH211899   7.311   5.458   0.283 -0.2991 -0.1217 -0.0770
 3988TIP3    H111900   7.346   5.428   0.367  1.9456  3.8203  0.4799
 3988TIP3    H211901   7.216   5.456   0.294 -0.0806 -1.8589  1.6987
 3989TIP3   OH211902   4.568   7.122   1.497 -0.1475  0.1688 -0.4416
 3989TIP3    H111903   4.541   7.150   1.584 -1.3898 -2.7110  0.1480
 3989TIP3    H211904   4.648   7.072   1.512 -0.0755  0.1158 -0.9983
 3990TIP3   OH211905   3.890   6.039   1.013  0.2647  0.7976 -0.0930
 3990TIP3    H111906   3.982   6.014   1.005  0.3758  1.3603 -0.5765
 3990TIP3    H211907   3.890   6.109   1.078  0.2613  1.2715 -0.6052
 3991TIP3   OH211908   5.591   4.184   3.306 -0.0440  0.0264  0.1588
 3991TIP3    H111909   5.541   4.159   3.383  0.1957  0.4481  0.4566
 3991TIP3    H211910   5.561   4.273   3.287  1.7280  0.8900  1.2921
 3992TIP3   OH211911   5.716   2.958   2.523  0.4155  0.2084 -0.0997
 3992TIP3    H111912   5.650   2.991   2.462 -0.9212 -1.3764  0.4300
 3992TIP3    H211913   5.696   3.001   2.606  1.9712  2.0434 -0.6558
 3993TIP3   OH211914   2.379   0.164   6.639 -0.0512  0.4276  0.3905
 3993TIP3    H111915   2.328   0.088   6.668  0.9508 -0.3766  0.0673
 3993TIP3    H211916   2.468   0.146   6.669  0.1012  1.7136  0.7488
 3994TIP3   OH211917   0.469   7.833   6.462  0.3513  0.7243 -0.4413
 3994TIP3    H111918   0.474   7.847   6.556 -0.8913 -1.4498 -0.0049
 3994TIP3    H211919   0.559   7.817   6.435  0.3988 -1.4187  0.8854
 3995TIP3   OH211920   5.090   2.688   3.571  0.1857 -0.7024  0.0656
 3995TIP3    H111921   5.129   2.635   3.502  2.8019 -1.1191  1.8030
 3995TIP3    H211922   5.149   2.762   3.582 -1.8101  0.9786 -0.2099
 3996TIP3   OH211923   0.895   3.344   3.086  0.1313  0.1997 -0.0763
 3996TIP3    H111924   0.972   3.401   3.081  0.0306  0.2810 -0.6945
 3996TIP3    H211925   0.925   3.259   3.053  0.2776 -0.1134  0.8316
 3997TIP3   OH211926   5.857   3.611   1.429 -0.0216 -0.5638 -0.6078
 3997TIP3    H111927   5.903   3.614   1.513 -0.7801  1.1874 -0.2314
 3997TIP3    H211928   5.899   3.679   1.376 -0.8416 -0.3286 -0.9632
 3998TIP3   OH211929   6.193   3.253   2.470  0.6189  0.4652  0.1510
 3998TIP3    H111930   6.250   3.180   2.443  0.1391  0.2916 -0.4019
 3998TIP3    H211931   6.238   3.291   2.546  1.5264  0.3888 -0.3313
 3999TIP3   OH211932   5.966   1.329   0.219  0.5004 -0.1087  0.4196
 3999TIP3    H111933   5.884   1.377   0.218  0.7660  0.3903 -2.0970
 3999TIP3    H211934   6.033   1.396   0.236  0.7221  0.2113 -1.5331
 4000TIP3   OH211935   5.839   4.697   1.346 -0.4286  0.0354  0.1170
 4000TIP3    H111936   5.788   4.733   1.274  0.7364  0.1740 -0.6530
 4000TIP3    H211937   5.813   4.749   1.422  0.4389  1.8166 -0.7714
 4001TIP3   OH211938   0.986   6.776   6.610 -0.1165 -0.3474 -0.4253
 4001TIP3    H111939   1.007   6.779   6.703 -0.9847 -0.9853 -0.2144
 4001TIP3    H211940   1.009   6.688   6.582 -0.5210 -0.3814 -0.6620
 4002TIP3   OH211941   0.757   5.809   6.203 -0.4263  0.1269  0.5248
 4002TIP3    H111942   0.688   5.872   6.178 -2.2468 -1.6803  0.8523
 4002TIP3    H211943   0.775   5.829   6.295 -0.4608  0.6599  0.4184
 4003TIP3   OH211944   3.381   7.268   0.437 -0.1225 -0.4105  0.3655
 4003TIP3    H111945   3.403   7.288   0.528 -0.0514  0.4085  0.1756
 4003TIP3    H211946   3.285   7.261   0.437 -0.2581  1.1829  0.2081
 4004TIP3   OH211947   3.196   1.933   6.782  0.4431  0.4546 -0.1902
 4004TIP3    H111948   3.216   2.005   6.841 -0.5022 -0.5279  1.3772
 4004TIP3    H211949   3.216   1.966   6.695 -0.5271  2.8047  0.4528
 4005TIP3   OH211950   3.583   2.578   4.841 -0.1665  0.3977 -0.1660
 4005TIP3    H111951   3.670   2.603   4.809 -0.5040  1.2618 -0.3936
 4005TIP3    H211952   3.601   2.530   4.922  0.5842 -0.3226 -0.7531
 4006TIP3   OH211953   3.315   2.921   4.600  0.2435 -0.2140 -0.3938
 4006TIP3    H111954   3.319   2.922   4.505  1.4543  1.0527 -0.3384
 4006TIP3    H211955   3.300   3.012   4.625  2.0976 -0.1835  0.7081
 4007TIP3   OH211956   3.161   5.482   0.873  0.2578 -0.4695 -1.2441
 4007TIP3    H111957   3.164   5.529   0.956  0.6808 -3.7454  0.6923
 4007TIP3    H211958   3.074   5.502   0.837 -0.3125  0.2064  0.4653
 4008TIP3   OH211959   5.280   6.055   1.487  0.2723 -0.2489 -0.6284
 4008TIP3    H111960   5.236   6.009   1.416 -0.8518  1.5805 -1.1582
 4008TIP3    H211961   5.363   6.008   1.499  0.5433 -0.4970 -3.2514
 4009TIP3   OH211962   7.887   4.036   2.072 -0.1103  0.7781 -0.2424
 4009TIP3    H111963   7.910   3.945   2.052  1.2431  1.5532 -2.3148
 4009TIP3    H211964   7.805   4.051   2.025 -1.4819  0.0198  1.8269
 4010TIP3   OH211965   6.667   3.711   2.100  0.2628 -0.6405 -0.2598
 4010TIP3    H111966   6.673   3.799   2.138  0.3083 -0.7384 -0.0467
 4010TIP3    H211967   6.574   3.691   2.102  0.1988 -0.4128 -0.7185
 4011TIP3   OH211968   3.725   0.119   6.824  0.2840 -0.3409 -0.0651
 4011TIP3    H111969   3.671   0.191   6.792 -0.9132 -1.1691  0.0730
 4011TIP3    H211970   3.783   0.160   6.889 -0.4443  0.4716  0.0750
 4012TIP3   OH211971   5.606   3.084   0.798  0.3358  0.6048  0.2326
 4012TIP3    H111972   5.567   3.069   0.712  0.6148 -1.6402  0.4824
 4012TIP3    H211973   5.561   3.023   0.856  2.7241 -0.5334  0.9447
 4013TIP3   OH211974   8.221   3.350   1.725  0.6440  0.0981 -0.5521
 4013TIP3    H111975   8.253   3.328   1.638 -1.8680 -0.4808 -1.3659
 4013TIP3    H211976   8.189   3.440   1.716 -1.7538 -0.7598 -0.8726
 4014TIP3   OH211977   4.833   3.222   2.826  0.2875  0.1836 -0.5021
 4014TIP3    H111978   4.832   3.307   2.782  0.8534  1.1519  1.2791
 4014TIP3    H211979   4.818   3.158   2.756 -1.1109  1.8027 -1.7157
 4015TIP3   OH211980   6.337   1.538   2.108 -0.9032  0.1943 -0.0997
 4015TIP3    H111981   6.339   1.508   2.017 -0.7663 -0.7134  0.2052
 4015TIP3    H211982   6.363   1.630   2.103  1.3953 -0.4547 -0.7421
 4016TIP3   OH211983   0.057   4.768   1.229  0.1162  0.4280  0.1742
 4016TIP3    H111984   0.012   4.747   1.311  0.4597 -0.0280  0.2493
 4016TIP3    H211985   0.149   4.778   1.253  0.1432  0.7783 -0.0738
 4017TIP3   OH211986   2.981   0.812   5.780 -0.7009 -0.2636  0.7821
 4017TIP3    H111987   3.035   0.874   5.730 -1.4435  0.1697  0.4924
 4017TIP3    H211988   3.043   0.755   5.824 -0.0005  0.5098  0.8117
 4018TIP3   OH211989   7.266   4.709   2.784 -0.5883  0.3725  0.1684
 4018TIP3    H111990   7.306   4.660   2.856 -1.4232 -1.6941 -0.7238
 4018TIP3    H211991   7.202   4.766   2.827  0.6200  0.9574  1.2518
 4019TIP3   OH211992   8.492   2.743   0.058  0.6737  0.6274 -0.1740
 4019TIP3    H111993   8.569   2.728   0.003  1.0049 -0.6069  0.6079
 4019TIP3    H211994   8.429   2.678   0.028 -0.4637  2.3247 -1.5286
 4020TIP3   OH211995   7.314   3.536   1.616 -0.2939 -0.0308  0.0421
 4020TIP3    H111996   7.397   3.524   1.662  0.7321  3.6752 -0.6932
 4020TIP3    H211997   7.248   3.534   1.685  0.7505  0.5027  1.0667
 4021TIP3   OH211998   4.302   1.323   5.492  0.4092  0.0698  0.1461
 4021TIP3    H111999   4.294   1.240   5.539  4.4039 -0.0395  0.7994
 4021TIP3    H212000   4.313   1.389   5.560 -0.6489  0.8970 -0.4550
 4022TIP3   OH212001   8.385   5.275   0.779  0.0118  0.2593 -0.1290
 4022TIP3    H112002   8.452   5.238   0.721 -0.8478  1.4934 -1.9421
 4022TIP3    H212003   8.433   5.299   0.859  1.7929  1.3303 -1.4794
 4023TIP3   OH212004   6.689   2.807   1.906  0.4084  0.3515  0.1850
 4023TIP3    H112005   6.722   2.851   1.827  1.6914 -3.7946 -1.7114
 4023TIP3    H212006   6.753   2.829   1.973  1.2718  0.9835 -0.8224
 4024TIP3   OH212007   7.880   3.467   2.060 -0.2080 -0.3057 -0.4370
 4024TIP3    H112008   7.936   3.537   2.093  0.6956 -0.7512 -1.0098
 4024TIP3    H212009   7.819   3.448   2.132 -0.9823  1.6076 -0.5740
 4025TIP3   OH212010   8.027   3.689  -0.006  0.2339  0.2685  0.2640
 4025TIP3    H112011   7.966   3.751   0.034  0.0756  0.9572 -1.0445
 4025TIP3    H212012   8.112   3.710   0.032 -0.2501 -0.4551  1.8188
 4026TIP3   OH212013   6.637   5.184   0.864 -0.1304  0.0559 -0.8835
 4026TIP3    H112014   6.639   5.253   0.799 -1.5187 -0.0448 -1.0639
 4026TIP3    H212015   6.576   5.119   0.828  0.4063 -0.7939 -0.2774
 4027TIP3   OH212016   0.809   2.743   2.172 -0.0431 -0.3152  0.1724
 4027TIP3    H112017   0.888   2.792   2.193  0.4141 -0.9653  0.0108
 4027TIP3    H212018   0.831   2.695   2.091 -1.6780  1.9433 -1.6911
 4028TIP3   OH212019   7.081   5.296   1.473  0.2762  0.2302  0.0452
 4028TIP3    H112020   7.134   5.227   1.514  1.5977  0.9744 -0.3937
 4028TIP3    H212021   7.073   5.268   1.381 -0.1229  0.0951  0.1229
 4029TIP3   OH212022   6.934   3.788   0.698 -0.0855  0.1546 -0.2803
 4029TIP3    H112023   6.971   3.864   0.744  0.1523  0.8720 -1.6377
 4029TIP3    H212024   6.968   3.795   0.609  0.6330 -2.0263 -0.1966
 4030TIP3   OH212025   0.635   3.523   0.302  0.4051 -0.1443  0.2387
 4030TIP3    H112026   0.575   3.582   0.348  0.8694  0.9007 -0.4715
 4030TIP3    H212027   0.672   3.577   0.232  1.1740 -1.1625 -0.1484
 4031TIP3   OH212028   0.407   3.990   2.238 -0.5332  0.2516  0.0962
 4031TIP3    H112029   0.396   4.061   2.176 -0.6381  1.1622  1.1338
 4031TIP3    H212030   0.323   3.986   2.285 -0.9332 -1.2951 -0.6991
 4032TIP3   OH212031   7.385   4.097   1.655  0.0829 -0.8719  0.4691
 4032TIP3    H112032   7.471   4.121   1.690  0.1210  0.1537 -0.3027
 4032TIP3    H212033   7.404   4.058   1.569 -0.3289  1.1654 -0.5881
 4033TIP3   OH212034   7.080   6.196   2.281  0.1585  0.0453 -0.1040
 4033TIP3    H112035   7.010   6.133   2.268  1.0785 -1.2920  1.2253
 4033TIP3    H212036   7.120   6.207   2.195  0.3555 -1.6406 -0.2357
 4034TIP3   OH212037   8.018   5.211   3.714 -0.3565  0.3647 -0.2981
 4034TIP3    H112038   7.986   5.200   3.624 -1.1521 -1.4324  0.1655
 4034TIP3    H212039   8.109   5.238   3.704 -0.1291 -0.8139 -1.6695
 4035TIP3   OH212040   8.254   3.493   3.108  0.0343  0.1885  0.2789
 4035TIP3    H112041   8.292   3.418   3.155  0.4709  0.8853  1.0546
 4035TIP3    H212042   8.164   3.498   3.140  0.4013  0.8033  1.2161
 4036TIP3   OH212043   0.672   7.448   6.655  0.0788 -0.5471 -0.4474
 4036TIP3    H112044   0.668   7.472   6.563  1.8189 -0.2874 -0.4825
 4036TIP3    H212045   0.738   7.507   6.692  2.2222 -3.2017  0.1352
 4037TIP3   OH212046   3.708   7.538   6.936  0.1495  0.1167 -0.3849
 4037TIP3    H112047   3.640   7.588   6.891 -1.9117  0.7087  3.1943
 4037TIP3    H212048   3.774   7.603   6.959 -1.1353  0.7359  1.6807
 4038TIP3   OH212049   7.351   3.769   0.672 -0.1705 -0.7694  0.4417
 4038TIP3    H112050   7.327   3.860   0.692 -0.3976 -0.6898 -0.1780
 4038TIP3    H212051   7.360   3.727   0.757 -0.5703 -0.2943  0.7210
 4039TIP3   OH212052   5.162   1.208   6.239 -0.4376  0.3769 -0.0365
 4039TIP3    H112053   5.106   1.134   6.215 -0.4646 -0.4188  2.3567
 4039TIP3    H212054   5.248   1.185   6.205 -1.1157  0.6988 -2.0203
 4040TIP3   OH212055   6.177   5.474   1.581 -0.3455  0.2867  0.1902
 4040TIP3    H112056   6.171   5.557   1.627  2.5640  0.7904 -0.2390
 4040TIP3    H212057   6.152   5.494   1.491  1.9871  1.0941 -0.3033
 4041TIP3   OH212058   7.966   2.746   2.804  0.4062 -0.1055  0.1365
 4041TIP3    H112059   7.971   2.841   2.794 -0.7448 -0.0251  0.3407
 4041TIP3    H212060   8.053   2.721   2.836  0.6796  0.8821  0.1764
 4042TIP3   OH212061   7.736   5.410   2.149 -0.8665 -0.2748  0.2644
 4042TIP3    H112062   7.697   5.372   2.069 -1.1727 -1.3019  0.8880
 4042TIP3    H212063   7.806   5.349   2.172 -1.4540 -0.5580  1.3579
 4043TIP3   OH212064   0.083   4.506   1.391 -0.1278 -0.2544 -0.1733
 4043TIP3    H112065   0.028   4.475   1.318  0.0773  0.2108 -0.5312
 4043TIP3    H212066   0.027   4.567   1.439 -0.1807 -0.3720 -0.0858
 4044TIP3   OH212067   3.997   1.081   6.607  0.0673  0.2037  0.0184
 4044TIP3    H112068   3.910   1.047   6.586 -0.6059  1.2168  1.0804
 4044TIP3    H212069   4.021   1.135   6.532  0.2219 -0.8722 -0.7219
 4045TIP3   OH212070   7.129   3.863   2.264  0.1102  0.1334  0.1795
 4045TIP3    H112071   7.064   3.902   2.206  0.8397 -1.3232 -1.6912
 4045TIP3    H212072   7.200   3.926   2.267  0.0887  0.2070 -0.6006
 4046TIP3   OH212073   5.363   5.245   0.065 -0.5348 -0.2112  0.5374
 4046TIP3    H112074   5.404   5.182   0.124  1.4666  1.5535  1.0786
 4046TIP3    H212075   5.339   5.319   0.121  0.8524  1.2350 -0.7161
 4047TIP3   OH212076   7.894   3.249   3.117 -0.1717 -0.2306  0.8424
 4047TIP3    H112077   7.853   3.206   3.042  1.4305  0.7553 -0.6642
 4047TIP3    H212078   7.845   3.331   3.127 -0.1912 -0.2212  0.6744
 4048TIP3   OH212079   0.107   4.629   2.799  0.0687 -0.0655  0.0920
 4048TIP3    H112080   0.159   4.707   2.783 -2.1863  1.0241 -2.3692
 4048TIP3    H212081   0.094   4.627   2.893 -0.4945  2.9871  0.1199
 4049TIP3   OH212082   6.063   3.426   0.993 -0.1141 -0.2165  0.2469
 4049TIP3    H112083   5.974   3.403   0.966  0.5357 -0.7253 -1.5207
 4049TIP3    H212084   6.057   3.517   1.020 -0.8049  0.3494 -1.7328
 4050TIP3   OH212085   6.826   3.671   3.375 -0.2710 -0.0651  0.1520
 4050TIP3    H112086   6.790   3.745   3.326 -2.1491  0.4968  2.2744
 4050TIP3    H212087   6.780   3.674   3.459  2.2151 -1.5261  1.6144
 4051TIP3   OH212088   8.467   3.624   1.718 -0.4739  0.5835  0.0317
 4051TIP3    H112089   8.401   3.575   1.670  1.8506 -2.0329 -0.5907
 4051TIP3    H212090   8.500   3.688   1.654  0.5149 -0.9117 -0.9972
 4052TIP3   OH212091   8.035   4.261   2.164 -0.4031  0.4469  0.1900
 4052TIP3    H112092   8.029   4.184   2.108 -0.5544 -0.4081  1.3683
 4052TIP3    H212093   7.976   4.243   2.237 -2.1687  2.6584 -0.6444
 4053TIP3   OH212094   6.170   5.180   0.769 -0.5082 -0.5281 -0.2871
 4053TIP3    H112095   6.192   5.234   0.693 -1.4640  0.2881 -0.0002
 4053TIP3    H212096   6.254   5.150   0.802 -0.0304 -0.1312 -1.1255
 4054TIP3   OH212097   6.937   1.365   0.913  0.0209  0.0358  0.7315
 4054TIP3    H112098   7.027   1.373   0.881  0.3493 -0.5178  1.4987
 4054TIP3    H212099   6.930   1.431   0.982 -0.0187 -0.2230  0.9771
 4055TIP3   OH212100   5.977   4.797   0.403  0.4730  0.2326 -0.2373
 4055TIP3    H112101   5.952   4.805   0.311  0.0160  0.0765 -0.1311
 4055TIP3    H212102   6.006   4.885   0.428 -0.3670  0.5212 -0.2579
 4056TIP3   OH212103   6.820   4.641   0.477  1.1408 -0.1322  0.4831
 4056TIP3    H112104   6.821   4.737   0.482 -1.0864 -0.0481 -0.3842
 4056TIP3    H212105   6.745   4.620   0.421  1.1266 -2.4207  1.3085
 4057TIP3   OH212106   0.108   2.242   2.300  0.0640 -0.4479 -0.2094
 4057TIP3    H112107   0.115   2.206   2.388  0.8849  0.1067 -0.0372
 4057TIP3    H212108   0.192   2.286   2.285 -0.2152 -0.1971 -1.1139
 4058TIP3   OH212109   8.340   1.832   1.086 -0.3006 -0.1203 -0.3103
 4058TIP3    H112110   8.302   1.828   0.998 -0.4730 -1.6700 -0.1722
 4058TIP3    H212111   8.265   1.836   1.145 -0.2031 -0.5440 -0.1590
 4059TIP3   OH212112   4.486   3.674   2.491  0.1876 -0.2980 -0.1997
 4059TIP3    H112113   4.422   3.744   2.477  0.8391  0.2311 -0.5688
 4059TIP3    H212114   4.467   3.610   2.422  0.6881  0.3294 -0.9318
 4060TIP3   OH212115   7.198   4.709   0.938  0.3484  0.1219 -0.0704
 4060TIP3    H112116   7.177   4.630   0.987  0.2239 -0.2664 -0.7521
 4060TIP3    H212117   7.241   4.678   0.858  1.0207  0.7754  0.0258
 4061TIP3   OH212118   7.713   2.362   1.545 -0.0941 -0.1366 -0.2041
 4061TIP3    H112119   7.752   2.330   1.463 -0.7576 -0.2097 -0.4928
 4061TIP3    H212120   7.624   2.327   1.544 -0.0774 -0.2110  0.5953
 4062TIP3   OH212121   6.255   4.225   1.219  0.7389 -0.5251 -0.2879
 4062TIP3    H112122   6.275   4.293   1.283 -1.0951 -0.4845  0.2756
 4062TIP3    H212123   6.284   4.144   1.259 -2.1669 -0.7506  1.4864
 4063TIP3   OH212124   0.375   2.991   3.800 -0.1633 -0.0121 -0.4070
 4063TIP3    H112125   0.356   2.897   3.803 -2.5758  0.3913 -1.8040
 4063TIP3    H212126   0.302   3.032   3.846  1.4162  1.1510  1.1311
 4064TIP3   OH212127   7.738   3.687   2.554  0.2145 -0.3513  0.8738
 4064TIP3    H112128   7.738   3.782   2.546  0.9618 -0.3930  0.3068
 4064TIP3    H212129   7.661   3.659   2.504  1.8672 -0.2498 -1.8283
 4065TIP3   OH212130   7.128   3.533   1.146  0.4802 -0.1597 -0.4608
 4065TIP3    H112131   7.146   3.482   1.225  0.3618 -0.0266 -0.3472
 4065TIP3    H212132   7.089   3.614   1.179 -2.3675 -1.3293 -0.7998
 4066TIP3   OH212133   4.816   0.896   6.742 -0.2423 -0.0963  0.3773
 4066TIP3    H112134   4.721   0.890   6.729 -0.0666  1.8896 -2.1523
 4066TIP3    H212135   4.842   0.807   6.769 -2.4726 -1.3700 -1.4775
 4067TIP3   OH212136   6.036   4.975   0.152 -0.4291 -0.2592 -0.3857
 4067TIP3    H112137   6.021   5.023   0.234  1.1838  2.2402 -1.4868
 4067TIP3    H212138   5.949   4.953   0.121 -1.1700  1.1547  0.6369
 4068TIP3   OH212139   5.803   4.084   0.869  0.2889  0.1119 -0.3779
 4068TIP3    H112140   5.846   4.101   0.785 -1.0378 -1.4402 -1.3945
 4068TIP3    H212141   5.862   4.123   0.934  1.1091  1.7318 -2.0473
 4069TIP3   OH212142   6.458   4.264   2.991  0.8261 -0.0696 -0.4803
 4069TIP3    H112143   6.419   4.348   3.015  0.3187 -1.0744  2.4472
 4069TIP3    H212144   6.551   4.272   3.015  0.7770 -0.3596 -0.1949
 4070TIP3   OH212145   0.981   4.540   0.270  0.1205  0.0434 -0.6448
 4070TIP3    H112146   1.033   4.607   0.225  1.7852 -0.4937  0.4185
 4070TIP3    H212147   0.928   4.589   0.332  1.7605  0.3669  0.5388
 4071TIP3   OH212148   7.709   3.651   0.628  0.6679  0.6835 -0.4811
 4071TIP3    H112149   7.711   3.710   0.703 -1.1818 -2.2092  1.9410
 4071TIP3    H212150   7.779   3.588   0.644 -0.0926 -0.2866 -0.8797
 4072TIP3   OH212151   8.280   2.869   1.935  0.6331  0.4915 -0.3541
 4072TIP3    H112152   8.349   2.823   1.887 -0.2555  0.3953 -1.5687
 4072TIP3    H212153   8.279   2.957   1.896  0.4983  0.6930  0.1004
 4073TIP3   OH212154   8.511   3.380   3.019  0.3293  0.2437  0.3371
 4073TIP3    H112155   8.419   3.394   3.041  0.2530  0.0407  0.1538
 4073TIP3    H212156   8.522   3.420   2.933  0.2381 -0.3429  0.0457
 4074TIP3   OH212157   5.366   1.367   6.028  0.3305 -0.0831  0.5211
 4074TIP3    H112158   5.363   1.333   5.938  0.9929  1.7229 -0.2134
 4074TIP3    H212159   5.310   1.445   6.026  0.3529 -0.0368  1.6683
 4075TIP3   OH212160   7.151   4.193   1.809 -0.8038 -0.1707  0.3240
 4075TIP3    H112161   7.224   4.161   1.862 -1.1878 -1.7628 -0.0653
 4075TIP3    H212162   7.162   4.150   1.724 -0.7285  1.6257 -0.5999
 4076TIP3   OH212163   6.419   4.163   2.647 -0.4039 -0.6396  0.1292
 4076TIP3    H112164   6.503   4.151   2.691 -0.0057 -3.0326 -1.1866
 4076TIP3    H212165   6.442   4.205   2.564 -0.5624 -0.9413 -0.0655
 4077TIP3   OH212166   7.507   3.953   1.450 -0.5148 -0.5932 -0.5959
 4077TIP3    H112167   7.476   3.863   1.446  0.5801 -0.9802 -0.6076
 4077TIP3    H212168   7.581   3.956   1.388 -0.9562  0.4777 -1.0963
 4078TIP3   OH212169   8.091   3.387   3.537  0.4755 -0.1791  0.3540
 4078TIP3    H112170   8.092   3.398   3.633 -0.6859  0.0293  0.3391
 4078TIP3    H212171   8.184   3.392   3.513  0.6376  1.5725  1.2654
 4079TIP3   OH212172   7.665   3.542   1.351 -0.0013  0.3260 -0.4948
 4079TIP3    H112173   7.666   3.582   1.264  2.2225  0.7179 -0.3191
 4079TIP3    H212174   7.753   3.506   1.361 -0.1872  0.4483  1.6671
 4080TIP3   OH212175   6.135   2.731   1.798 -0.1331 -0.3300 -0.2649
 4080TIP3    H112176   6.106   2.639   1.794 -0.1201 -0.2672 -2.1665
 4080TIP3    H212177   6.149   2.756   1.707  1.3141  1.1228  0.3230
 4081TIP3   OH212178   8.375   4.293   2.476  0.0333 -0.2173  0.0995
 4081TIP3    H112179   8.338   4.241   2.405 -0.5519 -0.4961  0.6069
 4081TIP3    H212180   8.429   4.359   2.432 -1.8005  0.7941 -0.6778
 4082TIP3   OH212181   8.082   3.109   2.301  0.0206 -0.2507  0.8272
 4082TIP3    H112182   8.044   3.046   2.240  0.3279 -0.2176  0.5960
 4082TIP3    H212183   8.176   3.093   2.296  0.0554 -0.1622  1.2016
 4083TIP3   OH212184   7.872   6.664   3.411 -0.5304 -0.1412  0.6505
 4083TIP3    H112185   7.956   6.690   3.449 -0.3651 -1.2178  1.0336
 4083TIP3    H212186   7.894   6.596   3.348 -1.0666 -0.0384  0.3459
 4084TIP3   OH212187  -0.002   4.555   1.715 -0.4672  0.4817  0.4323
 4084TIP3    H112188  -0.021   4.645   1.687  1.6715  0.7439 -0.2938
 4084TIP3    H212189   0.071   4.564   1.776 -0.6227 -0.7052  0.8003
 4085TIP3   OH212190   4.778   0.270   6.203 -0.3398  0.6442  0.0838
 4085TIP3    H112191   4.865   0.240   6.175 -0.3372 -0.0569  0.8228
 4085TIP3    H212192   4.755   0.211   6.275 -0.6606  1.9547  1.0637
 4086TIP3   OH212193   7.802   6.335   1.965  0.3111 -0.9906  0.0183
 4086TIP3    H112194   7.713   6.305   1.986  0.1807 -0.7591 -0.2040
 4086TIP3    H212195   7.809   6.323   1.870  0.5592 -1.1165  0.0515
 4087TIP3   OH212196   6.518   2.401   1.157  0.0496  0.0934 -0.0218
 4087TIP3    H112197   6.542   2.457   1.231  0.3209  0.4730 -0.3974
 4087TIP3    H212198   6.575   2.324   1.167  0.3947  0.3384 -0.0802
 4088TIP3   OH212199   0.512   3.198   3.481 -0.5205  0.4308 -0.2583
 4088TIP3    H112200   0.556   3.145   3.415  0.8127  2.7324 -1.2655
 4088TIP3    H212201   0.469   3.268   3.431  2.4668  3.6014  1.3923
 4089TIP3   OH212202   8.301   2.898   4.042  0.4884  0.5836 -0.3175
 4089TIP3    H112203   8.208   2.913   4.024  0.3304 -0.9598 -0.8065
 4089TIP3    H212204   8.345   2.975   4.004 -0.5773  1.3314 -0.0680
 4090TIP3   OH212205   7.678   2.704   1.888  0.1366 -0.2406 -0.4153
 4090TIP3    H112206   7.689   2.643   1.961 -2.2889  0.0015  0.1912
 4090TIP3    H212207   7.636   2.652   1.820  0.8043 -0.0098 -1.0072
 4091TIP3   OH212208   5.320   5.220   1.605 -0.0972  0.6483 -0.1823
 4091TIP3    H112209   5.306   5.269   1.525  1.2236 -0.0366 -0.8424
 4091TIP3    H212210   5.414   5.228   1.623 -0.1670 -0.1922  0.6344
 4092TIP3   OH212211   5.423   6.552   2.126 -0.6430 -0.6308  0.2844
 4092TIP3    H112212   5.394   6.514   2.043 -0.6355 -0.8057  0.3610
 4092TIP3    H212213   5.346   6.597   2.160 -0.3831  0.2403 -0.2688
 4093TIP3   OH212214   7.947   3.981   2.501  0.2074 -0.5808  0.7042
 4093TIP3    H112215   7.903   4.048   2.448  1.3989 -0.1103  0.3090
 4093TIP3    H212216   7.957   3.906   2.442 -0.7811 -0.9861  1.0347
 4094TIP3   OH212217   7.108   4.990   0.354 -0.8128 -0.4380  0.0668
 4094TIP3    H112218   7.179   4.969   0.293 -1.0098  0.8719 -0.6504
 4094TIP3    H212219   7.029   4.958   0.311 -1.0067  0.8949 -0.6104
 4095TIP3   OH212220   7.356   3.479   0.855  0.1121 -0.0322 -0.2644
 4095TIP3    H112221   7.294   3.406   0.861 -0.8243  0.6908 -0.9663
 4095TIP3    H212222   7.367   3.509   0.945 -0.8029  0.0322 -0.1686
 4096TIP3   OH212223   0.667   3.509   1.298 -0.2460  0.1951  0.0974
 4096TIP3    H112224   0.654   3.422   1.336  0.8257  0.8771  2.0818
 4096TIP3    H212225   0.703   3.561   1.369 -0.3096  2.1209 -1.2464
 4097TIP3   OH212226   8.016   5.368   0.643 -0.0611  0.7682 -0.2199
 4097TIP3    H112227   8.002   5.274   0.652 -0.1066  0.6890 -1.0884
 4097TIP3    H212228   8.083   5.389   0.709  1.9586 -0.3730 -1.8481
 4098TIP3   OH212229   5.172   2.156   2.125 -0.2034  0.2306  0.7100
 4098TIP3    H112230   5.149   2.063   2.133 -3.5496  1.0601  1.4991
 4098TIP3    H212231   5.254   2.165   2.174  0.1561 -2.2893  0.6356
 4099TIP3   OH212232   1.680   6.753   6.850 -0.0554 -0.6507 -0.6561
 4099TIP3    H112233   1.732   6.726   6.774 -0.1323 -1.8010 -0.3137
 4099TIP3    H212234   1.591   6.763   6.816 -0.0280 -0.8453 -0.7822
 4100TIP3   OH212235   8.197   5.263   2.177  0.2164  0.5545 -0.0671
 4100TIP3    H112236   8.270   5.226   2.227  0.2857  0.9861  0.1518
 4100TIP3    H212237   8.207   5.225   2.089  0.5786  0.4455  0.0186
 4101TIP3   OH212238   7.060   4.472   1.131 -0.3842 -0.3795  0.2224
 4101TIP3    H112239   7.076   4.379   1.117 -3.0138 -0.7550 -0.5110
 4101TIP3    H212240   6.986   4.475   1.192 -1.0620  1.2131 -0.6364
 4102TIP3   OH212241   5.044   4.203   0.127 -0.6322 -0.1192 -0.5318
 4102TIP3    H112242   5.056   4.279   0.184 -0.6569 -0.3720 -0.1921
 4102TIP3    H212243   5.014   4.241   0.044  1.4268  0.4299 -1.0530
 4103TIP3   OH212244   0.044   7.864   6.616  0.5508 -0.3390  0.1637
 4103TIP3    H112245   0.052   7.956   6.592  2.6358 -0.1625  1.3674
 4103TIP3    H212246  -0.028   7.830   6.562  0.8522  1.5720 -1.4605
 4104TIP3   OH212247   5.295   2.300   3.186  0.2098  0.1921  0.6380
 4104TIP3    H112248   5.376   2.309   3.136 -0.5589  0.0639 -0.6509
 4104TIP3    H212249   5.324   2.288   3.277  1.6454 -0.2953  0.1292
 4105TIP3   OH212250   5.808   1.085   5.377 -0.2534  0.1682  0.2953
 4105TIP3    H112251   5.804   1.079   5.472 -0.1055 -2.5837  0.1778
 4105TIP3    H212252   5.877   1.023   5.352  0.1742  1.3364 -1.5786
 4106TIP3   OH212253   6.294   2.574   0.494 -0.6028  0.0900 -0.1021
 4106TIP3    H112254   6.353   2.636   0.452  0.5768 -0.4929  0.6649
 4106TIP3    H212255   6.245   2.627   0.557 -2.0292  0.8693 -1.8356
 4107TIP3   OH212256   0.966   4.544   2.935  0.1559 -0.4978  0.1465
 4107TIP3    H112257   1.017   4.573   2.859 -0.0218  0.8694  0.5333
 4107TIP3    H212258   1.032   4.532   3.004  0.1826 -0.6506  0.0949
 4108TIP3   OH212259   8.178   3.282   0.033  0.2446 -0.0068  0.2642
 4108TIP3    H112260   8.090   3.288  -0.004  0.9340 -0.7869 -1.5695
 4108TIP3    H212261   8.180   3.195   0.073 -0.2274  0.5093  1.4245
 4109TIP3   OH212262   1.447   7.916   5.898  0.0584  0.0818 -0.0588
 4109TIP3    H112263   1.396   7.967   5.834  0.2950  1.3191  0.7169
 4109TIP3    H212264   1.391   7.841   5.919 -1.2079  1.1126  0.3361
 4110TIP3   OH212265   6.818   1.205   1.441 -0.3056 -0.4274  0.1413
 4110TIP3    H112266   6.801   1.297   1.423 -0.7080 -0.3055  1.1257
 4110TIP3    H212267   6.737   1.160   1.419 -0.3998 -0.4340  0.5056
 4111TIP3   OH212268   7.200   3.971   2.775  0.3166 -0.5069 -0.0278
 4111TIP3    H112269   7.277   4.008   2.732  0.4082  0.9313  1.3614
 4111TIP3    H212270   7.235   3.916   2.845  0.0816  1.4731  1.6873
 4112TIP3   OH212271   1.355   6.774   0.480 -0.2742  0.4604  0.0285
 4112TIP3    H112272   1.439   6.730   0.474 -0.5665 -0.0146 -0.6034
 4112TIP3    H212273   1.375   6.860   0.519  0.3631 -0.0005  0.7141
 4113TIP3   OH212274   7.495   4.650   0.642 -0.1529  0.5149  0.0579
 4113TIP3    H112275   7.482   4.744   0.626 -0.5148  0.7443  1.5447
 4113TIP3    H212276   7.493   4.610   0.556  0.0578  1.8880 -0.6018
 4114TIP3   OH212277   4.767   4.963   0.755 -0.3485 -0.3453 -0.1189
 4114TIP3    H112278   4.859   4.960   0.731 -0.7640  1.3676 -2.0970
 4114TIP3    H212279   4.759   5.042   0.810 -0.8681  0.3157 -1.1226
 4115TIP3   OH212280   7.909   2.014   0.715  0.5995 -0.1061  0.0518
 4115TIP3    H112281   7.875   1.931   0.681 -1.2793  0.7972 -0.3180
 4115TIP3    H212282   7.942   2.060   0.639  0.8544 -0.1413  0.1398
 4116TIP3   OH212283   7.984   2.467   2.016  0.0953 -0.0849  0.0381
 4116TIP3    H112284   7.938   2.544   2.050  0.9838  0.6843 -0.4737
 4116TIP3    H212285   8.075   2.496   2.006  0.5595 -1.3887  0.4093
 4117TIP3   OH212286   6.888   3.555   2.567  0.2311  0.5230 -0.1673
 4117TIP3    H112287   6.943   3.591   2.637  0.9905 -0.7906 -0.0527
 4117TIP3    H212288   6.945   3.555   2.490 -0.3806  1.3297 -0.6222
 4118TIP3   OH212289   6.706   3.918   2.275  0.0265  0.0238  0.6067
 4118TIP3    H112290   6.686   3.878   2.360 -0.3279 -0.7847  0.1590
 4118TIP3    H212291   6.742   4.004   2.296 -1.1432  0.3042  1.5431
 4119TIP3   OH212292   0.786   3.513   2.532  0.6739 -0.1284 -0.1899
 4119TIP3    H112293   0.694   3.502   2.509  0.8849 -0.3493 -0.9303
 4119TIP3    H212294   0.802   3.447   2.599 -0.0846  0.8866  1.0103
 4120TIP3   OH212295   7.351   3.399   3.536 -0.2154  0.0252  0.0320
 4120TIP3    H112296   7.318   3.342   3.605 -0.1050 -1.4107 -1.0747
 4120TIP3    H212297   7.435   3.429   3.569 -0.8974  0.6502  1.2198
 4121TIP3   OH212298   7.482   2.997   2.633  0.6394 -0.3549  0.4969
 4121TIP3    H112299   7.481   2.952   2.718  0.6894 -2.4246 -0.5548
 4121TIP3    H212300   7.555   2.957   2.586  1.6152  1.9209  0.0487
 4122TIP3   OH212301   7.100   3.604   2.370  0.3075 -0.3650  0.0195
 4122TIP3    H112302   7.097   3.691   2.329 -2.0779  0.2856  1.4710
 4122TIP3    H212303   7.119   3.544   2.298  1.6784  1.3144 -1.0637
 4123TIP3   OH212304   4.656   3.619   2.163 -0.5227 -0.2442 -0.4236
 4123TIP3    H112305   4.742   3.611   2.122 -0.0086 -0.8523  0.7467
 4123TIP3    H212306   4.622   3.703   2.131  0.2514 -0.2706 -1.3458
 4124TIP3   OH212307   7.745   4.547   0.551  0.5147  0.1928  0.5590
 4124TIP3    H112308   7.662   4.563   0.596 -0.5731 -0.6966 -1.0723
 4124TIP3    H212309   7.774   4.462   0.583  0.4445  0.1860  0.6042
 4125TIP3   OH212310   7.711   2.920   2.512  0.3458 -0.0773 -0.0326
 4125TIP3    H112311   7.703   2.911   2.417  2.0217 -0.2704 -0.1629
 4125TIP3    H212312   7.802   2.946   2.526  0.4605 -1.2891  1.6057
 4126TIP3   OH212313   6.641   3.191   0.812 -0.0123  0.3513  0.3528
 4126TIP3    H112314   6.569   3.246   0.843 -1.1708 -0.6951 -0.4463
 4126TIP3    H212315   6.711   3.206   0.875 -0.5428  2.2099  0.5423
 4127TIP3   OH212316   0.308   7.408   6.563  0.3260  0.0527 -0.0799
 4127TIP3    H112317   0.376   7.342   6.574  0.5143  0.1757 -0.5137
 4127TIP3    H212318   0.320   7.468   6.637  2.6806  1.8457 -1.8324
 4128TIP3   OH212319   6.691   3.003   2.191  0.0126  0.3474  0.8263
 4128TIP3    H112320   6.633   3.079   2.189 -0.7769 -0.2522  0.6970
 4128TIP3    H212321   6.766   3.029   2.138 -0.8597  0.5523 -0.3168
 4129TIP3   OH212322   0.830   4.095   3.070 -0.5965 -0.4604  0.4752
 4129TIP3    H112323   0.771   4.097   3.145 -1.5815  0.2854 -0.2949
 4129TIP3    H212324   0.803   4.170   3.017  1.8014  0.5825  0.6704
 4130TIP3   OH212325   7.020   5.068   3.149  0.4266  0.0776  0.2788
 4130TIP3    H112326   7.067   4.985   3.153  2.1730  1.0601  0.6372
 4130TIP3    H212327   7.028   5.095   3.057  0.2233  0.0512  0.2537
 4131TIP3   OH212328   0.799   7.660   6.197 -0.1538  0.3714 -0.2942
 4131TIP3    H112329   0.819   7.669   6.290 -0.9240  0.3660 -0.1212
 4131TIP3    H212330   0.705   7.641   6.195  0.3022 -2.0444 -0.9193
 4132TIP3   OH212331   5.992   2.801   0.457 -0.3353  0.3263  0.6185
 4132TIP3    H112332   6.071   2.804   0.511  0.2477 -0.1911 -0.1975
 4132TIP3    H212333   6.019   2.836   0.372 -0.7774 -0.6219  0.0803
 4133TIP3   OH212334   0.572   3.194   3.757 -0.0260 -0.0005  0.5686
 4133TIP3    H112335   0.492   3.144   3.744  0.0112 -0.2897  1.4318
 4133TIP3    H212336   0.593   3.228   3.670 -2.4361  2.1247  0.7222
 4134TIP3   OH212337   7.631   3.614   2.151 -0.2992  0.3733 -0.0835
 4134TIP3    H112338   7.611   3.698   2.192 -2.1143 -0.7924  1.5371
 4134TIP3    H212339   7.677   3.565   2.219  2.0485  0.5483 -1.5047
 4135TIP3   OH212340   0.721   4.432   2.193  0.5450  0.7084 -0.0910
 4135TIP3    H112341   0.767   4.513   2.216  1.7283  0.1360 -0.4139
 4135TIP3    H212342   0.630   4.449   2.217  1.0327  1.6214  1.1770
 4136TIP3   OH212343   6.063   2.920   3.297 -0.0973 -0.0965 -0.5710
 4136TIP3    H112344   6.072   2.930   3.203 -0.1272 -0.5150 -0.6206
 4136TIP3    H212345   6.075   3.008   3.332  1.5246 -0.1924 -0.8379
 4137TIP3   OH212346   6.867   2.560   1.485 -0.1890 -0.1414 -0.1426
 4137TIP3    H112347   6.871   2.471   1.450 -1.1872 -0.3669  0.2875
 4137TIP3    H212348   6.852   2.548   1.579  1.7742  0.4691  0.2649
 4138TIP3   OH212349   0.239   5.262   3.440 -0.1919 -0.7060 -0.1677
 4138TIP3    H112350   0.286   5.232   3.363 -0.1978  1.2522 -0.9641
 4138TIP3    H212351   0.153   5.287   3.408  0.0273  0.7540  0.3310
 4139TIP3   OH212352   7.969   4.859   2.265 -0.4910  0.4913 -0.1236
 4139TIP3    H112353   7.983   4.896   2.177  1.0668  0.7295  0.2009
 4139TIP3    H212354   8.007   4.772   2.260 -2.6900 -0.4749 -0.4077
 4140TIP3   OH212355   1.268   3.229   4.258 -0.4384  0.4406 -0.1308
 4140TIP3    H112356   1.363   3.226   4.266 -0.3935  0.8419 -0.5593
 4140TIP3    H212357   1.237   3.191   4.340  0.0941 -0.3412 -0.2824
 4141TIP3   OH212358   6.078   1.861   2.665 -0.4413  0.0561  0.6391
 4141TIP3    H112359   5.991   1.901   2.659 -0.0332  1.0664  1.3504
 4141TIP3    H212360   6.098   1.834   2.575 -0.0582  2.8771 -0.1605
 4142TIP3   OH212361   8.236   4.627   0.181 -0.1312 -0.0421 -0.3673
 4142TIP3    H112362   8.179   4.578   0.241  0.8693 -2.7493 -1.5568
 4142TIP3    H212363   8.296   4.674   0.239 -1.7437  0.6331  0.8257
 4143TIP3   OH212364   7.235   4.028   5.591 -0.5607 -0.5480  0.0177
 4143TIP3    H112365   7.301   4.081   5.636  0.4009 -0.1921 -1.7516
 4143TIP3    H212366   7.268   3.938   5.598 -0.9567 -0.6268  0.9262
 4144TIP3   OH212367   4.977   1.884   6.780  0.3636  0.2709 -0.0386
 4144TIP3    H112368   4.934   1.949   6.835 -1.0267  0.8114 -1.6909
 4144TIP3    H212369   5.043   1.934   6.732 -0.7919  0.5250 -1.4040
 4145TIP3   OH212370   1.230   6.836   6.459 -0.1771  0.3420 -0.1805
 4145TIP3    H112371   1.152   6.874   6.499 -0.3517  0.3409 -0.5142
 4145TIP3    H212372   1.198   6.798   6.376  0.1382  0.1604 -0.2200
 4146TIP3   OH212373   4.984   7.365   1.645  0.1908  0.4897 -0.2161
 4146TIP3    H112374   5.071   7.327   1.648 -0.7893 -1.7463  0.6377
 4146TIP3    H212375   4.997   7.456   1.674  2.3907  0.5524 -1.2785
 4147TIP3   OH212376   6.562   2.865   1.289  0.5208  0.1958  0.2256
 4147TIP3    H112377   6.627   2.828   1.229  0.1696 -3.0398  1.7854
 4147TIP3    H212378   6.481   2.868   1.237  0.6042 -1.0091  0.0233
 4148TIP3   OH212379   6.893   5.283   0.956 -0.1513  0.2046 -0.5585
 4148TIP3    H112380   6.930   5.293   0.868 -1.0042 -0.3096 -0.9807
 4148TIP3    H212381   6.809   5.241   0.941 -0.0523 -0.3903  0.5567
 4149TIP3   OH212382   1.441   2.592   2.745 -0.1840  0.4757  0.3046
 4149TIP3    H112383   1.530   2.594   2.781 -0.1648  2.3692  0.2003
 4149TIP3    H212384   1.384   2.608   2.821 -0.2207  2.9474 -0.1994
 4150TIP3   OH212385   0.334   2.916   2.855 -0.3394  0.1262 -0.3570
 4150TIP3    H112386   0.325   2.821   2.847  0.6272  0.0454 -0.6357
 4150TIP3    H212387   0.252   2.951   2.821 -0.8637 -0.6232  0.1109
 4151TIP3   OH212388   6.870   2.262   3.322  0.0847 -0.2763 -0.3270
 4151TIP3    H112389   6.937   2.331   3.323  0.7333 -0.8998 -0.9131
 4151TIP3    H212390   6.833   2.264   3.411  1.1828 -0.2300  0.1339
 4152TIP3   OH212391   6.649   2.820   1.542  0.6205  0.1019  0.2763
 4152TIP3    H112392   6.559   2.801   1.567  0.9501 -2.1689 -0.1824
 4152TIP3    H212393   6.643   2.859   1.455  0.0107  1.0023  0.7198
 4153TIP3   OH212394   7.173   4.485   4.594  0.1945 -0.1704  0.2860
 4153TIP3    H112395   7.171   4.425   4.669  1.3294  0.0515  0.4909
 4153TIP3    H212396   7.265   4.506   4.582  0.4191 -2.5942 -3.1174
 4154TIP3   OH212397   6.108   3.813   2.162  0.2671  0.0793  0.0346
 4154TIP3    H112398   6.097   3.908   2.154  1.9689  0.3261  0.3132
 4154TIP3    H212399   6.185   3.803   2.217  0.3440 -1.4688 -0.3337
 4155TIP3   OH212400   8.215   3.635   2.864 -0.1394 -0.2756 -0.1020
 4155TIP3    H112401   8.218   3.586   2.947 -1.3764 -1.0642 -0.5022
 4155TIP3    H212402   8.159   3.710   2.883  3.0692  1.9239  0.9681
 4156TIP3   OH212403   4.852   3.438   2.664 -0.3773  0.4924  0.1834
 4156TIP3    H112404   4.870   3.530   2.687 -1.2445  0.3095  1.6770
 4156TIP3    H212405   4.765   3.441   2.623 -0.6079  0.2860  0.6529
 4157TIP3   OH212406   8.449   5.731   0.852  0.3668  0.2445 -0.2286
 4157TIP3    H112407   8.365   5.771   0.830 -0.2215 -0.9833 -0.2773
 4157TIP3    H212408   8.514   5.796   0.826 -0.5225  0.8035 -1.0992
 4158TIP3   OH212409   7.727   3.583   3.142  0.0838 -0.2755 -0.3360
 4158TIP3    H112410   7.660   3.521   3.168  0.3665 -0.9744 -1.2433
 4158TIP3    H212411   7.722   3.653   3.207 -0.7389 -0.8816  0.2599
 4159TIP3   OH212412   6.511   3.641   2.864 -0.1024 -0.6602 -0.3512
 4159TIP3    H112413   6.472   3.725   2.838 -1.8753 -2.0794 -2.4112
 4159TIP3    H212414   6.576   3.624   2.795  0.5072 -0.8275  0.2596
 4160TIP3   OH212415   6.906   4.533   3.249 -0.0090 -0.1788  0.4058
 4160TIP3    H112416   6.843   4.586   3.297  1.6765  0.5944  1.8367
 4160TIP3    H212417   6.964   4.498   3.316  1.6457 -0.0864 -0.9340
 4161TIP3   OH212418   7.278   4.904   1.832  0.2810  0.5618  0.3683
 4161TIP3    H112419   7.366   4.906   1.795  0.3243  1.1259  0.4916
 4161TIP3    H212420   7.267   4.815   1.864  0.5053  0.2613 -0.3761
 4162TIP3   OH212421   7.046   6.772   4.160  0.0067 -0.0002 -0.1708
 4162TIP3    H112422   7.066   6.814   4.076  0.1702  2.0819  0.8605
 4162TIP3    H212423   7.067   6.839   4.225  0.8626 -1.9276  1.6009
 4163TIP3   OH212424   5.330   5.785   2.157  0.1433 -0.2886 -0.3466
 4163TIP3    H112425   5.364   5.831   2.234  0.9548  0.1070 -0.9321
 4163TIP3    H212426   5.283   5.852   2.108  2.1403  0.1544 -1.6867
 4164TIP3   OH212427   4.688   5.835   0.827  0.3918  0.1968  0.2771
 4164TIP3    H112428   4.702   5.810   0.735  0.3380  0.5417  0.1738
 4164TIP3    H212429   4.597   5.862   0.830 -0.1420 -1.5931  0.8464
 4165TIP3   OH212430   7.036   3.912   2.554  0.8051  0.2468 -0.4773
 4165TIP3    H112431   7.065   3.833   2.509 -1.4392 -1.2631  0.6786
 4165TIP3    H212432   7.090   3.917   2.633  1.0322 -0.0696 -0.6156
 4166TIP3   OH212433   4.227   2.156   6.854  0.4788 -0.5326 -0.4471
 4166TIP3    H112434   4.265   2.086   6.907  0.8517 -0.1097 -0.1437
 4166TIP3    H212435   4.274   2.235   6.883  0.7246 -0.3054 -1.4448
 4167TIP3   OH212436   0.137   6.669   1.232  0.2728  0.4622 -0.2937
 4167TIP3    H112437   0.170   6.585   1.202 -0.4687  0.1657 -0.2779
 4167TIP3    H212438   0.194   6.692   1.306  1.6100  0.8391 -1.4286
 4168TIP3   OH212439   5.704   2.903   2.249 -0.4580 -0.2065 -0.0750
 4168TIP3    H112440   5.737   2.993   2.253 -1.3609  0.1185  0.2613
 4168TIP3    H212441   5.624   2.909   2.196  0.4110 -1.1100 -1.5286
 4169TIP3   OH212442   7.285   4.081   0.321 -0.3487  0.3972  0.4773
 4169TIP3    H112443   7.312   4.011   0.262  1.0504  0.5812  0.8728
 4169TIP3    H212444   7.335   4.157   0.291 -0.7766  0.8639  0.9502
 4170TIP3   OH212445   4.963   4.930   0.395 -0.0647  0.2256 -0.5314
 4170TIP3    H112446   4.985   4.941   0.302 -0.1320  0.2641 -0.5424
 4170TIP3    H212447   4.902   5.001   0.414  1.0199  1.0573 -0.0994
 4171TIP3   OH212448   7.990   2.990   2.549  0.0369  0.1207  0.5203
 4171TIP3    H112449   8.038   3.039   2.482 -0.3060 -0.8831 -0.4509
 4171TIP3    H212450   8.054   2.927   2.583  0.0265  0.2123  0.7107
 4172TIP3   OH212451   5.070   3.338   1.653 -0.0569  0.0574 -0.6442
 4172TIP3    H112452   5.021   3.294   1.722  1.1061 -0.9920 -0.4531
 4172TIP3    H212453   5.099   3.420   1.692 -0.8285  0.2337 -0.4414
 4173TIP3   OH212454   7.269   4.442   1.679 -0.5566  0.2115  0.4252
 4173TIP3    H112455   7.269   4.483   1.593 -0.8543 -1.0716 -0.1838
 4173TIP3    H212456   7.228   4.357   1.666  0.8054 -0.6413  1.5205
 4174TIP3   OH212457   8.148   1.204   1.188 -0.0674  0.1355  0.0484
 4174TIP3    H112458   8.204   1.128   1.176  1.5158  1.2743  0.0403
 4174TIP3    H212459   8.087   1.201   1.114  1.8174  0.4128 -1.5519
 4175TIP3   OH212460   1.382   6.099   1.831  0.7490 -0.1665  0.3702
 4175TIP3    H112461   1.328   6.177   1.820  2.1558  0.7059 -0.2975
 4175TIP3    H212462   1.350   6.060   1.913 -2.3044 -0.8033 -1.0586
 4176TIP3   OH212463   5.897   3.885   1.902 -0.1105 -0.1484  0.1439
 4176TIP3    H112464   5.961   3.949   1.932 -0.5156 -0.1217  0.9451
 4176TIP3    H212465   5.946   3.803   1.894  0.6542  0.4905 -1.9136
 4177TIP3   OH212466   0.306   3.594   1.545  0.8209  0.0190  0.6830
 4177TIP3    H112467   0.277   3.618   1.633 -0.2626  0.0624  0.3198
 4177TIP3    H212468   0.243   3.529   1.516 -0.0010  1.4608 -0.8397
 4178TIP3   OH212469   8.104   3.454   2.262  0.7655 -0.0393  0.4933
 4178TIP3    H112470   8.015   3.477   2.288  0.2331 -1.5438  0.0769
 4178TIP3    H212471   8.110   3.360   2.280  1.9716 -0.1315 -0.3472
 4179TIP3   OH212472   7.979   2.829   1.632  0.2699 -0.1853 -0.0268
 4179TIP3    H112473   7.975   2.855   1.540 -1.2141  2.0592  0.6284
 4179TIP3    H212474   7.936   2.743   1.635 -1.2280  0.5024 -1.1608
 4180TIP3   OH212475   1.046   6.780   6.875 -0.2938  0.4242 -0.7117
 4180TIP3    H112476   1.056   6.825   6.960  0.8862  1.4645 -1.3773
 4180TIP3    H212477   0.970   6.723   6.887  0.2860  0.0110  1.2907
 4181TIP3   OH212478   1.239   7.534   4.359 -0.0734  0.3711  0.4294
 4181TIP3    H112479   1.275   7.463   4.307 -0.5703  1.0961 -0.9471
 4181TIP3    H212480   1.166   7.495   4.407  0.0565 -0.1969  0.1620
 4182TIP3   OH212481   7.987   4.884   0.749 -0.4826  0.6048  0.1831
 4182TIP3    H112482   8.006   4.791   0.755  1.7086  0.9945 -0.2644
 4182TIP3    H212483   8.072   4.927   0.757 -1.4211  2.5617  0.1038
 4183TIP3   OH212484   1.151   1.866   2.839  0.0233  0.0069  0.2344
 4183TIP3    H112485   1.231   1.915   2.860  0.6483 -0.5994 -0.6646
 4183TIP3    H212486   1.082   1.932   2.837  0.7554  0.7700 -0.3698
 4184TIP3   OH212487   7.147   7.730   3.968  0.8997  0.1767 -0.0355
 4184TIP3    H112488   7.137   7.714   4.062  0.3283  1.4081  0.1228
 4184TIP3    H212489   7.064   7.769   3.941  1.5197  0.9676 -0.8043
 4185TIP3   OH212490   0.388   7.213   1.449 -0.1969  0.1680  0.1928
 4185TIP3    H112491   0.402   7.308   1.444 -0.5209  0.1722 -0.7293
 4185TIP3    H212492   0.322   7.202   1.517  0.3137  0.5552  0.7542
 4186TIP3   OH212493   0.528   4.903   1.490 -0.0623  0.3929  0.0432
 4186TIP3    H112494   0.493   4.903   1.579  0.2314 -0.0582  0.1630
 4186TIP3    H212495   0.506   4.817   1.455 -1.5533  1.1417 -0.8798
 4187TIP3   OH212496   0.259   5.177   1.588 -0.4706  0.0771  0.2097
 4187TIP3    H112497   0.189   5.113   1.598 -0.5973  0.2482  0.4049
 4187TIP3    H212498   0.231   5.232   1.515  0.4022 -1.1012 -1.0646
 4188TIP3   OH212499   1.225   1.386   2.393  0.1843 -0.0759 -0.1549
 4188TIP3    H112500   1.209   1.299   2.356 -0.8267 -0.4929  1.2429
 4188TIP3    H212501   1.308   1.379   2.438  0.6534  0.0038 -0.9925
 4189TIP3   OH212502   1.907   5.670   2.338 -0.4227 -0.0347  0.5576
 4189TIP3    H112503   1.971   5.608   2.372  0.4243  0.3050 -0.3993
 4189TIP3    H212504   1.940   5.693   2.251 -1.7511  0.2669  0.1204
 4190TIP3   OH212505   8.094   5.476   3.994  0.3156 -0.1657 -0.5681
 4190TIP3    H112506   8.178   5.492   3.951  0.5095  1.7648  0.4802
 4190TIP3    H212507   8.110   5.400   4.049  1.3579  0.1249 -0.4506
 4191TIP3   OH212508   1.587   5.739   4.690  0.7219  0.7442  0.2781
 4191TIP3    H112509   1.584   5.830   4.659 -0.1468  0.2151 -1.2296
 4191TIP3    H212510   1.648   5.696   4.631  0.4206  0.1306  0.4150
 4192TIP3   OH212511   8.382   4.105   3.374 -0.4830  0.4081 -0.1589
 4192TIP3    H112512   8.422   4.023   3.344  0.2465  1.2262 -1.4849
 4192TIP3    H212513   8.446   4.141   3.435  0.2946  1.1447 -1.3915
 4193TIP3   OH212514   0.439   4.813   2.493 -0.0149 -0.0549 -0.1468
 4193TIP3    H112515   0.436   4.889   2.552 -0.5552 -0.7303  0.6946
 4193TIP3    H212516   0.512   4.760   2.525  1.3937  0.8673 -1.6986
 4194TIP3   OH212517   1.910   4.951   3.605  0.0076 -0.2424  0.2842
 4194TIP3    H112518   1.921   5.042   3.579 -1.8099 -0.4370 -1.2774
 4194TIP3    H212519   1.995   4.926   3.641  0.6173  1.9663  0.4705
 4195TIP3   OH212520   2.925   3.448   3.681  0.1530 -0.2707 -0.0430
 4195TIP3    H112521   2.884   3.523   3.640  0.9451  0.2247  0.0558
 4195TIP3    H212522   2.949   3.390   3.609  0.9241  0.2814 -0.2358
 4196TIP3   OH212523   5.960   4.240   4.122 -0.0695 -0.1064  0.0593
 4196TIP3    H112524   5.921   4.180   4.059  1.6307 -0.4541 -0.6834
 4196TIP3    H212525   6.030   4.283   4.074  0.0542  0.9845  1.1890
 4197TIP3   OH212526   6.785   5.758   3.157  0.0780 -0.2033 -0.7971
 4197TIP3    H112527   6.760   5.666   3.147 -0.2965 -0.2484  0.4290
 4197TIP3    H212528   6.795   5.770   3.251  1.7392  0.6067 -1.0555
 4198TIP3   OH212529   7.921   7.530   1.760 -0.0553 -0.5354 -0.9610
 4198TIP3    H112530   7.872   7.482   1.694 -0.0661  1.2504 -2.2858
 4198TIP3    H212531   7.906   7.482   1.841 -0.3060 -2.5755 -2.1802
 4199TIP3   OH212532   1.574   5.664   2.845  0.5393  0.5879  0.2335
 4199TIP3    H112533   1.538   5.631   2.763  2.1496  1.7163 -0.9497
 4199TIP3    H212534   1.550   5.599   2.910 -0.9689 -0.2006 -1.0831
 4200TIP3   OH212535   6.315   2.709   1.556 -0.1532  0.0665 -0.1675
 4200TIP3    H112536   6.244   2.772   1.566 -0.4717 -0.1220 -1.2053
 4200TIP3    H212537   6.357   2.706   1.642 -0.8359  0.8522  0.1941
 4201TIP3   OH212538   0.230   2.524   4.546  0.1904  0.2795 -0.2006
 4201TIP3    H112539   0.261   2.434   4.538 -0.6470 -0.1778  1.3193
 4201TIP3    H212540   0.305   2.578   4.522  1.1873 -0.8160  0.3817
 4202TIP3   OH212541   7.842   5.237   2.788 -0.2924 -0.2093 -0.0029
 4202TIP3    H112542   7.767   5.273   2.741 -0.1080 -0.4692 -0.5027
 4202TIP3    H212543   7.908   5.222   2.720  1.3515  2.8792  0.8383
 4203TIP3   OH212544   0.779   5.542   3.177 -0.7918  0.4644 -0.7392
 4203TIP3    H112545   0.718   5.468   3.189  1.4157 -0.9596  2.4468
 4203TIP3    H212546   0.774   5.590   3.260  3.7694 -0.8208  0.4223
 4204TIP3   OH212547   0.465   4.355   4.473  0.4512 -0.0069  0.4322
 4204TIP3    H112548   0.386   4.303   4.458  0.5710  0.3260 -1.4952
 4204TIP3    H212549   0.442   4.443   4.443  1.1713  0.3755  0.9790
 4205TIP3   OH212550   7.599   5.417   2.883 -0.0266 -0.0808  0.3315
 4205TIP3    H112551   7.549   5.354   2.935  0.6112  0.5493  1.7365
 4205TIP3    H212552   7.588   5.388   2.792  0.5912 -2.4308  0.9821
 4206TIP3   OH212553   7.726   3.473   4.425 -0.4569  0.7425  0.0280
 4206TIP3    H112554   7.684   3.523   4.355 -2.8166 -0.7496  0.3405
 4206TIP3    H212555   7.746   3.388   4.386  0.8661  0.8768  0.3644
 4207TIP3   OH212556   0.188   5.530   3.559 -0.3880 -0.0614 -0.2323
 4207TIP3    H112557   0.229   5.454   3.518  1.0879  1.0149 -0.8076
 4207TIP3    H212558   0.174   5.504   3.650 -0.4859 -1.2443 -0.5831
 4208TIP3   OH212559   0.229   5.818   3.168  0.0553 -0.1396 -0.4336
 4208TIP3    H112560   0.183   5.818   3.084  0.5323 -1.9063 -0.7171
 4208TIP3    H212561   0.274   5.733   3.171  2.3086  1.0487  0.3593
 4209TIP3   OH212562   3.260   6.643   1.908  0.1538 -0.3464 -0.2666
 4209TIP3    H112563   3.268   6.645   1.813  2.2217 -1.1253 -0.1433
 4209TIP3    H212564   3.269   6.551   1.931  1.5689  0.0444  0.8079
 4210TIP3   OH212565   7.526   3.851   2.218 -0.1554  0.1391  0.3177
 4210TIP3    H112566   7.456   3.840   2.153 -0.0721  0.0522  0.2431
 4210TIP3    H212567   7.553   3.942   2.209 -0.0027  0.0696  0.0897
 4211TIP3   OH212568   5.925   7.596   0.582  0.8320 -0.3311  0.5167
 4211TIP3    H112569   5.885   7.679   0.556  1.4604 -0.9827 -2.6859
 4211TIP3    H212570   5.853   7.545   0.618 -0.7953 -0.5287 -2.8165
 4212TIP3   OH212571   8.002   3.218   4.361 -0.0631 -0.1317  0.0791
 4212TIP3    H112572   7.995   3.170   4.279 -0.1686  0.1929 -0.1019
 4212TIP3    H212573   8.020   3.151   4.427  0.7715 -0.3053 -0.3199
 4213TIP3   OH212574   0.688   5.878   3.279  0.2575 -0.1100 -0.2617
 4213TIP3    H112575   0.735   5.960   3.262 -0.4177  0.4875  0.6770
 4213TIP3    H212576   0.633   5.865   3.202  0.3732  0.3146 -0.4189
 4214TIP3   OH212577   8.215   4.384   1.904 -0.1963 -0.1907 -0.0497
 4214TIP3    H112578   8.137   4.385   1.848 -0.0403 -0.5368 -0.2785
 4214TIP3    H212579   8.189   4.333   1.980 -0.6717  0.9957  0.5914
 4215TIP3   OH212580   7.672   6.482   2.687  0.3308 -0.0138 -0.3077
 4215TIP3    H112581   7.689   6.414   2.622 -2.1478  0.1072 -1.1375
 4215TIP3    H212582   7.599   6.448   2.739  1.2057  0.6075  1.3512
 4216TIP3   OH212583   0.865   4.592   1.974  0.4884  0.3335 -0.2492
 4216TIP3    H112584   0.869   4.497   1.987 -1.6937  0.3838  0.9910
 4216TIP3    H212585   0.851   4.627   2.061 -3.0383  1.4861 -1.2080
 4217TIP3   OH212586   1.810   6.062   3.380 -0.4250  0.4605  0.5994
 4217TIP3    H112587   1.730   6.109   3.403 -0.2067  1.2591 -0.2327
 4217TIP3    H212588   1.813   6.065   3.284 -0.2313 -0.9606  0.5571
 4218TIP3   OH212589   7.813   5.063   2.439 -0.0778 -0.0162  0.9158
 4218TIP3    H112590   7.736   5.119   2.428  0.5868  0.8225  0.4819
 4218TIP3    H212591   7.872   5.088   2.367  0.6912 -0.4951  1.3697
 4219TIP3   OH212592   7.185   7.505   2.751  0.1865 -0.4162 -0.1719
 4219TIP3    H112593   7.221   7.489   2.838 -1.6513  0.9623  0.8511
 4219TIP3    H212594   7.181   7.418   2.711  1.2579 -1.0353  1.0044
 4220TIP3   OH212595   3.802   0.608   2.368 -0.6282  0.2337  0.1151
 4220TIP3    H112596   3.860   0.569   2.303  0.0017 -1.1973  1.4782
 4220TIP3    H212597   3.858   0.670   2.416 -0.6990  0.2179  0.2187
 4221TIP3   OH212598   5.718   4.799   2.008  0.2722  0.5230  0.1740
 4221TIP3    H112599   5.724   4.731   2.075  0.8495  0.0580 -0.3353
 4221TIP3    H212600   5.652   4.860   2.041  0.9425  0.5928  1.4165
 4222TIP3   OH212601   0.798   5.705   4.626  0.4310  0.3973  0.1281
 4222TIP3    H112602   0.734   5.737   4.562 -1.0196 -0.2002  1.2513
 4222TIP3    H212603   0.800   5.772   4.694  0.8534  0.3201  0.1912
 4223TIP3   OH212604   1.942   6.461   2.033  0.3057  0.1169  0.2220
 4223TIP3    H112605   1.867   6.432   1.982  0.6779 -1.2125  0.4137
 4223TIP3    H212606   2.018   6.441   1.978  0.5677  0.8029  0.3241
 4224TIP3   OH212607   1.405   5.049   2.175  0.0144  0.3190 -0.4166
 4224TIP3    H112608   1.460   5.011   2.107  0.0428 -1.1168  0.3776
 4224TIP3    H212609   1.335   4.985   2.188  0.7803 -0.1400  1.8549
 4225TIP3   OH212610   0.788   5.498   1.952  0.0345  0.0705 -0.0620
 4225TIP3    H112611   0.702   5.539   1.952 -0.9748 -1.9859 -0.3590
 4225TIP3    H212612   0.795   5.457   1.866  0.2585 -1.8754  0.8586
 4226TIP3   OH212613   8.437   3.739   3.015 -0.1861 -0.1589  0.7431
 4226TIP3    H112614   8.527   3.763   2.992 -1.0556  4.4442  1.7181
 4226TIP3    H212615   8.434   3.644   3.004  3.8224 -0.0197 -2.5927
 4227TIP3   OH212616   7.957   5.626   2.681  0.5641  0.1895 -0.1187
 4227TIP3    H112617   7.931   5.609   2.591  0.6950 -1.0299  0.0662
 4227TIP3    H212618   7.875   5.640   2.728  0.4051 -0.7661 -0.1114
 4228TIP3   OH212619   0.173   5.327   4.776 -0.0157  0.3114  0.9309
 4228TIP3    H112620   0.239   5.389   4.807 -0.8795  2.1802 -0.8841
 4228TIP3    H212621   0.095   5.346   4.828  0.0760 -0.1027  1.2260
 4229TIP3   OH212622   7.810   3.707   1.126  0.4109  0.5114 -0.1741
 4229TIP3    H112623   7.845   3.629   1.081  0.5408  1.2396 -1.3625
 4229TIP3    H212624   7.719   3.713   1.097  0.1485  0.3128  0.5975
 4230TIP3   OH212625   7.681   5.836   1.194  0.5720  0.3972  0.0620
 4230TIP3    H112626   7.658   5.893   1.267  0.3503 -1.8962  1.8313
 4230TIP3    H212627   7.605   5.779   1.184  1.6610 -1.0068 -0.2723
 4231TIP3   OH212628   0.489   5.722   4.100 -0.7007  0.4542 -0.0837
 4231TIP3    H112629   0.473   5.660   4.028 -0.8591  1.2477 -0.7435
 4231TIP3    H212630   0.539   5.672   4.164 -0.3437 -0.2020 -0.8604
 4232TIP3   OH212631   5.825   0.520   4.345 -0.0851 -0.2667  0.1541
 4232TIP3    H112632   5.843   0.589   4.281 -1.1685  2.2778  2.4906
 4232TIP3    H212633   5.739   0.486   4.320 -1.0933  1.6191  0.9868
 4233TIP3   OH212634   7.675   4.688   3.565 -0.1638  0.6973 -0.7267
 4233TIP3    H112635   7.736   4.641   3.508 -0.1222  2.0845 -1.8609
 4233TIP3    H212636   7.716   4.774   3.577 -0.3708  0.5651  1.0822
 4234TIP3   OH212637   4.290   1.237   2.771 -0.2395  0.1003  0.5755
 4234TIP3    H112638   4.332   1.153   2.754  0.5299 -0.0178  2.8810
 4234TIP3    H212639   4.197   1.222   2.755  0.0082 -0.9056  0.0595
 4235TIP3   OH212640   0.155   4.014   2.339  0.4813 -0.4762  0.2571
 4235TIP3    H112641   0.136   4.007   2.245 -0.4607 -0.4173  0.4388
 4235TIP3    H212642   0.076   3.980   2.382  1.0237 -0.7851  1.0252
 4236TIP3   OH212643   0.614   7.462   1.877 -0.0011  0.4632  0.8226
 4236TIP3    H112644   0.697   7.509   1.872  1.2008 -1.6902 -0.0052
 4236TIP3    H212645   0.629   7.393   1.942 -1.0270 -0.1762  0.3930
 4237TIP3   OH212646   0.725   5.450   2.493 -0.0661 -0.3110  0.0165
 4237TIP3    H112647   0.780   5.528   2.493 -1.5201  0.7382 -1.9060
 4237TIP3    H212648   0.727   5.420   2.584  3.3032 -0.0530  0.0785
 4238TIP3   OH212649   1.308   1.928   3.878 -0.1067 -0.6817 -0.2758
 4238TIP3    H112650   1.305   1.991   3.806 -0.3546  0.5461  0.7845
 4238TIP3    H212651   1.221   1.935   3.920  0.7644  0.2156  1.4484
 4239TIP3   OH212652   7.204   7.262   2.574  0.1138  0.0057 -0.2751
 4239TIP3    H112653   7.138   7.259   2.504  0.6714 -0.3421 -0.7850
 4239TIP3    H212654   7.206   7.173   2.608 -1.4734  0.5722  1.4276
 4240TIP3   OH212655   7.881   5.847   2.417  0.1370 -0.0307  0.1217
 4240TIP3    H112656   7.945   5.814   2.354  0.7857 -3.0641  2.2211
 4240TIP3    H212657   7.930   5.905   2.474  0.4033 -0.2418  0.1076
 4241TIP3   OH212658   7.355   5.421   3.987 -0.2084  0.2133  0.7230
 4241TIP3    H112659   7.437   5.373   3.979 -1.3162 -1.7560  0.7776
 4241TIP3    H212660   7.381   5.513   3.989  1.9271 -0.3455  0.0530
 4242TIP3   OH212661   0.413   4.266   2.985 -0.1481 -0.5558  0.1554
 4242TIP3    H112662   0.443   4.202   3.050 -1.1011 -0.8889  0.2759
 4242TIP3    H212663   0.408   4.217   2.904 -2.0271 -0.9479  0.4895
 4243TIP3   OH212664   0.642   5.740   2.771  0.1352 -0.2614  0.5881
 4243TIP3    H112665   0.702   5.779   2.834  0.2650 -0.1880  0.4182
 4243TIP3    H212666   0.614   5.658   2.812  1.9666 -1.3344 -0.2503
 4244TIP3   OH212667   1.617   5.369   1.172 -0.6532 -0.1507 -0.4146
 4244TIP3    H112668   1.564   5.359   1.251  0.9169 -2.0962  0.4580
 4244TIP3    H212669   1.559   5.340   1.101 -1.3614 -0.5362  0.3067
 4245TIP3   OH212670   0.217   3.156   4.280  0.4060 -0.4289  0.0049
 4245TIP3    H112671   0.221   3.103   4.201 -0.9391 -0.2056 -0.2177
 4245TIP3    H212672   0.134   3.132   4.321  0.0982  1.0139  0.2406
 4246TIP3   OH212673   1.618   4.768   0.944  0.2968  0.2630 -0.3363
 4246TIP3    H112674   1.685   4.765   1.013  0.0913  1.4020 -0.0782
 4246TIP3    H212675   1.647   4.839   0.887  0.7014 -0.9543 -1.6870
 4247TIP3   OH212676   0.035   8.022   5.224  0.1139  0.2745 -0.6614
 4247TIP3    H112677  -0.059   8.002   5.225  0.1445  0.1787  0.2434
 4247TIP3    H212678   0.073   7.954   5.167 -0.0940 -0.9136  0.5969
 4248TIP3   OH212679   7.819   2.620   4.392  0.0482  0.8337 -0.2242
 4248TIP3    H112680   7.730   2.652   4.401 -0.4802  0.2167 -2.8367
 4248TIP3    H212681   7.858   2.676   4.325  1.3040  0.4102  0.1268
 4249TIP3   OH212682   2.051   7.680   4.632 -0.1755 -0.0628 -0.2255
 4249TIP3    H112683   2.106   7.742   4.680 -0.4695 -0.9238  1.2655
 4249TIP3    H212684   2.099   7.663   4.551  0.5612  1.0651 -0.0378
 4250TIP3   OH212685   7.477   5.369   0.512  0.0370  0.4641 -0.9690
 4250TIP3    H112686   7.535   5.396   0.441  0.6326 -1.0788 -1.0754
 4250TIP3    H212687   7.533   5.319   0.571 -1.0076 -0.3850 -0.6750
 4251TIP3   OH212688   6.756   5.644   2.294 -0.0440  0.2876 -0.6154
 4251TIP3    H112689   6.714   5.561   2.270  0.2586 -0.2032  0.5063
 4251TIP3    H212690   6.686   5.697   2.332  0.3625 -0.6002  1.4255
 4252TIP3   OH212691   7.653   6.607   4.137  0.1960 -0.1817 -0.1056
 4252TIP3    H112692   7.716   6.623   4.067 -2.3806  1.2271 -2.1723
 4252TIP3    H212693   7.685   6.660   4.210  2.4326 -1.0066 -0.4460
 4253TIP3   OH212694   8.299   4.224   3.128  0.2266 -0.1261  0.2201
 4253TIP3    H112695   8.359   4.260   3.062  0.6464 -0.0639  0.6351
 4253TIP3    H212696   8.282   4.134   3.099  0.4994 -0.1338  0.0833
 4254TIP3   OH212697   0.649   7.143   1.598  0.0344  0.4166 -0.1429
 4254TIP3    H112698   0.618   7.135   1.689 -0.6698  0.2995 -0.3921
 4254TIP3    H212699   0.575   7.114   1.545  0.3995  0.6199 -0.7639
 4255TIP3   OH212700   8.022   4.435   1.686  0.1872  0.0920 -0.5859
 4255TIP3    H112701   7.990   4.420   1.775  1.5763  4.1223  0.7014
 4255TIP3    H212702   7.953   4.487   1.644  0.4832  0.0328 -1.1604
 4256TIP3   OH212703   8.171   6.742   3.109  0.3699  0.0756  0.3292
 4256TIP3    H112704   8.135   6.801   3.174  0.2412 -0.4746  0.7598
 4256TIP3    H212705   8.134   6.771   3.026 -1.5632 -0.8800  0.8417
 4257TIP3   OH212706   6.918   5.057   3.505  0.4491  0.4069  0.2096
 4257TIP3    H112707   6.982   4.988   3.520  1.5644  1.4545  0.3878
 4257TIP3    H212708   6.875   5.033   3.422  0.2232 -0.9244  0.7023
 4258TIP3   OH212709   2.130   6.379   4.052 -0.1803  0.4094  0.1686
 4258TIP3    H112710   2.216   6.372   4.094  0.1043 -0.1279 -0.5086
 4258TIP3    H212711   2.143   6.343   3.964 -0.9538  0.8779 -0.1377
 4259TIP3   OH212712   1.042   5.835   2.569  0.3865  0.1704 -0.8297
 4259TIP3    H112713   1.020   5.867   2.657 -3.0515 -0.1871 -1.4876
 4259TIP3    H212714   1.088   5.907   2.527 -0.3656  1.3513  0.3528
 4260TIP3   OH212715   8.319   3.224   2.772  0.1725  0.0514 -0.0225
 4260TIP3    H112716   8.293   3.250   2.683 -0.0619 -0.8856 -0.2298
 4260TIP3    H212717   8.385   3.288   2.797  0.7767 -0.1172 -1.1544
 4261TIP3   OH212718   8.043   5.231   2.565 -0.3047 -0.1596 -0.4611
 4261TIP3    H112719   8.054   5.165   2.497  1.1117  0.9888 -1.3815
 4261TIP3    H212720   8.112   5.295   2.548 -1.8306  1.7314  0.2220
 4262TIP3   OH212721   8.071   4.770   2.609  0.5704  0.0045  0.6814
 4262TIP3    H112722   8.163   4.744   2.605  0.7880  0.8701  0.1615
 4262TIP3    H212723   8.066   4.852   2.561 -0.0930  1.0423  2.4804
 4263TIP3   OH212724   0.978   3.092   2.955  0.3997  0.6007 -0.3085
 4263TIP3    H112725   1.020   3.082   3.041 -0.9718 -0.3005  0.2656
 4263TIP3    H212726   1.044   3.062   2.893  1.2518  0.8673  0.4547
 4264TIP3   OH212727   0.953   2.545   4.571  0.6881 -0.3374 -0.0373
 4264TIP3    H112728   0.907   2.462   4.558  0.0674  0.2871 -1.9520
 4264TIP3    H212729   0.895   2.597   4.627  0.5887 -0.7856  0.2776
 4265TIP3   OH212730   1.932   3.809   4.559 -0.3280 -0.4139 -0.4703
 4265TIP3    H112731   2.015   3.785   4.518  0.1558 -1.1850  0.9228
 4265TIP3    H212732   1.953   3.886   4.613 -0.2935 -1.1365  0.5752
 4266TIP3   OH212733   7.653   6.743   1.168  0.1285  0.0034 -0.3527
 4266TIP3    H112734   7.598   6.790   1.231  0.4768  0.1310 -0.1434
 4266TIP3    H212735   7.600   6.738   1.089  0.7762  2.3912 -0.9841
 4267TIP3   OH212736   1.839   5.192   2.406  0.4066  0.3143  0.6220
 4267TIP3    H112737   1.883   5.112   2.437 -0.6149 -0.7306 -0.5779
 4267TIP3    H212738   1.746   5.173   2.416  0.1428  1.0890 -0.3502
 4268TIP3   OH212739   1.118   6.187   1.816  0.2262  0.7186 -0.2625
 4268TIP3    H112740   1.069   6.218   1.892  0.7586  0.7635  0.0693
 4268TIP3    H212741   1.071   6.110   1.786  1.2623 -0.6326  1.4863
 4269TIP3   OH212742   6.665   6.416   3.066 -0.1838  0.4122 -0.0718
 4269TIP3    H112743   6.683   6.504   3.033 -0.3122  0.8268  0.9495
 4269TIP3    H212744   6.714   6.411   3.149 -0.8019 -0.1998  0.2583
 4270TIP3   OH212745   0.044   5.023   1.641  0.5502 -0.3326 -0.8054
 4270TIP3    H112746   0.064   4.931   1.660  1.3528  0.0270  0.1130
 4270TIP3    H212747   0.005   5.056   1.722 -0.5519 -0.0892 -1.4288
 4271TIP3   OH212748   7.555   5.448   4.758  0.7030 -0.2182  0.1600
 4271TIP3    H112749   7.490   5.519   4.765 -1.1007 -1.7601 -0.4415
 4271TIP3    H212750   7.532   5.388   4.829 -0.0539 -1.9699 -1.5336
 4272TIP3   OH212751   3.301   6.225   1.102 -0.7970  0.3126 -0.1197
 4272TIP3    H112752   3.327   6.316   1.091 -1.8784  0.7395  0.6474
 4272TIP3    H212753   3.229   6.212   1.040 -0.6966  0.0009 -0.1753
 4273TIP3   OH212754   3.562   1.037   1.686 -0.1253 -0.1530 -0.2876
 4273TIP3    H112755   3.521   0.961   1.645 -0.5512 -0.5559  0.8527
 4273TIP3    H212756   3.532   1.112   1.635 -1.9792 -0.4784  0.3120
 4274TIP3   OH212757   5.757   6.933   6.726  0.3196 -0.1023  0.6879
 4274TIP3    H112758   5.682   6.928   6.786 -0.2979  1.3652  0.0662
 4274TIP3    H212759   5.744   6.860   6.666  0.8579 -1.4911  2.2323
 4275TIP3   OH212760   0.701   3.107   2.912 -0.0919 -0.1117 -0.0622
 4275TIP3    H112761   0.648   3.035   2.877 -0.3083 -0.9803  1.9927
 4275TIP3    H212762   0.791   3.079   2.897 -0.1758  0.4820 -1.7979
 4276TIP3   OH212763   0.803   6.819   2.442  0.1274 -0.2590  0.0471
 4276TIP3    H112764   0.817   6.897   2.496 -0.8587  0.7993 -1.1940
 4276TIP3    H212765   0.765   6.853   2.361  0.3602 -1.9646 -0.7899
 4277TIP3   OH212766   7.853   6.738   1.366 -0.2734 -0.1779 -0.9656
 4277TIP3    H112767   7.806   6.674   1.313 -2.2897  1.3008 -1.0048
 4277TIP3    H212768   7.814   6.731   1.453  1.1043 -0.6154 -0.3575
 4278TIP3   OH212769   8.095   3.354   1.159 -0.1173 -0.2834 -0.1542
 4278TIP3    H112770   8.140   3.323   1.081 -0.9265  0.6894 -1.0225
 4278TIP3    H212771   8.011   3.387   1.127 -1.6014 -2.3569  1.4683
 4279TIP3   OH212772   0.639   4.716   5.123  0.2654  0.2941  0.1859
 4279TIP3    H112773   0.647   4.621   5.137  0.4756  0.4560  1.1499
 4279TIP3    H212774   0.662   4.728   5.031 -0.1912 -0.6470 -0.0616
 4280TIP3   OH212775   1.415   3.798   1.161  0.2884  0.2842 -0.1546
 4280TIP3    H112776   1.340   3.754   1.200  0.4425 -2.4066 -2.7287
 4280TIP3    H212777   1.383   3.829   1.076  1.6291  0.5561 -0.5721
 4281TIP3   OH212778   0.958   5.535   2.976  0.1089 -0.4976 -0.4831
 4281TIP3    H112779   0.999   5.618   2.953  0.0051 -0.6853 -1.3663
 4281TIP3    H212780   0.899   5.556   3.049  1.7343 -0.2229  0.7641
 4282TIP3   OH212781   0.210   3.802   2.898  0.5806 -0.7483  0.8899
 4282TIP3    H112782   0.199   3.892   2.928 -2.3518 -0.7557 -0.0362
 4282TIP3    H212783   0.206   3.808   2.802  3.1039 -1.5661  0.6862
 4283TIP3   OH212784   7.040   6.397   3.566  0.5624 -0.1958 -0.0580
 4283TIP3    H112785   7.027   6.389   3.471  4.0227  2.6743 -0.8711
 4283TIP3    H212786   7.009   6.485   3.587  1.7320 -0.0432  1.0793
 4284TIP3   OH212787   7.657   5.529   3.545 -0.4365 -0.1200  0.1006
 4284TIP3    H112788   7.641   5.442   3.581  0.1332 -0.5681 -0.7148
 4284TIP3    H212789   7.573   5.556   3.508 -0.8477  0.0612  1.1567
 4285TIP3   OH212790   4.366   7.863   6.374 -0.6308 -0.7640  0.1732
 4285TIP3    H112791   4.392   7.950   6.405  0.0148 -1.2890  1.1549
 4285TIP3    H212792   4.270   7.865   6.375 -0.6301 -0.7079  2.1145
 4286TIP3   OH212793   6.260   5.219   2.791  0.1628 -0.6474  0.2311
 4286TIP3    H112794   6.183   5.235   2.738  1.4389  1.3438 -1.0864
 4286TIP3    H212795   6.242   5.262   2.874  0.0322  0.2582 -0.2562
 4287TIP3   OH212796   7.876   4.850   1.817  0.1503  0.9108  0.3021
 4287TIP3    H112797   7.842   4.851   1.906 -0.5869  3.5610  0.0323
 4287TIP3    H212798   7.858   4.762   1.785 -2.5009  0.9123  1.6684
 4288TIP3   OH212799   1.792   3.711   3.575 -0.0420  0.2945 -0.2491
 4288TIP3    H112800   1.882   3.678   3.575 -0.3053 -0.4488 -0.8411
 4288TIP3    H212801   1.748   3.661   3.644  0.2236  1.3081  0.6649
 4289TIP3   OH212802   6.477   7.890   3.759 -0.4398 -0.4527  0.4895
 4289TIP3    H112803   6.414   7.844   3.703 -2.0495  1.1636  0.9301
 4289TIP3    H212804   6.455   7.861   3.848  1.6064 -2.4102  0.4209
 4290TIP3   OH212805   6.876   6.672   2.973 -0.6226 -0.5224  0.2417
 4290TIP3    H112806   6.875   6.749   2.916  3.1297 -0.4980  0.0914
 4290TIP3    H212807   6.862   6.708   3.061  0.6727  0.3226  0.1210
 4291TIP3   OH212808   0.455   5.750   5.263  0.0042 -0.7681  0.7412
 4291TIP3    H112809   0.394   5.784   5.329 -0.0346  0.2553  0.1800
 4291TIP3    H212810   0.541   5.776   5.294 -0.1214  0.9821 -0.3560
 4292TIP3   OH212811   0.389   4.036   3.738  0.0509 -0.2191 -0.1450
 4292TIP3    H112812   0.398   3.942   3.747  1.8254 -0.0364  0.1552
 4292TIP3    H212813   0.388   4.070   3.828 -0.8723  0.0422 -0.2395
 4293TIP3   OH212814   0.945   4.583   3.535  0.2051 -0.7979 -0.3273
 4293TIP3    H112815   0.998   4.646   3.486  1.2315 -2.5471 -1.5287
 4293TIP3    H212816   0.878   4.554   3.473  0.0608 -1.2890  0.0505
 4294TIP3   OH212817   7.235   5.504   3.304 -0.0718  0.4534 -0.4030
 4294TIP3    H112818   7.206   5.413   3.310 -0.2937  0.4939 -0.8889
 4294TIP3    H212819   7.156   5.555   3.323 -0.0175  0.5500 -0.4409
 4295TIP3   OH212820   0.321   4.797   2.779  0.4433  0.0685 -0.6638
 4295TIP3    H112821   0.400   4.751   2.808 -0.0961 -0.4641 -0.0140
 4295TIP3    H212822   0.353   4.878   2.739  1.3413 -0.3664 -0.8323
 4296TIP3   OH212823   1.899   4.790   0.692 -0.2322  0.4303 -0.0613
 4296TIP3    H112824   1.864   4.716   0.741 -0.1573  0.2516 -0.2754
 4296TIP3    H212825   1.895   4.762   0.601  0.1777  0.5305 -0.1106
 4297TIP3   OH212826   0.636   5.852   2.519  0.4620  0.2466  0.2695
 4297TIP3    H112827   0.590   5.817   2.595 -1.8902 -3.6355 -2.7470
 4297TIP3    H212828   0.713   5.796   2.510  0.0337 -0.1795 -0.9030
 4298TIP3   OH212829   0.340   3.473   4.840 -0.2793 -0.5966 -1.1646
 4298TIP3    H112830   0.325   3.389   4.883 -1.2044  0.1662  0.0249
 4298TIP3    H212831   0.268   3.482   4.778 -1.7280  0.5249  0.6196
 4299TIP3   OH212832   8.276   7.657   2.420 -0.5649 -0.4793  0.1303
 4299TIP3    H112833   8.295   7.679   2.511 -0.1686  0.7697 -0.2347
 4299TIP3    H212834   8.247   7.567   2.422 -0.7277 -0.4010  1.5196
 4300TIP3   OH212835   2.972   2.372   0.653  0.3634 -0.1918  0.0445
 4300TIP3    H112836   2.990   2.280   0.632  1.5668 -0.2119  1.0609
 4300TIP3    H212837   2.939   2.410   0.572 -0.8646 -1.7018 -0.1929
 4301TIP3   OH212838   2.166   5.663   2.695 -0.7687 -0.4693  0.1389
 4301TIP3    H112839   2.121   5.747   2.693 -1.8384 -1.0531 -0.3889
 4301TIP3    H212840   2.145   5.621   2.612 -0.6183 -1.4568  0.5834
 4302TIP3   OH212841   2.445   5.407   1.459  0.1350 -0.2722  0.0419
 4302TIP3    H112842   2.366   5.370   1.500 -1.2287  2.8687  0.3634
 4302TIP3    H212843   2.419   5.424   1.369  0.5499  0.4969  0.0704
 4303TIP3   OH212844   0.964   6.435   2.247  0.0524  0.1204 -0.0546
 4303TIP3    H112845   0.943   6.507   2.188  1.3229  0.1766 -0.4548
 4303TIP3    H212846   0.913   6.453   2.326 -1.2079  0.3536 -0.9100
 4304TIP3   OH212847   0.143   4.139   1.812  0.0901  0.9318  0.5296
 4304TIP3    H112848   0.220   4.195   1.813  0.1298  0.8856  0.1177
 4304TIP3    H212849   0.075   4.192   1.770  0.1660  0.6200  0.0157
 4305TIP3   OH212850   7.333   4.468   1.184  0.0976  0.1888 -0.6728
 4305TIP3    H112851   7.358   4.428   1.101 -0.4230  2.4182 -1.9331
 4305TIP3    H212852   7.241   4.493   1.172 -0.1361  0.0559  0.7685
 4306TIP3   OH212853   7.930   3.991   1.683  0.1811 -0.0033  0.1672
 4306TIP3    H112854   7.904   4.079   1.657 -1.1965  0.1700  2.0105
 4306TIP3    H212855   7.885   3.933   1.621 -0.4215  0.5223  0.1107
 4307TIP3   OH212856   2.148   6.876   1.970 -0.1614 -0.3347  0.8029
 4307TIP3    H112857   2.144   6.969   1.951  1.6122  0.2983  3.3888
 4307TIP3    H212858   2.201   6.839   1.899  2.2169  1.2133  1.7274
 4308TIP3   OH212859   1.179   6.001   2.395 -0.4441  0.3001 -0.2908
 4308TIP3    H112860   1.163   6.081   2.344  1.0806  0.5918 -0.3516
 4308TIP3    H212861   1.270   6.011   2.425 -1.0112 -0.3132  1.6755
 4309TIP3   OH212862   0.706   3.966   1.607  0.3893  0.1916  0.0184
 4309TIP3    H112863   0.682   3.875   1.587  1.3644  0.0497 -0.5345
 4309TIP3    H212864   0.781   3.958   1.666  0.3846  0.6379  0.0838
 4310TIP3   OH212865   1.829   2.855   3.218  0.1270  0.0218  0.2617
 4310TIP3    H112866   1.852   2.802   3.143 -0.5635 -0.3369  0.2966
 4310TIP3    H212867   1.831   2.945   3.185 -0.7379 -0.1729 -0.3419
 4311TIP3   OH212868   0.270   5.363   2.041 -0.2442  0.1056  0.6069
 4311TIP3    H112869   0.206   5.318   2.096  1.1536 -1.5146  0.9289
 4311TIP3    H212870   0.220   5.435   2.002 -2.5053 -1.6217  0.1553
 4312TIP3   OH212871   2.838   3.637   0.068  0.1182 -0.0458 -0.1764
 4312TIP3    H112872   2.758   3.636   0.120  0.7550 -0.3779  0.8301
 4312TIP3    H212873   2.809   3.635  -0.023 -0.9643 -3.1568  0.1944
 4313TIP3   OH212874   7.939   4.690   1.462  0.0334 -0.0801  0.4630
 4313TIP3    H112875   7.980   4.766   1.502 -2.2116  0.3315  2.0654
 4313TIP3    H212876   7.868   4.725   1.408 -0.6500 -0.9759  0.7494
 4314TIP3   OH212877   2.388   5.011   2.545 -0.6430  0.0340 -0.4116
 4314TIP3    H112878   2.453   4.960   2.496 -0.1170 -0.0078  0.3236
 4314TIP3    H212879   2.304   4.980   2.513 -0.3343 -1.3915  0.1147
 4315TIP3   OH212880   2.124   3.808   2.344 -0.0779  0.2936  0.2606
 4315TIP3    H112881   2.048   3.866   2.334 -2.3454 -2.7399 -0.9795
 4315TIP3    H212882   2.123   3.782   2.436  0.5368  1.6424  0.6589
 4316TIP3   OH212883   5.876   1.866   6.709 -0.1820  0.9503 -0.1345
 4316TIP3    H112884   5.794   1.914   6.701  0.2470  1.7975  0.5255
 4316TIP3    H212885   5.915   1.898   6.790 -0.0332 -0.7267  0.4724
 4317TIP3   OH212886   8.373   7.595   2.161 -0.3028 -0.6744 -0.0805
 4317TIP3    H112887   8.455   7.641   2.148 -1.7320  1.5732 -1.5244
 4317TIP3    H212888   8.353   7.608   2.254 -0.2589  0.9224 -0.2784
 4318TIP3   OH212889   2.081   6.229   3.004  0.7041 -0.1972 -0.7394
 4318TIP3    H112890   2.029   6.274   3.070 -1.2051  0.3474 -2.5718
 4318TIP3    H212891   2.122   6.300   2.954  1.5178 -0.5919 -0.6387
 4319TIP3   OH212892   0.227   7.355   1.647 -0.4838 -0.0996 -0.0322
 4319TIP3    H112893   0.285   7.428   1.625 -0.0236 -0.1416  0.9827
 4319TIP3    H212894   0.175   7.387   1.721 -0.9465 -0.4700 -0.1929
 4320TIP3   OH212895   8.010   4.427   3.047  0.3982 -0.1974 -0.2556
 4320TIP3    H112896   8.041   4.466   2.966  0.8238  0.8869  0.4259
 4320TIP3    H212897   8.089   4.410   3.098  0.1464 -0.9789 -0.1040
 4321TIP3   OH212898   0.951   4.298   3.577  0.0634 -0.0111 -0.2394
 4321TIP3    H112899   1.013   4.252   3.520  2.1084  0.5683  1.4418
 4321TIP3    H212900   0.977   4.390   3.571 -1.3095  0.3783 -0.3112
 4322TIP3   OH212901   2.593   5.986   2.819 -0.2028 -0.3013  0.1409
 4322TIP3    H112902   2.566   5.896   2.798  1.7919 -1.6154  2.8813
 4322TIP3    H212903   2.681   5.994   2.784 -0.5927  0.8456 -0.6298
 4323TIP3   OH212904   0.743   6.495   1.624 -0.5581 -0.0942 -0.1657
 4323TIP3    H112905   0.723   6.419   1.679 -0.8283 -0.1619 -0.3542
 4323TIP3    H212906   0.690   6.566   1.661 -1.2148 -0.2916 -0.7082
 4324TIP3   OH212907   2.768   3.669   0.932 -0.0824  0.0185  0.1093
 4324TIP3    H112908   2.824   3.594   0.951  0.1380  0.0367 -0.4537
 4324TIP3    H212909   2.778   3.727   1.008  0.8048  0.1047 -0.0662
 4325TIP3   OH212910   7.275   1.855   6.838  0.4259 -0.4044  0.2938
 4325TIP3    H112911   7.360   1.892   6.813 -0.5884  2.9207  1.4412
 4325TIP3    H212912   7.216   1.883   6.768 -0.3492  0.0780  1.1351
 4326TIP3   OH212913   3.632   6.696   1.223 -0.4901  0.3051 -0.0821
 4326TIP3    H112914   3.693   6.634   1.183 -0.7595  0.0386 -0.0827
 4326TIP3    H212915   3.565   6.710   1.156 -0.9414 -0.1401  0.2763
 4327TIP3   OH212916   0.669   6.494   4.334  0.0457 -0.4991 -0.0285
 4327TIP3    H112917   0.707   6.580   4.321  1.5716 -1.3988 -1.8757
 4327TIP3    H212918   0.710   6.439   4.266 -1.3029 -2.5306  0.7342
 4328TIP3   OH212919   0.585   4.990   3.106 -0.3875 -0.2158  0.2095
 4328TIP3    H112920   0.631   5.055   3.052 -1.5527 -0.7202 -1.4050
 4328TIP3    H212921   0.628   4.907   3.086 -1.3596 -0.5363 -0.5826
 4329TIP3   OH212922   1.842   3.957   3.399  0.1739  0.7205  0.9395
 4329TIP3    H112923   1.890   3.894   3.345 -2.6557  1.0946 -2.1092
 4329TIP3    H212924   1.815   3.907   3.476  0.3836 -1.0451 -0.1200
 4330TIP3   OH212925   0.605   6.977   2.278 -0.1666  0.5297 -0.0453
 4330TIP3    H112926   0.560   7.052   2.240  0.7173  1.2137  0.2449
 4330TIP3    H212927   0.564   6.964   2.363 -0.0360  0.9407  0.0792
 4331TIP3   OH212928   2.583   4.207   1.472  0.1711 -0.2913 -0.0291
 4331TIP3    H112929   2.666   4.214   1.425  0.0856 -0.7938 -0.2456
 4331TIP3    H212930   2.567   4.114   1.479  0.3510 -0.2328  1.2944
 4332TIP3   OH212931   1.226   5.614   3.498 -0.0608  0.7537 -0.3385
 4332TIP3    H112932   1.136   5.636   3.475 -0.2709  0.0964 -0.1457
 4332TIP3    H212933   1.241   5.528   3.458  1.1466  1.7573 -2.0853
 4333TIP3   OH212934   7.290   5.062   1.484 -0.1353  0.1485  0.4039
 4333TIP3    H112935   7.371   5.015   1.505  0.8327  1.4661 -0.2922
 4333TIP3    H212936   7.297   5.081   1.391 -2.0137 -1.1392 -0.0288
 4334TIP3   OH212937   1.330   5.766   0.068 -0.2469  0.1439  0.4507
 4334TIP3    H112938   1.374   5.735   0.147  0.0190  0.7912  0.5594
 4334TIP3    H212939   1.333   5.691   0.008  0.9020  0.1448  0.4964
 4335TIP3   OH212940   8.076   3.781   3.144 -0.4576 -0.3774 -0.0463
 4335TIP3    H112941   8.006   3.757   3.204 -0.3840 -0.9635 -0.1933
 4335TIP3    H212942   8.157   3.762   3.192 -0.3559  2.9214  1.2031
 4336TIP3   OH212943   1.815   6.273   2.219  0.2029 -0.3902  0.3991
 4336TIP3    H112944   1.788   6.348   2.273  1.5035  0.3507  0.0493
 4336TIP3    H212945   1.830   6.311   2.133 -0.9272 -1.4059 -0.2520
 4337TIP3   OH212946   0.002   6.571   2.268 -0.1778 -0.5439  0.3883
 4337TIP3    H112947   0.087   6.610   2.288 -0.6929 -0.1021  1.8302
 4337TIP3    H212948  -0.012   6.508   2.339 -2.1610  1.1847  1.6137
 4338TIP3   OH212949   7.659   1.438   6.574  0.6072 -0.3648 -0.4378
 4338TIP3    H112950   7.702   1.483   6.646  2.0231  3.3138 -3.3890
 4338TIP3    H212951   7.731   1.411   6.517 -0.5759 -1.3194 -1.4996
 4339TIP3   OH212952   1.867   3.378   4.427  0.0108  0.2362 -0.2106
 4339TIP3    H112953   1.953   3.397   4.463 -0.1260  1.5089 -0.5074
 4339TIP3    H212954   1.824   3.325   4.493  1.0559 -0.4789 -0.1033
 4340TIP3   OH212955   3.510   6.707   1.481 -0.4673 -1.0019 -0.1314
 4340TIP3    H112956   3.486   6.799   1.477 -3.6271 -1.7686 -0.1830
 4340TIP3    H212957   3.548   6.688   1.396 -2.2416 -0.3479 -1.1020
 4341TIP3   OH212958   6.681   6.035   0.465  0.3696 -0.3883 -0.2403
 4341TIP3    H112959   6.694   5.978   0.389 -2.6138  0.5662 -1.5269
 4341TIP3    H212960   6.602   6.085   0.445  2.2031  3.3809  1.3523
 4342TIP3   OH212961   1.888   4.287   0.690 -0.0705 -0.0132 -0.3607
 4342TIP3    H112962   1.982   4.270   0.684  0.0467  0.5371 -0.1164
 4342TIP3    H212963   1.853   4.213   0.739  0.2953 -0.0078 -0.0924
 4343TIP3   OH212964   0.783   6.136   1.588  0.9510  0.2329 -0.7361
 4343TIP3    H112965   0.713   6.132   1.523 -0.4314 -1.3307  0.8128
 4343TIP3    H212966   0.743   6.178   1.664  2.3554  1.3952 -0.6063
 4344TIP3   OH212967   0.898   4.681   0.038  0.8236  0.3140  0.1699
 4344TIP3    H112968   0.883   4.624   0.113  0.1248 -0.0555 -0.2509
 4344TIP3    H212969   0.817   4.677  -0.012  1.9339 -0.9111 -1.5911
 4345TIP3   OH212970   1.155   6.219   2.252  0.0362  0.2601 -0.4913
 4345TIP3    H112971   1.131   6.298   2.302 -0.0575 -0.0020 -0.1210
 4345TIP3    H212972   1.115   6.232   2.166  1.7050  1.5565 -1.0997
 4346TIP3   OH212973   8.305   7.269   3.826  0.1331  0.2745 -0.5008
 4346TIP3    H112974   8.255   7.350   3.832 -2.1226 -1.1664  1.2717
 4346TIP3    H212975   8.371   7.277   3.895 -1.6067 -0.3491  1.2792
 4347TIP3   OH212976   0.327   5.139   2.260 -0.6961 -0.3914 -0.0926
 4347TIP3    H112977   0.400   5.198   2.240 -1.3763  0.1997 -0.9010
 4347TIP3    H212978   0.264   5.195   2.307 -0.4127 -1.0194  1.0306
 4348TIP3   OH212979   2.536   4.227   2.491  0.5596  0.0357 -0.2344
 4348TIP3    H112980   2.535   4.314   2.531  0.0876  0.0764 -0.3303
 4348TIP3    H212981   2.444   4.203   2.483  0.7065 -1.1516  1.2936
 4349TIP3   OH212982   2.659   5.110   2.415  0.2153  0.3548 -0.1734
 4349TIP3    H112983   2.602   5.036   2.390  0.1045 -0.5375  2.5118
 4349TIP3    H212984   2.673   5.098   2.509  4.1415  1.0801 -0.5906
 4350TIP3   OH212985   0.923   5.231   0.240  0.2657  0.1299 -0.4542
 4350TIP3    H112986   1.001   5.262   0.195 -0.6082  0.6712 -1.6354
 4350TIP3    H212987   0.939   5.138   0.255  1.0730  0.2072 -0.8167
 4351TIP3   OH212988   0.856   5.751   1.808  0.6169 -0.0183  0.3562
 4351TIP3    H112989   0.849   5.749   1.904 -0.6302  0.1922  0.2777
 4351TIP3    H212990   0.809   5.673   1.779 -0.6757  0.9343 -0.1652
 4352TIP3   OH212991   8.523   5.370   3.307 -0.0685  0.3208  0.2273
 4352TIP3    H112992   8.474   5.442   3.346  1.2666  1.5648 -0.3971
 4352TIP3    H212993   8.503   5.374   3.214  1.8220  1.3130 -0.1490
 4353TIP3   OH212994   1.609   4.734   2.944 -0.1560 -0.1470  0.1553
 4353TIP3    H112995   1.547   4.661   2.932 -0.5152  0.0787  0.6084
 4353TIP3    H212996   1.630   4.732   3.037 -0.1534  0.3201  0.1655
 4354TIP3   OH212997   0.669   5.139   1.645  0.6702 -0.0431  0.0302
 4354TIP3    H112998   0.626   5.068   1.692  0.9513 -0.1255  0.1649
 4354TIP3    H212999   0.620   5.218   1.670  0.1348 -0.2382 -0.4028
 4355TIP3   OH213000   2.493   4.573   3.618  0.1015  0.5439  0.3972
 4355TIP3    H113001   2.568   4.608   3.666  1.4396 -0.8168 -0.6583
 4355TIP3    H213002   2.473   4.490   3.661  2.8135 -1.8663 -2.7525
 4356TIP3   OH213003   2.565   6.859   2.687 -0.2457 -0.0009  0.7063
 4356TIP3    H113004   2.611   6.932   2.644 -1.8443  0.2125 -0.6845
 4356TIP3    H213005   2.609   6.781   2.655  0.6918  0.2926  1.2558
 4357TIP3   OH213006   2.622   5.535   3.997 -0.4662 -0.4534  0.4079
 4357TIP3    H113007   2.708   5.557   4.032 -0.8398 -0.2007  1.1880
 4357TIP3    H213008   2.612   5.590   3.920 -0.0304 -0.3121  0.4525
 4358TIP3   OH213009   2.413   2.966   0.268  0.2158 -0.4081  0.0031
 4358TIP3    H113010   2.379   2.912   0.340 -2.4620  2.8800  1.3180
 4358TIP3    H213011   2.368   2.934   0.191 -1.7511  0.2283  0.8596
 4359TIP3   OH213012   1.882   4.123   2.986  0.5757  0.4319  0.3833
 4359TIP3    H113013   1.875   4.037   2.946  0.2471  0.4334  0.4399
 4359TIP3    H213014   1.853   4.184   2.918 -0.1368  0.4223  0.6781
 4360TIP3   OH213015   1.034   3.649   4.164 -0.0311 -0.2538  0.1321
 4360TIP3    H113016   0.975   3.574   4.159  0.3279 -0.5030 -0.4651
 4360TIP3    H213017   1.017   3.699   4.084 -1.2077  1.0201  1.1488
 4361TIP3   OH213018   1.344   5.956   0.369 -0.4712 -0.0867 -0.3624
 4361TIP3    H113019   1.347   5.862   0.352 -0.8578 -0.4512  1.5369
 4361TIP3    H213020   1.419   5.973   0.427 -1.0466  0.5773  0.2008
 4362TIP3   OH213021   1.602   3.894   2.352  0.4614  0.1852 -0.0220
 4362TIP3    H113022   1.563   3.974   2.318 -2.1472 -1.3583 -0.7827
 4362TIP3    H213023   1.534   3.857   2.409  1.5000 -1.6864  0.0230
 4363TIP3   OH213024   2.944   6.914   4.247  0.1375  0.1056 -0.7064
 4363TIP3    H113025   2.881   6.844   4.234  0.5162 -0.4919  0.6137
 4363TIP3    H213026   2.923   6.951   4.333  0.8236  0.6898 -0.7776
 4364TIP3   OH213027   0.613   5.986   1.370 -0.5873 -0.1282 -0.0881
 4364TIP3    H113028   0.541   6.045   1.345  1.4934  2.1706 -0.8016
 4364TIP3    H213029   0.679   5.998   1.302  1.2359 -0.8439  1.5226
 4365TIP3   OH213030   0.714   7.142   3.204  0.1393  0.0674 -0.0697
 4365TIP3    H113031   0.742   7.068   3.258 -0.3662 -0.0761 -0.0011
 4365TIP3    H213032   0.781   7.209   3.219  0.1339 -0.0627  0.5436
 4366TIP3   OH213033   0.151   1.421   6.054 -0.1893  0.4524  0.5388
 4366TIP3    H113034   0.124   1.353   6.115 -0.4328 -0.4829 -0.5937
 4366TIP3    H213035   0.070   1.464   6.027 -0.3937 -1.0440 -1.3270
 4367TIP3   OH213036   1.090   4.077   3.449 -0.0996  0.4784  0.1457
 4367TIP3    H113037   1.166   4.082   3.507 -1.3477  0.7054  1.7918
 4367TIP3    H213038   1.080   3.984   3.429 -1.3019  0.0445  2.5588
 4368TIP3   OH213039   7.806   4.452   0.821 -0.0468 -0.4071 -0.1177
 4368TIP3    H113040   7.883   4.506   0.804  0.9941 -1.9772 -0.4989
 4368TIP3    H213041   7.778   4.478   0.909  1.6149 -0.6202  0.5022
 4369TIP3   OH213042   1.916   4.535   4.193  0.6098  0.2137  0.5149
 4369TIP3    H113043   1.975   4.593   4.241 -0.7417  0.9941  1.2631
 4369TIP3    H213044   1.892   4.467   4.256 -0.6774  0.8917  0.7721
 4370TIP3   OH213045   0.933   4.862   2.604  0.0151 -0.5508  0.8072
 4370TIP3    H113046   0.891   4.873   2.518 -0.7842  0.4083  1.3213
 4370TIP3    H213047   0.934   4.949   2.642  1.8348 -0.6946  1.1099
 4371TIP3   OH213048   0.085   4.036   2.985 -0.1206  0.0768 -0.2409
 4371TIP3    H113049   0.001   4.030   2.940 -0.2954  0.2499  0.0600
 4371TIP3    H213050   0.123   4.119   2.956 -0.4484  0.4136  0.3029
 4372TIP3   OH213051   1.054   3.379   1.182  0.4703  0.3789 -0.3469
 4372TIP3    H113052   0.969   3.380   1.139 -0.1355  0.8777  0.8165
 4372TIP3    H213053   1.034   3.359   1.274  1.6708 -0.1756 -0.1990
 4373TIP3   OH213054   1.646   3.266   0.300  0.5552 -0.3322 -0.1211
 4373TIP3    H113055   1.593   3.194   0.333  0.1550 -0.3294 -0.7494
 4373TIP3    H213056   1.614   3.344   0.346  0.3273 -0.4034 -0.1610
 4374TIP3   OH213057   1.464   5.313   2.878 -0.3267 -0.0595  0.3182
 4374TIP3    H113058   1.554   5.334   2.855 -0.0156 -1.4697  0.2305
 4374TIP3    H213059   1.441   5.377   2.946  1.2854 -0.7559  1.5415
 4375TIP3   OH213060   3.739   6.187   1.986  0.4851 -0.7230 -0.1200
 4375TIP3    H113061   3.751   6.281   1.978 -3.2960 -0.1441 -0.1229
 4375TIP3    H213062   3.813   6.149   1.939  1.4792  2.2573 -1.0678
 4376TIP3   OH213063   1.863   4.981   3.020  0.1539 -0.0397 -0.0795
 4376TIP3    H113064   1.850   5.053   3.081 -2.4353 -0.8467  0.3753
 4376TIP3    H213065   1.957   4.964   3.022  0.4715  1.8066  1.5317
 4377TIP3   OH213066   1.780   6.212   1.553 -0.0354  0.0311 -0.7063
 4377TIP3    H113067   1.737   6.188   1.635  0.0588 -3.1450 -1.5011
 4377TIP3    H213068   1.736   6.292   1.524  0.7907  1.9471  3.0144
 4378TIP3   OH213069   3.086   3.464   0.758 -0.0808 -0.3053 -0.1771
 4378TIP3    H113070   3.164   3.437   0.709  0.3059 -1.0046  0.8174
 4378TIP3    H213071   3.036   3.516   0.695  1.2138  0.2150 -0.8132
 4379TIP3   OH213072   2.189   6.097   2.005 -0.2448  0.6028 -0.3210
 4379TIP3    H113073   2.140   6.020   1.977 -1.0119  1.3035 -0.9262
 4379TIP3    H213074   2.173   6.103   2.099 -0.9919  0.5921 -0.4463
 4380TIP3   OH213075   1.762   6.466   2.804 -0.4524  0.3232 -0.6817
 4380TIP3    H113076   1.799   6.513   2.878 -0.2245  0.4800 -0.8915
 4380TIP3    H213077   1.786   6.374   2.819 -0.2890  0.3738 -0.6282
 4381TIP3   OH213078   2.791   4.460   2.901  0.1117  0.0531  0.2491
 4381TIP3    H113079   2.701   4.428   2.908  0.1071  0.2823  1.3340
 4381TIP3    H213080   2.822   4.463   2.991  1.2673 -0.1899 -0.1352
 4382TIP3   OH213081   5.353   7.615   6.588  0.3757 -0.0953  0.1030
 4382TIP3    H113082   5.340   7.521   6.600 -2.0711  0.2168  0.3098
 4382TIP3    H213083   5.414   7.640   6.657  0.3898 -1.3862  0.5742
 4383TIP3   OH213084   0.495   4.082   3.194  0.0920  0.6881 -0.0497
 4383TIP3    H113085   0.531   4.138   3.263  0.5759 -2.0167  1.9369
 4383TIP3    H213086   0.556   4.009   3.188 -1.8061 -0.8691 -0.9027
 4384TIP3   OH213087   8.384   5.066   2.231  0.1279 -0.2661 -0.1140
 4384TIP3    H113088   8.444   5.110   2.170  0.5192  0.2421  0.6190
 4384TIP3    H213089   8.438   4.997   2.270 -0.1066 -0.5546 -0.3016
 4385TIP3   OH213090   3.845   5.841   2.777 -0.1252 -0.0370  0.6588
 4385TIP3    H113091   3.833   5.919   2.831  1.0987  0.8840 -0.3660
 4385TIP3    H213092   3.918   5.795   2.819  0.2257  0.2097  0.3204
 4386TIP3   OH213093   8.377   6.963   2.744 -0.5766  0.1437 -0.0529
 4386TIP3    H113094   8.393   6.947   2.651 -0.1548 -1.5644  0.3015
 4386TIP3    H213095   8.398   7.056   2.756  1.1546 -0.0627 -1.2932
 4387TIP3   OH213096   0.944   4.146   4.190  0.2061  0.5117  0.3780
 4387TIP3    H113097   0.985   4.231   4.201 -0.9655  1.2427 -0.7390
 4387TIP3    H213098   0.982   4.111   4.110  0.2258  0.2504  0.4998
 4388TIP3   OH213099   2.582   5.780   2.053 -0.1440 -0.6924  0.0920
 4388TIP3    H113100   2.669   5.751   2.025 -0.3005 -1.7350  0.6572
 4388TIP3    H213101   2.534   5.795   1.972  0.4339 -0.5026 -0.2174
 4389TIP3   OH213102   1.987   7.187   1.589  0.1206 -0.5083  0.0834
 4389TIP3    H113103   1.952   7.101   1.567  0.9980 -0.8134 -0.1251
 4389TIP3    H213104   2.035   7.214   1.511  2.1571 -1.0398  1.1329
 4390TIP3   OH213105   1.225   4.208   1.873 -0.1608 -0.0891 -0.0946
 4390TIP3    H113106   1.175   4.147   1.927  0.3826  0.9659  1.6572
 4390TIP3    H213107   1.303   4.227   1.924  0.4141  0.8745 -1.3054
 4391TIP3   OH213108   1.970   4.624   2.286 -0.5863 -0.5133 -0.2655
 4391TIP3    H113109   1.896   4.674   2.321 -0.7369  0.5083 -1.9629
 4391TIP3    H213110   1.933   4.576   2.212 -0.2509 -2.5262  0.8262
 4392TIP3   OH213111   3.074   5.846   0.428  0.2999  0.4340 -0.5346
 4392TIP3    H113112   3.031   5.775   0.381  0.2820 -1.0775  1.7116
 4392TIP3    H213113   3.039   5.842   0.517  1.7933  1.9794  0.1621
 4393TIP3   OH213114   7.641   7.579   3.801 -0.4932 -0.0752  0.1634
 4393TIP3    H113115   7.563   7.621   3.837 -0.7486  1.3700 -1.9988
 4393TIP3    H213116   7.609   7.496   3.765 -0.9899  0.3865 -0.4667
 4394TIP3   OH213117   7.675   5.115   3.843  0.0221  0.6394  0.2523
 4394TIP3    H113118   7.630   5.092   3.762 -2.2051 -0.6157  1.7568
 4394TIP3    H213119   7.646   5.204   3.862  0.5857  0.9533 -0.3467
 4395TIP3   OH213120   0.806   6.494   3.105 -0.3720 -0.2702 -0.1539
 4395TIP3    H113121   0.885   6.500   3.158 -0.2217 -0.8093 -0.3129
 4395TIP3    H213122   0.800   6.579   3.060  1.3686 -1.0429 -1.9236
 4396TIP3   OH213123   8.233   6.393   2.229  0.0260 -0.1000  0.0653
 4396TIP3    H113124   8.284   6.472   2.213  0.4310 -0.7980 -2.3405
 4396TIP3    H213125   8.149   6.409   2.185 -0.8432 -0.0217  1.7174
 4397TIP3   OH213126   0.001   5.990   3.265 -0.1533  0.4842  0.6978
 4397TIP3    H113127   0.077   5.933   3.273  0.2678  0.5690 -2.0742
 4397TIP3    H213128  -0.038   5.967   3.180 -2.4019  1.4266  1.4324
 4398TIP3   OH213129   2.241   4.944   1.617 -0.0669  0.7567  0.1643
 4398TIP3    H113130   2.306   4.875   1.601  0.8695  0.8586  3.2628
 4398TIP3    H213131   2.158   4.904   1.592  0.6308 -0.9870  0.5142
 4399TIP3   OH213132   3.349   5.308   1.663  0.4011  0.1301 -0.0983
 4399TIP3    H113133   3.436   5.324   1.629  0.7473  0.3350  0.8631
 4399TIP3    H213134   3.345   5.213   1.674 -0.5286 -0.1710 -2.8346
 4400TIP3   OH213135   0.484   6.892   3.574  0.1678  0.8195 -0.0693
 4400TIP3    H113136   0.564   6.842   3.559  0.2041  0.2127  1.9615
 4400TIP3    H213137   0.510   6.983   3.561  0.4933  0.4633 -2.1693
 4401TIP3   OH213138   4.025   7.012   1.324 -0.4352  0.0199 -0.3829
 4401TIP3    H113139   3.978   6.929   1.312  0.7128 -0.5379 -1.1276
 4401TIP3    H213140   4.082   6.996   1.400 -1.3552  0.6619  0.4584
 4402TIP3   OH213141   2.973   4.472   2.614  0.5781  0.4177 -0.5325
 4402TIP3    H113142   3.020   4.398   2.651 -0.4778 -0.8142 -1.6050
 4402TIP3    H213143   3.034   4.545   2.620  0.7624  0.0534  2.7514
 4403TIP3   OH213144   1.074   5.267   1.096  0.3315  0.3228 -0.0729
 4403TIP3    H113145   0.991   5.307   1.071  0.7954  1.4460  0.1250
 4403TIP3    H213146   1.063   5.174   1.079 -1.1874  0.3814  0.5263
 4404TIP3   OH213147   0.123   7.798   2.067 -0.7763  0.1017 -0.2579
 4404TIP3    H113148   0.164   7.767   2.148 -0.7698  0.9716  0.0859
 4404TIP3    H213149   0.042   7.840   2.096 -0.8097  0.3501 -0.7052
 4405TIP3   OH213150   3.002   7.531   0.620 -0.5558 -0.7041  0.3330
 4405TIP3    H113151   3.048   7.565   0.697 -0.0828 -0.4126 -0.0717
 4405TIP3    H213152   2.910   7.529   0.645 -0.3157 -1.4005  1.1988
 4406TIP3   OH213153   5.895   1.229   6.618 -0.1151 -0.2015 -0.9206
 4406TIP3    H113154   5.969   1.193   6.569  0.2916 -0.3684 -0.1964
 4406TIP3    H213155   5.822   1.229   6.556  0.5007 -0.0112 -1.6510
 4407TIP3   OH213156   1.414   6.071   2.514 -0.4375 -0.0130  0.7664
 4407TIP3    H113157   1.408   6.016   2.592 -0.9196 -0.5111  0.3854
 4407TIP3    H213158   1.508   6.088   2.504 -0.4309  0.6814  1.8796
 4408TIP3   OH213159   4.176   5.516   1.235 -0.4698  0.2273 -0.2753
 4408TIP3    H113160   4.164   5.507   1.141  2.6728  0.2073 -0.7320
 4408TIP3    H213161   4.165   5.428   1.270 -1.7754  0.2620 -0.6038
 4409TIP3   OH213162   2.250   2.701   3.140 -0.8347 -0.3621  0.3378
 4409TIP3    H113163   2.185   2.652   3.090 -0.8782 -0.7049  0.7347
 4409TIP3    H213164   2.202   2.776   3.175 -1.1109 -0.8249  0.9577
 4410TIP3   OH213165   0.288   5.398   0.880  0.0756  0.2091 -0.0427
 4410TIP3    H113166   0.250   5.440   0.802  0.5461  1.1015  0.2021
 4410TIP3    H213167   0.229   5.423   0.951 -0.3729 -0.6354 -0.1190
 4411TIP3   OH213168   1.395   4.454   1.712 -0.2306 -0.4820 -0.3830
 4411TIP3    H113169   1.301   4.437   1.709 -0.4067  0.0898  1.2420
 4411TIP3    H213170   1.420   4.432   1.801  0.7853  1.3305 -0.2064
 4412TIP3   OH213171   1.729   1.110   1.427  0.5240  0.3593 -0.4059
 4412TIP3    H113172   1.772   1.113   1.341  2.4260  1.0848  0.5449
 4412TIP3    H213173   1.744   1.021   1.458  0.2451  0.2386 -0.6126
 4413TIP3   OH213174   1.317   4.518   2.028 -0.0957  0.7759  0.3507
 4413TIP3    H113175   1.277   4.541   2.112  0.9012  0.9958  0.7681
 4413TIP3    H213176   1.357   4.432   2.044 -0.1873  0.6719  0.0090
 4414TIP3   OH213177   2.183   7.001   1.223 -0.5345 -0.2625 -0.1102
 4414TIP3    H113178   2.251   7.039   1.278 -1.2565  0.2468  0.4447
 4414TIP3    H213179   2.163   6.917   1.264 -0.1942 -0.4452 -0.3154
 4415TIP3   OH213180   3.579   5.585   2.075  0.4511  0.2186 -0.2735
 4415TIP3    H113181   3.669   5.591   2.043  1.2458 -0.2777  1.7860
 4415TIP3    H213182   3.569   5.495   2.105 -0.5698  0.4066 -0.0097
 4416TIP3   OH213183   2.065   6.122   4.497 -0.5888  0.4309  0.0509
 4416TIP3    H113184   2.060   6.091   4.587 -0.7831 -0.3807 -0.2309
 4416TIP3    H213185   2.109   6.206   4.502  3.2904 -1.5000  0.5072
 4417TIP3   OH213186   0.410   3.674   1.300 -0.2791 -0.1239 -0.1789
 4417TIP3    H113187   0.492   3.625   1.295 -0.1120  0.1615 -0.1835
 4417TIP3    H213188   0.367   3.640   1.379  0.1010  0.1325  0.1355
 4418TIP3   OH213189   7.914   1.371   6.438  0.9357 -0.4189  0.1079
 4418TIP3    H113190   8.005   1.388   6.463  0.9370  1.8573 -1.2533
 4418TIP3    H213191   7.919   1.296   6.379  1.9030 -0.5535  0.3454
 4419TIP3   OH213192   1.150   4.632   2.208 -0.0109 -0.5488  0.7801
 4419TIP3    H113193   1.083   4.582   2.254  0.6142 -1.2086  0.9740
 4419TIP3    H213194   1.148   4.719   2.250 -0.5731 -0.6409  0.9455
 4420TIP3   OH213195   0.708   4.312   6.829 -0.5016  0.0201 -0.1657
 4420TIP3    H113196   0.769   4.238   6.831  0.2132  0.5831 -0.9952
 4420TIP3    H213197   0.715   4.350   6.916 -1.5777 -1.4467  0.5876
 4421TIP3   OH213198   7.789   3.377   2.621 -0.2722  0.1310  0.3174
 4421TIP3    H113199   7.705   3.341   2.591 -0.1615  0.2020 -0.0751
 4421TIP3    H213200   7.824   3.309   2.680 -0.5844  0.0842  0.4509
 4422TIP3   OH213201   7.700   5.179   0.972  0.3259  0.5133 -0.7760
 4422TIP3    H113202   7.628   5.232   0.936 -0.0816  0.7367  0.3582
 4422TIP3    H213203   7.772   5.241   0.981 -0.2217  0.9408  0.7662
 4423TIP3   OH213204   2.095   1.286   3.333  0.3290 -0.7937 -0.1380
 4423TIP3    H113205   2.121   1.357   3.391 -1.6178 -0.3259  0.1869
 4423TIP3    H213206   2.178   1.244   3.308  1.5082  1.5974 -0.3817
 4424TIP3   OH213207   2.409   4.995   3.564 -0.0869 -0.0268  0.2869
 4424TIP3    H113208   2.370   4.958   3.485 -1.4463  0.0484  0.9036
 4424TIP3    H213209   2.388   4.932   3.633 -0.3315  0.7114  0.8956
 4425TIP3   OH213210   8.181   6.416   0.164 -0.4369 -0.6611 -0.0882
 4425TIP3    H113211   8.202   6.407   0.071 -2.0179 -0.8258 -0.4373
 4425TIP3    H213212   8.177   6.326   0.197 -1.1609 -0.6616 -0.1630
 4426TIP3   OH213213   3.283   6.538   4.564 -0.2531  0.4138  0.3224
 4426TIP3    H113214   3.324   6.457   4.533 -0.3710  0.4875 -0.0251
 4426TIP3    H213215   3.257   6.519   4.654 -0.3108  0.0541  0.2282
 4427TIP3   OH213216   0.398   5.670   1.707  0.7638  0.4285  0.3221
 4427TIP3    H113217   0.476   5.713   1.673  0.7669  1.0191  1.0713
 4427TIP3    H213218   0.429   5.618   1.781  0.7652 -0.8891 -0.5800
 4428TIP3   OH213219   8.460   4.573   2.428  0.4476 -0.1244 -0.8871
 4428TIP3    H113220   8.410   4.582   2.509 -0.4246  2.0682 -1.6353
 4428TIP3    H213221   8.547   4.607   2.450  0.6813 -0.9662 -0.4697
 4429TIP3   OH213222   0.815   5.390   1.056 -0.3995  0.4157 -0.1498
 4429TIP3    H113223   0.737   5.340   1.077 -0.4485  0.9710  1.0477
 4429TIP3    H213224   0.839   5.433   1.138  2.4143 -1.4677  0.0633
 4430TIP3   OH213225   3.166   6.934   2.819 -0.3222 -0.9366  0.4186
 4430TIP3    H113226   3.120   7.017   2.804 -1.5677 -1.8914 -1.1759
 4430TIP3    H213227   3.258   6.959   2.828 -0.3884  0.4144 -2.2450
 4431TIP3   OH213228   0.490   5.148   1.364  0.3592 -0.1922  0.1397
 4431TIP3    H113229   0.491   5.112   1.453 -0.5221  3.2552  1.6290
 4431TIP3    H213230   0.408   5.117   1.327 -0.6271  0.6601  1.5628
 4432TIP3   OH213231   2.190   6.006   0.341 -0.2628  0.3755 -0.0808
 4432TIP3    H113232   2.102   6.037   0.321 -0.0762  0.6545 -0.4964
 4432TIP3    H213233   2.183   5.964   0.426 -0.9426 -0.2394 -0.4432
 4433TIP3   OH213234   1.071   5.285   2.918 -0.1359 -0.5529 -0.7040
 4433TIP3    H113235   1.027   5.368   2.938  0.1629  0.1638 -2.9331
 4433TIP3    H213236   1.144   5.309   2.861 -0.7271 -2.4452 -2.3233
 4434TIP3   OH213237   2.782   6.822   2.945  0.0303 -0.1719  0.3230
 4434TIP3    H113238   2.757   6.856   2.859  0.6344  1.4187  0.7568
 4434TIP3    H213239   2.744   6.734   2.948 -2.2048  0.7111 -0.5636
 4435TIP3   OH213240   1.776   4.779   3.854 -0.1780 -0.0989  0.2215
 4435TIP3    H113241   1.681   4.774   3.846 -0.3042  0.7123  1.0994
 4435TIP3    H213242   1.805   4.823   3.774 -0.4969 -0.7796 -0.2660
 4436TIP3   OH213243   0.879   1.466   2.139 -0.1249 -0.2112  0.0654
 4436TIP3    H113244   0.889   1.453   2.233 -1.0420 -0.2689  0.1608
 4436TIP3    H213245   0.961   1.436   2.101  0.4484  0.3038  0.8927
 4437TIP3   OH213246   1.005   7.222   2.587 -0.3065  0.8904 -0.7999
 4437TIP3    H113247   1.044   7.203   2.502  2.4797  0.2327  0.5579
 4437TIP3    H213248   1.014   7.317   2.596 -2.2950  1.2165 -1.9951
 4438TIP3   OH213249   8.397   4.348   6.311 -0.5432 -0.1687  0.3985
 4438TIP3    H113250   8.431   4.437   6.324  1.8062 -0.8256 -1.0177
 4438TIP3    H213251   8.407   4.306   6.397  0.7926  0.1333  0.3980
 4439TIP3   OH213252   0.426   6.377   2.784 -0.9058  0.1083 -0.4310
 4439TIP3    H113253   0.483   6.399   2.857 -0.7674  0.6032 -0.6834
 4439TIP3    H213254   0.377   6.300   2.813  0.8867 -1.1594 -0.7540
 4440TIP3   OH213255   2.646   3.356   4.092 -0.4141 -0.2462 -0.3187
 4440TIP3    H113256   2.619   3.445   4.115 -1.1066 -0.2698 -1.0155
 4440TIP3    H213257   2.684   3.321   4.173  0.3668  0.8656 -0.1974
 4441TIP3   OH213258   1.493   5.501   3.067  0.3983  0.8764  0.3056
 4441TIP3    H113259   1.422   5.547   3.111  1.4541  0.3803  2.5708
 4441TIP3    H213260   1.537   5.452   3.136  0.5420 -1.9673 -1.7032
 4442TIP3   OH213261   6.499   6.203   2.986 -0.5263  0.1742 -0.0801
 4442TIP3    H113262   6.546   6.276   3.026  0.0405  1.1736 -2.4791
 4442TIP3    H213263   6.536   6.125   3.029  1.4655  1.0887 -0.0473
 4443TIP3   OH213264   0.945   6.119   0.787 -0.1731 -0.1994 -0.5316
 4443TIP3    H113265   0.918   6.040   0.833 -1.1315  0.9099  0.8668
 4443TIP3    H213266   1.035   6.134   0.816 -0.7062  0.3807  0.8492
 4444TIP3   OH213267   0.848   5.406   2.246 -0.5229 -0.2129  0.0752
 4444TIP3    H113268   0.779   5.424   2.182  0.1003 -0.6608 -0.7277
 4444TIP3    H213269   0.805   5.417   2.331 -1.7436 -1.1173 -0.4175
 4445TIP3   OH213270   0.892   4.843   4.036  0.0319 -0.3699  0.4239
 4445TIP3    H113271   0.922   4.857   4.126  0.4966  1.6205 -0.0183
 4445TIP3    H213272   0.925   4.756   4.013  0.4305 -0.6336  1.9686
 4446TIP3   OH213273   0.847   5.013   2.916  0.1316  0.1242 -0.1024
 4446TIP3    H113274   0.854   5.049   2.828  0.1548 -1.0615 -0.5870
 4446TIP3    H213275   0.806   5.083   2.967 -1.0665  0.3409 -1.3425
 4447TIP3   OH213276   8.305   5.845   2.730  0.1637 -0.0598 -0.2823
 4447TIP3    H113277   8.218   5.885   2.720  0.1735  0.0073 -0.0864
 4447TIP3    H213278   8.287   5.751   2.735  0.2411 -0.2029 -2.1377
 4448TIP3   OH213279   1.035   5.048   3.663 -0.0536  0.0340  0.3895
 4448TIP3    H113280   1.101   5.074   3.600 -0.5201  0.0451 -0.0992
 4448TIP3    H213281   1.077   4.980   3.715  0.6655  0.7133  0.7077
 4449TIP3   OH213282   1.183   6.763   2.039  0.3305 -0.7915  0.7313
 4449TIP3    H113283   1.166   6.677   1.999  0.4077 -1.0084  1.1556
 4449TIP3    H213284   1.261   6.795   1.994  1.2207 -1.6417  1.6416
 4450TIP3   OH213285   1.371   5.853   2.207  0.3283 -0.3497  0.1870
 4450TIP3    H113286   1.328   5.835   2.291  1.0966  0.1549  0.6886
 4450TIP3    H213287   1.446   5.907   2.230 -0.4543  1.2892 -1.0180
 4451TIP3   OH213288   0.531   4.410   2.507 -0.1685  0.1384  0.2804
 4451TIP3    H113289   0.448   4.389   2.549  1.0790 -0.2183  2.6371
 4451TIP3    H213290   0.584   4.450   2.577  1.6144  0.4238 -1.1977
 4452TIP3   OH213291   0.388   6.972   1.046  0.0667 -0.7713  0.1897
 4452TIP3    H113292   0.407   7.016   0.963 -0.9031  0.6794  0.7233
 4452TIP3    H213293   0.456   7.004   1.106 -2.5559  2.6184  1.4707
 4453TIP3   OH213294   6.828   4.487   0.695 -0.2349  0.5230  0.2568
 4453TIP3    H113295   6.772   4.414   0.668  1.7264 -0.7418 -0.4607
 4453TIP3    H213296   6.834   4.543   0.618 -0.8468  0.8931  0.4711
 4454TIP3   OH213297   1.482   5.152   3.408 -0.0027 -0.6399 -0.5030
 4454TIP3    H113298   1.403   5.151   3.463  1.1796 -1.3647  1.2170
 4454TIP3    H213299   1.450   5.136   3.319 -1.6156 -2.5474  0.3973
 4455TIP3   OH213300   2.125   0.927   3.961 -0.0380  0.0964 -0.6923
 4455TIP3    H113301   2.113   1.010   3.917  1.0489  0.7503  0.2151
 4455TIP3    H213302   2.074   0.864   3.909 -1.9397  1.5499 -0.6273
 4456TIP3   OH213303   1.554   4.899   1.664 -0.2096  0.4490  0.3302
 4456TIP3    H113304   1.538   4.806   1.679 -1.9654  0.7886  0.7174
 4456TIP3    H213305   1.497   4.922   1.590 -0.0604  1.2867  0.4616
 4457TIP3   OH213306   0.905   5.167   1.517  0.4228  1.0026  0.0550
 4457TIP3    H113307   0.821   5.182   1.560 -0.4329 -1.2135 -0.7463
 4457TIP3    H213308   0.970   5.201   1.579 -0.9773  1.2452  1.4271
 4458TIP3   OH213309   0.843   6.996   2.636 -0.0327  0.1853 -0.3218
 4458TIP3    H113310   0.766   7.048   2.659  0.1373  0.1273  0.3890
 4458TIP3    H213311   0.915   7.059   2.634 -0.2292  0.3686 -1.7331
 4459TIP3   OH213312   8.470   5.479   2.152 -0.1572 -0.0468 -0.8573
 4459TIP3    H113313   8.402   5.539   2.184 -0.8361 -0.7525 -0.9706
 4459TIP3    H213314   8.534   5.536   2.108 -1.6198  0.4438 -2.3980
 4460TIP3   OH213315   3.610   6.162   3.999 -0.0555  0.2589 -0.0183
 4460TIP3    H113316   3.606   6.246   3.953 -2.1296  0.2159 -0.0017
 4460TIP3    H213317   3.609   6.096   3.930 -1.2670  0.2284  0.0066
 4461TIP3   OH213318   2.268   5.114   1.035  0.1093 -0.1694 -0.0534
 4461TIP3    H113319   2.272   5.037   1.091  1.1508  0.4996  0.7996
 4461TIP3    H213320   2.225   5.181   1.089 -0.0427  0.1007 -0.5032
 4462TIP3   OH213321   2.594   4.922   3.281  0.0195 -0.2019 -0.4849
 4462TIP3    H113322   2.684   4.912   3.248  0.6785  1.0548  0.8978
 4462TIP3    H213323   2.601   4.986   3.351 -1.4468 -2.3891  1.7541
 4463TIP3   OH213324   1.270   6.561   2.364  0.2309  0.1539 -0.6759
 4463TIP3    H113325   1.270   6.471   2.397  0.2425  0.1956 -0.5599
 4463TIP3    H213326   1.339   6.562   2.298 -0.2575 -0.1016 -1.1841
 4464TIP3   OH213327   1.123   3.008   1.328  0.4022  0.5415  0.0506
 4464TIP3    H113328   1.095   2.987   1.416 -1.9519 -0.0964 -0.8177
 4464TIP3    H213329   1.080   3.091   1.308  1.8613  1.2926 -0.1086
 4465TIP3   OH213330   1.320   3.436   3.908  0.4571 -0.2121  0.0738
 4465TIP3    H113331   1.344   3.462   3.996  1.3111  1.3036 -0.5999
 4465TIP3    H213332   1.252   3.498   3.881  0.2965 -0.5817 -0.3947
 4466TIP3   OH213333   0.804   3.209   2.152  0.0467 -0.4361  0.2122
 4466TIP3    H113334   0.856   3.137   2.117 -1.3803 -1.5271  0.2705
 4466TIP3    H213335   0.839   3.288   2.110  0.7917 -1.3158 -0.8245
 4467TIP3   OH213336   2.756   7.083   2.433 -0.0406  0.4711  0.3313
 4467TIP3    H113337   2.706   7.014   2.389  1.3452 -0.5236  0.2474
 4467TIP3    H213338   2.825   7.105   2.370  1.1502 -0.0053  1.4327
 4468TIP3   OH213339   1.662   5.580   2.568  0.1293 -0.3548  0.0939
 4468TIP3    H113340   1.570   5.608   2.569  0.0794 -0.5353  0.6844
 4468TIP3    H213341   1.659   5.485   2.572  0.3250 -0.3982 -0.8223
 4469TIP3   OH213342   3.321   2.608   0.693  0.1405 -0.2181 -0.3707
 4469TIP3    H113343   3.365   2.549   0.632 -3.4868 -1.4853 -1.8708
 4469TIP3    H213344   3.316   2.559   0.775  1.4626 -0.0691 -0.1908
 4470TIP3   OH213345   1.250   3.848   2.097 -0.0705 -0.1656  0.3105
 4470TIP3    H113346   1.266   3.830   2.004 -0.1960  0.8850  0.0755
 4470TIP3    H213347   1.163   3.813   2.114 -0.0162 -0.4272  0.0472
 4471TIP3   OH213348   3.332   5.857   4.167  0.5488 -0.0701  0.0484
 4471TIP3    H113349   3.369   5.830   4.250  0.7171 -0.3218 -0.1082
 4471TIP3    H213350   3.322   5.776   4.117 -0.7466 -0.0716  0.3052
 4472TIP3   OH213351   8.348   5.312   3.067 -0.3401  0.1576  0.5634
 4472TIP3    H113352   8.285   5.287   3.135 -0.1297  0.2383  0.7915
 4472TIP3    H213353   8.296   5.318   2.987 -0.3138 -1.4864  0.3993
 4473TIP3   OH213354   3.330   5.894   2.879 -0.2888 -0.2821  0.0667
 4473TIP3    H113355   3.397   5.830   2.905  2.0888  1.3114 -1.8775
 4473TIP3    H213356   3.260   5.841   2.840 -0.7563 -2.0779  3.2182
 4474TIP3   OH213357   2.513   3.932   1.420  0.6686  0.5382 -0.2872
 4474TIP3    H113358   2.581   3.864   1.423  2.0494  1.8852 -0.1688
 4474TIP3    H213359   2.480   3.928   1.330  0.1160 -0.8720 -0.0306
 4475TIP3   OH213360   7.887   4.464   3.904 -0.2161  0.0776 -0.3320
 4475TIP3    H113361   7.946   4.533   3.935  0.7812 -1.4071  1.1455
 4475TIP3    H213362   7.874   4.408   3.980 -0.0784 -2.0157 -1.8229
 4476TIP3   OH213363   7.575   4.119   2.122  0.9639 -0.5769 -0.1842
 4476TIP3    H113364   7.608   4.133   2.033  1.8839  0.8363  0.3628
 4476TIP3    H213365   7.628   4.176   2.177 -0.1577 -0.8067  1.1785
 4477TIP3   OH213366   2.401   5.491   2.947 -0.2678  0.0670 -0.2894
 4477TIP3    H113367   2.387   5.583   2.929 -1.2462 -0.1954 -0.9012
 4477TIP3    H213368   2.449   5.458   2.871  1.1850  0.3302  0.4911
 4478TIP3   OH213369   1.337   3.435   2.875  0.3146  0.0066  0.5293
 4478TIP3    H113370   1.381   3.518   2.859  0.5408  0.0273  1.2036
 4478TIP3    H213371   1.252   3.443   2.833  0.7491  0.1769 -0.3122
 4479TIP3   OH213372   1.749   6.462   1.061 -0.3202 -0.2352 -0.3962
 4479TIP3    H113373   1.807   6.465   0.985  0.5168 -0.1610  0.2286
 4479TIP3    H213374   1.806   6.436   1.133 -0.9130  0.5720  0.3750
 4480TIP3   OH213375   1.917   6.407   1.300  0.0190 -0.0835  0.4183
 4480TIP3    H113376   1.959   6.342   1.356  0.8662 -1.1858 -1.4212
 4480TIP3    H213377   1.847   6.445   1.354  1.2999 -0.5362  2.4339
 4481TIP3   OH213378   1.593   3.823   4.250  0.3652  0.0859 -0.4858
 4481TIP3    H113379   1.632   3.737   4.235  0.5230  0.3578 -1.7154
 4481TIP3    H213380   1.608   3.841   4.342  0.2842 -1.2310 -0.2092
 4482TIP3   OH213381   1.744   3.363   0.058 -0.0308  0.4008  0.0771
 4482TIP3    H113382   1.726   3.316   0.140 -1.9790  2.4625  0.8752
 4482TIP3    H213383   1.663   3.356   0.008  0.9523 -0.3344 -1.4551
 4483TIP3   OH213384   1.922   7.210   2.221 -0.4269 -0.2026  0.7798
 4483TIP3    H113385   1.876   7.172   2.296 -0.7935 -0.7446  0.2875
 4483TIP3    H213386   1.955   7.293   2.253 -1.0797 -0.1633  1.3771
 4484TIP3   OH213387   3.665   4.795   1.867 -0.6468 -0.0459  0.1648
 4484TIP3    H113388   3.573   4.789   1.841 -0.0522 -0.0671 -2.0011
 4484TIP3    H213389   3.713   4.794   1.785  1.3546 -0.9942  1.3176
 4485TIP3   OH213390   1.587   6.492   2.611 -0.1336 -0.2516  0.3077
 4485TIP3    H113391   1.561   6.404   2.583 -3.4582  0.5841  0.5200
 4485TIP3    H213392   1.652   6.477   2.679  0.5665 -2.5016 -0.8033
 4486TIP3   OH213393   3.046   3.280   2.240  0.2969 -0.0963 -0.2825
 4486TIP3    H113394   3.053   3.372   2.215  2.7570 -0.0825  0.3589
 4486TIP3    H213395   2.952   3.261   2.235 -0.1117  2.1215 -1.5216
 4487TIP3   OH213396   8.087   7.815   2.099 -0.4118 -0.2712  0.0342
 4487TIP3    H113397   8.064   7.780   2.185 -1.1535  1.1169  0.4304
 4487TIP3    H213398   8.033   7.894   2.091 -0.9519 -0.8199 -2.0553
 4488TIP3   OH213399   0.186   4.522   2.245 -0.1634  0.2755 -0.3926
 4488TIP3    H113400   0.115   4.574   2.283 -0.8778 -1.1972  0.3161
 4488TIP3    H213401   0.141   4.458   2.189  0.5627 -0.8931  0.3398
 4489TIP3   OH213402   0.991   6.663   1.144  0.2781 -0.0366  0.3159
 4489TIP3    H113403   1.005   6.589   1.204  2.1616 -0.3595 -0.4780
 4489TIP3    H213404   1.076   6.707   1.140  0.1193  0.1435 -1.8552
 4490TIP3   OH213405   0.067   5.108   1.386  0.1402 -0.1529 -0.0414
 4490TIP3    H113406   0.078   5.071   1.474 -0.8562 -0.2027  0.0640
 4490TIP3    H213407   0.010   5.045   1.341  1.1266 -0.4290 -0.9104
 4491TIP3   OH213408   0.735   5.266   3.009  0.0137 -0.0745  0.3380
 4491TIP3    H113409   0.657   5.322   3.008 -0.6041 -0.9226  0.7413
 4491TIP3    H213410   0.797   5.312   2.953 -0.9392  0.3785 -0.3739
 4492TIP3   OH213411   0.991   6.032   4.377  0.4883 -0.0703 -0.3417
 4492TIP3    H113412   0.962   6.030   4.469  0.5223  1.3219 -0.2894
 4492TIP3    H213413   1.083   6.058   4.382  0.3986  0.3374 -0.7823
 4493TIP3   OH213414   0.119   5.645   1.990  0.2633  0.2051 -0.1760
 4493TIP3    H113415   0.144   5.731   1.956  0.0003  0.3086 -0.1100
 4493TIP3    H213416   0.057   5.612   1.926  1.4562 -0.5585 -0.9578
 4494TIP3   OH213417   0.260   6.717   1.646  0.5752 -0.3963  0.3337
 4494TIP3    H113418   0.338   6.683   1.691 -0.7060 -1.9072  1.4716
 4494TIP3    H213419   0.293   6.753   1.564  2.1713 -3.1626 -0.2796
 4495TIP3   OH213420   0.209   4.368   3.528 -0.0043  0.7983  0.6407
 4495TIP3    H113421   0.279   4.433   3.536  0.4647  0.2010  1.4908
 4495TIP3    H213422   0.232   4.317   3.450 -0.1358  1.3662  0.2296
 4496TIP3   OH213423   1.731   3.724   1.476  0.2121 -0.1623  0.7182
 4496TIP3    H113424   1.688   3.746   1.559  0.9734  0.8512  0.8639
 4496TIP3    H213425   1.816   3.688   1.502 -0.0921 -1.1126  0.4066
 4497TIP3   OH213426   1.915   4.531   3.162  0.4965 -0.0678 -0.3108
 4497TIP3    H113427   1.844   4.594   3.144 -1.0398 -2.0749 -1.5140
 4497TIP3    H213428   1.887   4.487   3.242  2.2682  1.7012  1.3319
 4498TIP3   OH213429   8.089   4.243   4.316 -0.1199  0.1191 -0.2134
 4498TIP3    H113430   8.100   4.182   4.243 -1.1856 -1.0703  0.5942
 4498TIP3    H213431   8.179   4.263   4.344  0.2747  0.0976 -1.4528
 4499TIP3   OH213432   8.288   4.552   2.209 -0.2653 -0.4297 -0.1842
 4499TIP3    H113433   8.362   4.583   2.261  1.1219  0.7917 -2.8006
 4499TIP3    H213434   8.302   4.458   2.200  2.9582  0.2396 -3.5176
 4500TIP3   OH213435   0.865   3.020   2.615 -0.3493  0.5577 -0.4305
 4500TIP3    H113436   0.906   3.050   2.534  0.6847  1.1375  0.2873
 4500TIP3    H213437   0.779   2.989   2.589  0.7330 -1.1797 -2.0834
 4501TIP3   OH213438   2.416   4.891   0.511  0.1629 -0.0781  0.7734
 4501TIP3    H113439   2.427   4.905   0.417 -0.2418 -0.2358  0.7017
 4501TIP3    H213440   2.474   4.955   0.552 -2.0730  2.2464  0.4605
 4502TIP3   OH213441   4.113   2.325   6.553 -0.5271  0.1505 -0.4511
 4502TIP3    H113442   4.039   2.281   6.596  0.7752  0.0013  1.7235
 4502TIP3    H213443   4.180   2.257   6.546  0.5596  1.1095  0.5370
 4503TIP3   OH213444   0.579   4.443   1.731  0.2928  0.5630  0.0744
 4503TIP3    H113445   0.581   4.411   1.641 -0.6565 -4.0601  1.5469
 4503TIP3    H213446   0.645   4.390   1.776  0.7392  2.7966  2.1484
 4504TIP3   OH213447   0.433   2.422   4.888  0.1815  0.5916  0.0759
 4504TIP3    H113448   0.437   2.412   4.793  4.1619  1.3691  0.0766
 4504TIP3    H213449   0.383   2.503   4.902 -3.5723 -1.3722 -1.1019
 4505TIP3   OH213450   2.016   5.811   1.517  0.3944 -0.2639 -0.3296
 4505TIP3    H113451   1.929   5.777   1.539  0.8087 -0.9139  0.2897
 4505TIP3    H213452   2.072   5.734   1.511  0.6230  0.0270 -2.1896
 4506TIP3   OH213453   0.803   6.933   1.281 -0.4294  0.2821 -0.2995
 4506TIP3    H113454   0.847   6.886   1.209  1.7093 -0.5882  1.5305
 4506TIP3    H213455   0.774   7.015   1.241  1.9571  0.4345 -1.8699
 4507TIP3   OH213456   3.000   4.492   2.050  0.0639 -0.0357 -0.2977
 4507TIP3    H113457   2.990   4.428   2.121  1.1812  0.3014  0.1810
 4507TIP3    H213458   3.080   4.464   2.005  0.6964  1.1585  0.0689
 4508TIP3   OH213459   2.690   4.935   4.490 -0.0853  0.2010  0.0139
 4508TIP3    H113460   2.738   4.854   4.507 -1.7899 -0.8511 -0.0828
 4508TIP3    H213461   2.674   4.934   4.396  0.4625  0.9888 -0.0916
 4509TIP3   OH213462   7.851   5.340   3.034  0.0486  0.1545 -0.3866
 4509TIP3    H113463   7.762   5.358   3.063 -0.0926 -0.6573 -0.3268
 4509TIP3    H213464   7.841   5.285   2.957  0.5033 -0.0268 -0.3171
 4510TIP3   OH213465   1.171   5.013   4.441  0.0156 -0.3815 -0.7204
 4510TIP3    H113466   1.194   5.041   4.530 -0.5763 -2.0387 -0.0250
 4510TIP3    H213467   1.254   5.015   4.393  0.4451 -0.0614  0.0263
 4511TIP3   OH213468   2.987   5.858   4.582  0.1045 -0.3204 -0.3266
 4511TIP3    H113469   2.908   5.840   4.530  0.1989  0.6122 -0.7983
 4511TIP3    H213470   2.978   5.950   4.608  1.8679  0.3163 -1.8633
 4512TIP3   OH213471   1.945   5.308   1.636  0.3786  0.1692 -0.2987
 4512TIP3    H113472   1.977   5.273   1.718 -0.9326  3.8094  1.8789
 4512TIP3    H213473   1.849   5.303   1.643  0.2478  0.0807 -1.8220
 4513TIP3   OH213474   1.997   7.310   3.195 -0.0764  0.0405 -0.1304
 4513TIP3    H113475   1.923   7.260   3.160 -0.3383  1.2028 -1.2705
 4513TIP3    H213476   1.961   7.357   3.270 -0.2706 -0.0901 -0.1408
 4514TIP3   OH213477   0.427   6.098   1.988 -0.6779 -0.0125 -0.0517
 4514TIP3    H113478   0.479   6.042   1.930  2.1737  2.4084  0.0643
 4514TIP3    H213479   0.430   6.054   2.073  0.7690 -0.1848 -0.1752
 4515TIP3   OH213480   7.264   0.011   1.143 -0.6374 -0.6795 -0.2067
 4515TIP3    H113481   7.313   0.040   1.066 -1.6331  2.5549  0.2646
 4515TIP3    H213482   7.318   0.037   1.218 -1.4975 -0.1195  0.2375
 4516TIP3   OH213483   5.293   1.136   3.029  0.1517  0.0924 -0.1105
 4516TIP3    H113484   5.238   1.059   3.012  0.7744  0.1230 -2.4378
 4516TIP3    H213485   5.351   1.109   3.100 -1.6543 -0.5399  1.1852
 4517TIP3   OH213486   2.202   4.163   0.435 -0.1586 -0.0984 -0.4418
 4517TIP3    H113487   2.210   4.072   0.464  3.4769  0.7284  1.4065
 4517TIP3    H213488   2.210   4.214   0.515  1.1829  1.9762 -1.8650
 4518TIP3   OH213489   1.400   5.574   2.237  0.3862 -1.0608 -0.0396
 4518TIP3    H113490   1.351   5.612   2.310 -0.3640 -3.3446  0.7086
 4518TIP3    H213491   1.358   5.489   2.223  1.1456 -1.0535 -2.5205
 4519TIP3   OH213492   3.755   7.926   0.981 -0.1542  0.5584 -0.2307
 4519TIP3    H113493   3.716   7.976   1.052 -1.6104  0.6746 -1.0848
 4519TIP3    H213494   3.714   7.840   0.987  0.9261  0.0555  0.0620
 4520TIP3   OH213495   3.053   6.454   2.501 -0.0197  0.1769 -0.1853
 4520TIP3    H113496   3.137   6.433   2.460 -0.9394 -1.1525 -1.4365
 4520TIP3    H213497   3.070   6.448   2.595  1.2099 -0.3854 -0.4280
 4521TIP3   OH213498   4.769   7.270   2.195  0.4561 -0.1058  0.2617
 4521TIP3    H113499   4.749   7.347   2.142 -2.1133 -0.9015  0.0316
 4521TIP3    H213500   4.816   7.212   2.135 -3.0503 -1.3004 -1.4529
 4522TIP3   OH213501   7.732   0.043   0.110  0.1337 -0.2397  0.8371
 4522TIP3    H113502   7.820   0.022   0.141  0.7340 -2.1102 -1.9713
 4522TIP3    H213503   7.734   0.138   0.096  0.9865  0.0684  2.8440
 4523TIP3   OH213504   2.261   5.404   2.111  0.0847 -0.2442  0.4155
 4523TIP3    H113505   2.305   5.389   2.195  1.9947  1.7258 -0.1966
 4523TIP3    H213506   2.332   5.410   2.047 -1.2370  0.2087 -1.0501
 4524TIP3   OH213507   4.002   4.525   3.226  0.0530 -0.0672  0.0414
 4524TIP3    H113508   4.006   4.524   3.322  0.4105  1.4348  0.0547
 4524TIP3    H213509   4.023   4.435   3.201 -2.1601 -1.0222  1.4329
 4525TIP3   OH213510   4.716   4.295   1.754  0.6852 -0.0980 -0.4376
 4525TIP3    H113511   4.661   4.227   1.793 -0.5214  0.4357 -1.1865
 4525TIP3    H213512   4.663   4.375   1.760  1.8664  0.6740 -0.0677
 4526TIP3   OH213513   2.993   7.368   1.734  0.1037  0.1561  0.0688
 4526TIP3    H113514   2.947   7.364   1.650 -1.7832 -1.4435  1.1430
 4526TIP3    H213515   2.957   7.445   1.778 -1.5961 -1.0828  0.9012
 4527TIP3   OH213516   5.308   5.092   3.823 -0.5364  0.4674 -0.2738
 4527TIP3    H113517   5.285   5.088   3.916 -0.2073  0.7139 -0.1824
 4527TIP3    H213518   5.382   5.152   3.819 -1.3291  1.4304 -0.8508
 4528TIP3   OH213519   3.094   6.258   2.172  0.3819  0.3771 -0.1346
 4528TIP3    H113520   3.052   6.174   2.155 -0.6765  0.8992 -0.1239
 4528TIP3    H213521   3.154   6.241   2.244  0.5798 -0.4949 -0.5000
 4529TIP3   OH213522   3.893   6.717   2.363  0.1475  0.9098 -0.3233
 4529TIP3    H113523   3.965   6.765   2.323 -0.3726  0.1118 -2.2585
 4529TIP3    H213524   3.888   6.635   2.315 -0.3570 -0.1883  1.5367
 4530TIP3   OH213525   2.475   6.555   1.154 -0.1759  0.4577 -0.0880
 4530TIP3    H113526   2.511   6.609   1.084  0.1621 -0.8429 -0.9203
 4530TIP3    H213527   2.438   6.619   1.216 -1.3556  1.5822 -1.9008
 4531TIP3   OH213528   4.076   6.640   3.616 -0.1844 -0.0673 -0.3156
 4531TIP3    H113529   4.151   6.699   3.607 -0.3137  0.2304  0.4730
 4531TIP3    H213530   4.029   6.647   3.533  0.4860 -0.0035 -0.6868
 4532TIP3   OH213531   8.407   7.031   4.266  0.0523  0.7176  0.1937
 4532TIP3    H113532   8.332   7.080   4.233  1.5095  1.7930 -1.6133
 4532TIP3    H213533   8.460   7.011   4.188  1.0056 -1.1407  1.2656
 4533TIP3   OH213534   2.999   5.077   0.776 -0.1000  0.1999  0.0199
 4533TIP3    H113535   2.907   5.104   0.776 -0.8640 -2.2745 -0.9693
 4533TIP3    H213536   3.008   5.024   0.855  0.4787  0.3438  0.0534
 4534TIP3   OH213537   1.615   7.968   1.141 -0.4479  0.8073  0.3486
 4534TIP3    H113538   1.692   7.983   1.195 -0.0131 -1.1540  0.3216
 4534TIP3    H213539   1.629   8.021   1.063 -0.3973  2.5235  1.4829
 4535TIP3   OH213540   2.057   5.279   3.077 -0.0307 -0.4634 -0.7070
 4535TIP3    H113541   2.059   5.348   3.011 -1.6062  0.5676  0.2973
 4535TIP3    H213542   2.146   5.244   3.077  1.3684  2.8582  0.1145
 4536TIP3   OH213543   2.611   5.861   1.152  0.2355  0.2344 -0.2058
 4536TIP3    H113544   2.694   5.868   1.105 -1.0647  0.5730 -2.5826
 4536TIP3    H213545   2.634   5.828   1.238  2.8741  0.7856 -0.6577
 4537TIP3   OH213546   5.207   6.188   3.590 -0.3834 -0.1934 -0.9343
 4537TIP3    H113547   5.264   6.264   3.594 -4.3748  2.9179 -0.5531
 4537TIP3    H213548   5.181   6.172   3.680 -1.2589 -0.6588 -1.2639
 4538TIP3   OH213549   5.782   0.149   2.188  0.1425 -0.5425  0.1806
 4538TIP3    H113550   5.763   0.057   2.207 -0.2634 -0.1369  1.7998
 4538TIP3    H213551   5.864   0.167   2.234  0.3332 -0.1534 -0.3079
 4539TIP3   OH213552   2.248   6.211   1.424 -0.2954 -0.0291  0.1342
 4539TIP3    H113553   2.293   6.272   1.366  1.3042 -1.0906  0.2208
 4539TIP3    H213554   2.283   6.125   1.399 -1.1637 -0.7102  1.2368
 4540TIP3   OH213555   3.801   4.525   3.498 -0.1826 -0.4857 -0.0113
 4540TIP3    H113556   3.810   4.543   3.592 -0.0510 -0.8023  0.0381
 4540TIP3    H213557   3.771   4.608   3.460  0.1539 -0.2431  0.2519
 4541TIP3   OH213558   1.051   3.379   6.887  0.7669 -0.2678  0.2082
 4541TIP3    H113559   1.009   3.343   6.810 -0.5269  1.1191  0.2487
 4541TIP3    H213560   1.117   3.314   6.911 -1.6098 -2.6968  0.4073
 4542TIP3   OH213561   3.779   4.327   0.410 -0.2131  0.1134  0.7699
 4542TIP3    H113562   3.706   4.302   0.467 -0.3529  1.2641  1.1030
 4542TIP3    H213563   3.791   4.420   0.426 -0.8499  0.6718 -1.7435
 4543TIP3   OH213564   3.572   2.524   1.114 -0.0488  0.2533  0.5182
 4543TIP3    H113565   3.556   2.469   1.190  0.8957 -0.0398  0.5150
 4543TIP3    H213566   3.494   2.512   1.059 -1.0809  1.0725  1.7814
 4544TIP3   OH213567   4.294   6.013   3.131  0.1935 -0.2084 -0.1219
 4544TIP3    H113568   4.333   6.059   3.056  0.1269 -0.4770 -0.3218
 4544TIP3    H213569   4.370   5.977   3.178  0.2391  0.0231 -0.0172
 4545TIP3   OH213570   5.176   5.499   2.908 -0.0608 -0.1890 -0.0275
 4545TIP3    H113571   5.182   5.524   2.816 -1.7932 -1.1812 -0.4325
 4545TIP3    H213572   5.094   5.449   2.914  0.4021 -0.7525  1.9030
 4546TIP3   OH213573   2.000   4.292   1.565  0.3535  0.2821  0.1064
 4546TIP3    H113574   2.071   4.282   1.628 -0.4597  0.2649  1.0231
 4546TIP3    H213575   2.044   4.289   1.479  1.5545  1.1534  0.6763
 4547TIP3   OH213576   3.296   7.144   3.112 -0.1644 -0.0586  0.2310
 4547TIP3    H113577   3.265   7.063   3.154 -0.1422 -0.0049  0.3514
 4547TIP3    H213578   3.268   7.136   3.021 -0.9845  0.2151  0.4540
 4548TIP3   OH213579   2.956   3.341   3.436 -0.1428 -0.3396  0.3019
 4548TIP3    H113580   2.970   3.398   3.360 -0.0603  1.4757  1.6303
 4548TIP3    H213581   2.871   3.300   3.420 -1.5739  2.3648  0.6139
 4549TIP3   OH213582   3.080   4.993   3.641 -0.2224 -0.1044 -0.5843
 4549TIP3    H113583   3.175   4.992   3.657 -0.0741  0.5559 -1.3640
 4549TIP3    H213584   3.057   5.086   3.644 -1.1889 -0.4088  1.5119
 4550TIP3   OH213585   0.543   6.353   2.528  0.2172 -0.5851 -0.4807
 4550TIP3    H113586   0.625   6.308   2.550  1.0698  1.3289  0.3986
 4550TIP3    H213587   0.507   6.379   2.613  0.7021  1.9998 -1.0207
 4551TIP3   OH213588   2.321   6.306   1.145  0.4134  0.4079  0.2183
 4551TIP3    H113589   2.388   6.354   1.192  1.1904  0.6949 -1.1624
 4551TIP3    H213590   2.333   6.330   1.053  1.1697 -2.7869 -0.5963
 4552TIP3   OH213591   1.977   7.388   1.053  0.0828 -0.0983 -0.0201
 4552TIP3    H113592   2.042   7.436   1.104 -0.4159  0.4512  0.1034
 4552TIP3    H213593   1.976   7.300   1.091  2.6282 -0.8865 -1.7004
 4553TIP3   OH213594   3.526   7.244   3.220 -0.7244 -0.1131 -0.2795
 4553TIP3    H113595   3.502   7.324   3.268 -2.8316 -0.5738 -0.4959
 4553TIP3    H213596   3.444   7.216   3.179  0.0093 -2.3500 -0.2640
 4554TIP3   OH213597   1.451   7.414   3.740 -0.2368 -0.3446  0.7684
 4554TIP3    H113598   1.441   7.431   3.833  0.2700  1.3854  0.5205
 4554TIP3    H213599   1.362   7.395   3.709 -0.7611  1.3812  1.1709
 4555TIP3   OH213600   3.986   3.497   2.155  0.4853 -0.3979 -0.2977
 4555TIP3    H113601   4.002   3.589   2.179  0.8123 -0.3345 -0.7373
 4555TIP3    H213602   3.892   3.491   2.144  0.4893 -0.0406 -0.5470
 4556TIP3   OH213603   2.311   1.231   6.490  0.3226  0.4127  0.3764
 4556TIP3    H113604   2.336   1.175   6.563 -0.0792  0.4094  0.5153
 4556TIP3    H213605   2.277   1.170   6.424 -2.0192  0.6321  1.3118
 4557TIP3   OH213606   4.439   5.113   0.817 -0.3282  0.0567  0.7296
 4557TIP3    H113607   4.399   5.200   0.817  0.0264  0.2312 -0.0387
 4557TIP3    H213608   4.391   5.064   0.883  2.0016  1.9718  4.0018
 4558TIP3   OH213609   3.633   6.371   1.200  0.2214 -0.6558  0.5441
 4558TIP3    H113610   3.710   6.391   1.148  0.1868  0.1798  0.8109
 4558TIP3    H213611   3.657   6.394   1.290 -0.7391  0.7362  0.4565
 4559TIP3   OH213612   5.672   5.956   1.863 -0.3844 -0.6367 -0.1780
 4559TIP3    H113613   5.708   6.041   1.887  1.2621 -0.8518 -1.7532
 4559TIP3    H213614   5.697   5.898   1.935 -0.8760  0.0481  0.5457
 4560TIP3   OH213615   4.693   7.529   1.152 -0.4510  0.2745 -0.5576
 4560TIP3    H113616   4.751   7.581   1.207  0.6982 -1.4423 -0.1317
 4560TIP3    H213617   4.697   7.441   1.188 -1.7874 -0.2926 -1.7412
 4561TIP3   OH213618   4.741   5.819   2.212 -0.3720  0.1592 -0.5767
 4561TIP3    H113619   4.732   5.767   2.132  0.3290  1.0692 -1.2514
 4561TIP3    H213620   4.651   5.845   2.234 -0.6541 -0.7735 -0.6035
 4562TIP3   OH213621  -0.013   4.971   2.937 -0.0418  0.2999  0.4334
 4562TIP3    H113622  -0.050   5.043   2.886 -0.7797 -1.4933 -1.6118
 4562TIP3    H213623   0.082   4.981   2.928 -0.1471  0.7624 -0.1708
 4563TIP3   OH213624   0.545   2.558   6.587  0.6943 -0.0258  0.4913
 4563TIP3    H113625   0.555   2.480   6.641 -0.3065 -0.6718 -0.2353
 4563TIP3    H213626   0.634   2.577   6.557  0.9001 -1.1250  0.3628
 4564TIP3   OH213627   5.404   6.878   1.993 -0.5139  0.1617  0.1244
 4564TIP3    H113628   5.355   6.959   2.003  1.6214  1.6228 -0.6924
 4564TIP3    H213629   5.460   6.874   2.071 -0.9894 -0.8103  0.4221
 4565TIP3   OH213630   4.004   4.841   4.433 -0.1314  0.4650  0.7099
 4565TIP3    H113631   4.068   4.788   4.481  0.6501  1.3307  0.6492
 4565TIP3    H213632   3.948   4.777   4.390  1.1137 -0.3349  0.2193
 4566TIP3   OH213633   1.962   7.855   2.008  0.2397 -0.1399  0.1625
 4566TIP3    H113634   1.990   7.808   1.929 -1.8899 -0.5644 -0.3646
 4566TIP3    H213635   1.923   7.936   1.976  1.6209  0.8440  0.9328
 4567TIP3   OH213636   2.948   6.859   1.754  0.2768  0.8991 -0.3225
 4567TIP3    H113637   2.936   6.790   1.689 -0.3100  0.9542 -0.2732
 4567TIP3    H213638   3.003   6.818   1.821  0.8684  0.8384 -0.8389
 4568TIP3   OH213639   2.886   5.756   3.966  0.3250 -0.4053 -0.0646
 4568TIP3    H113640   2.938   5.701   3.906  0.0948 -1.1271  0.3886
 4568TIP3    H213641   2.932   5.840   3.968 -0.1828 -0.0441 -2.0016
 4569TIP3   OH213642   1.167   4.314   3.802 -0.1839  0.2391  0.2175
 4569TIP3    H113643   1.215   4.390   3.835 -0.0989  0.6996 -0.9451
 4569TIP3    H213644   1.095   4.350   3.752 -0.5247 -0.4520  0.2016
 4570TIP3   OH213645   1.922   3.861   2.896 -0.3142  0.3754  0.0016
 4570TIP3    H113646   1.917   3.800   2.823 -1.3851 -0.5710  0.8407
 4570TIP3    H213647   1.953   3.808   2.970 -0.4396  1.0250  0.5283
 4571TIP3   OH213648   2.191   5.001   2.295 -0.0072 -0.3583  0.2355
 4571TIP3    H113649   2.145   5.034   2.218 -1.3002  0.0799  1.1838
 4571TIP3    H213650   2.122   4.971   2.354  0.8226  1.5148  2.2189
 4572TIP3   OH213651   4.913   6.260   3.263  0.1586 -0.0141 -1.0694
 4572TIP3    H113652   4.832   6.213   3.247  0.0353  0.2565 -1.2592
 4572TIP3    H213653   4.948   6.278   3.175  0.9082 -0.9639 -0.9711
 4573TIP3   OH213654   1.427   4.183   0.911  0.0780  0.0146  0.0157
 4573TIP3    H113655   1.466   4.269   0.927  0.1288 -0.2275  1.2739
 4573TIP3    H213656   1.474   4.149   0.835 -0.8789  1.6580 -1.3400
 4574TIP3   OH213657   0.675   4.348   0.429  0.6610  0.3620  0.1036
 4574TIP3    H113658   0.713   4.324   0.344 -1.2414 -1.1820 -0.3535
 4574TIP3    H213659   0.587   4.310   0.427 -0.6593  3.1793  1.4315
 4575TIP3   OH213660   4.460   6.397   2.646 -0.2575  0.0437  0.9393
 4575TIP3    H113661   4.407   6.465   2.688 -1.8102 -0.2244 -0.5303
 4575TIP3    H213662   4.398   6.349   2.592  1.5607 -0.0614 -1.0974
 4576TIP3   OH213663   3.221   3.723   2.541 -0.6387 -0.1714 -0.6366
 4576TIP3    H113664   3.210   3.775   2.621 -1.2089  1.0760 -1.5137
 4576TIP3    H213665   3.224   3.788   2.470 -0.0241 -1.2567 -1.6266
 4577TIP3   OH213666   1.309   4.498   1.192 -0.4858 -0.2019 -0.5829
 4577TIP3    H113667   1.307   4.535   1.281  0.8330  0.5302 -0.8462
 4577TIP3    H213668   1.353   4.414   1.202 -1.5351 -0.7292 -0.3354
 4578TIP3   OH213669   0.848   1.974   6.277 -0.0972  0.2623  0.3106
 4578TIP3    H113670   0.808   2.008   6.357  0.3458  1.0025  0.2223
 4578TIP3    H213671   0.873   2.052   6.228 -1.5646 -0.1782 -1.1626
 4579TIP3   OH213672   1.311   4.947   2.601 -0.0356  0.0756 -0.1130
 4579TIP3    H113673   1.257   5.012   2.646  0.8568  2.1409 -1.9405
 4579TIP3    H213674   1.388   4.937   2.657 -0.3199  0.3740  0.3330
 4580TIP3   OH213675   2.246   1.847   2.495 -0.5624 -0.1192 -0.1614
 4580TIP3    H113676   2.336   1.828   2.468 -0.6881 -0.6168 -0.2198
 4580TIP3    H213677   2.254   1.869   2.588 -0.5092 -1.0689  0.0575
 4581TIP3   OH213678   2.849   6.489   1.448 -0.0214  0.6842 -0.6095
 4581TIP3    H113679   2.842   6.556   1.517 -0.9669  1.0970 -1.0974
 4581TIP3    H213680   2.797   6.416   1.481 -2.1509  1.6254 -1.7295
 4582TIP3   OH213681   2.244   3.034   3.809  0.4634  0.0661 -0.1686
 4582TIP3    H113682   2.335   3.032   3.839  0.6044  0.9011 -0.5317
 4582TIP3    H213683   2.243   2.979   3.730  0.4445 -0.7502  0.3995
 4583TIP3   OH213684   2.094   2.806   2.265  0.2266  0.0123  0.2630
 4583TIP3    H113685   2.048   2.874   2.216  0.3462  0.4549  0.7524
 4583TIP3    H213686   2.028   2.740   2.284  0.0215  0.1717  0.1037
 4584TIP3   OH213687   1.789   5.841   0.652  0.7017  0.2028 -0.5104
 4584TIP3    H113688   1.847   5.812   0.582  1.2216  0.7988 -0.3302
 4584TIP3    H213689   1.798   5.774   0.720  0.3939 -0.2411 -0.8995
 4585TIP3   OH213690   2.560   4.918   4.227 -0.2094  0.1569  0.3235
 4585TIP3    H113691   2.565   5.012   4.210 -1.4599  0.6255  2.3650
 4585TIP3    H213692   2.639   4.882   4.186 -0.6479  1.8114 -2.1053
 4586TIP3   OH213693   2.601   3.380   1.106  0.1785 -0.0662 -0.2757
 4586TIP3    H113694   2.618   3.297   1.150  1.7577  0.1910 -0.3998
 4586TIP3    H213695   2.615   3.363   1.013 -0.4121  0.1116 -0.4042
 4587TIP3   OH213696   3.099   6.565   3.271  0.1353 -0.3661 -0.1446
 4587TIP3    H113697   3.084   6.643   3.217  1.0386  0.5374  0.9066
 4587TIP3    H213698   3.185   6.533   3.244  0.3624 -0.2122  0.3963
 4588TIP3   OH213699   0.002   5.117   4.289  0.5289  0.6531  0.4146
 4588TIP3    H113700   0.030   5.192   4.341  0.1066 -0.4956  2.3523
 4588TIP3    H213701  -0.025   5.052   4.354  1.0162 -1.2276 -1.2266
 4589TIP3   OH213702   2.824   6.178   1.861 -0.6922 -0.0394  0.8567
 4589TIP3    H113703   2.848   6.146   1.947 -1.8173 -2.5829  0.2915
 4589TIP3    H213704   2.773   6.106   1.822 -1.8481  1.7945 -1.1738
 4590TIP3   OH213705   2.879   6.154   0.357  0.3896 -0.6032  0.4644
 4590TIP3    H113706   2.827   6.094   0.303  0.8010 -0.3911 -0.1768
 4590TIP3    H213707   2.879   6.115   0.444 -2.1917  0.1908  0.8889
 4591TIP3   OH213708   3.318   5.435   2.617  0.1409 -0.4117 -0.4413
 4591TIP3    H113709   3.275   5.479   2.691  1.1467 -1.5778  0.8783
 4591TIP3    H213710   3.344   5.506   2.558 -2.1279  0.4123 -0.4757
 4592TIP3   OH213711   3.161   4.361   0.299 -0.2079 -0.1793  0.2055
 4592TIP3    H113712   3.082   4.330   0.341 -1.0217  0.4267 -0.8484
 4592TIP3    H213713   3.193   4.286   0.249 -0.5126 -0.2162  0.0664
 4593TIP3   OH213714   5.394   5.279   0.810  0.3655 -0.0781 -0.6917
 4593TIP3    H113715   5.442   5.221   0.751  0.6295 -1.2324  0.6264
 4593TIP3    H213716   5.441   5.273   0.893 -1.2889 -0.2358  0.2551
 4594TIP3   OH213717   2.409   4.363   1.659  0.1388 -0.2308  0.4950
 4594TIP3    H113718   2.467   4.294   1.626 -0.8690 -0.8017 -0.1151
 4594TIP3    H213719   2.374   4.405   1.581 -1.5833 -1.0132  0.8216
 4595TIP3   OH213720   3.901   6.101   1.768  0.2112  0.7959  0.0410
 4595TIP3    H113721   3.855   6.155   1.705 -0.2515  0.1417 -0.1912
 4595TIP3    H213722   3.844   6.026   1.782  0.6934  0.5257  0.6019
 4596TIP3   OH213723   2.418   5.568   2.302  0.3537 -0.4159 -0.3544
 4596TIP3    H113724   2.408   5.478   2.334 -0.2392 -0.9916 -2.1272
 4596TIP3    H213725   2.508   5.573   2.270  0.1474 -0.6115 -0.9677
 4597TIP3   OH213726   1.109   4.413   1.576 -0.1323 -0.8342  0.0665
 4597TIP3    H113727   1.035   4.418   1.637 -0.4519 -0.0056 -0.3875
 4597TIP3    H213728   1.100   4.490   1.521  0.2351 -1.5055 -0.9504
 4598TIP3   OH213729   4.716   6.507   0.506 -0.1920 -0.0365 -0.0528
 4598TIP3    H113730   4.687   6.481   0.419 -0.3745 -1.4087  0.4018
 4598TIP3    H213731   4.730   6.602   0.500 -1.6802  0.1311 -1.1532
 4599TIP3   OH213732   2.595   5.161   2.014  0.1700  0.1280  0.3255
 4599TIP3    H113733   2.510   5.194   1.985  0.1417 -1.1154 -1.0271
 4599TIP3    H213734   2.576   5.109   2.092 -0.4182 -0.8866 -0.4960
 4600TIP3   OH213735   4.690   6.554   1.962  0.4198  0.0983  0.1127
 4600TIP3    H113736   4.750   6.579   2.032  0.8729  0.5413 -0.4370
 4600TIP3    H213737   4.730   6.476   1.923  0.0786 -0.2527  0.4531
 4601TIP3   OH213738   2.648   5.427   0.313  0.2843  0.2249  0.2795
 4601TIP3    H113739   2.627   5.499   0.372  0.1920 -0.3890  1.0054
 4601TIP3    H213740   2.571   5.419   0.257 -0.2771 -0.1941  1.0983
 4602TIP3   OH213741   5.327   6.208   2.122 -0.1357 -0.5455  0.1427
 4602TIP3    H113742   5.280   6.280   2.079 -1.0951 -1.4784 -0.4000
 4602TIP3    H213743   5.295   6.129   2.078  0.3342 -1.3673  1.2474
 4603TIP3   OH213744   3.747   7.618   1.825  0.4575 -0.2240  0.0481
 4603TIP3    H113745   3.796   7.699   1.836  0.1437 -0.1171  0.6727
 4603TIP3    H213746   3.712   7.599   1.912 -1.4238  0.2122 -0.6056
 4604TIP3   OH213747   8.468   4.189   0.753 -0.2669 -0.2281  0.0243
 4604TIP3    H113748   8.443   4.126   0.686 -1.7486  2.3658 -1.8904
 4604TIP3    H213749   8.386   4.228   0.783  0.5180 -0.0612  2.1097
 4605TIP3   OH213750   2.796   6.871   1.097 -0.5481  0.3631 -0.0618
 4605TIP3    H113751   2.891   6.870   1.112 -0.1656 -0.8736 -2.2859
 4605TIP3    H213752   2.770   6.961   1.115  1.5960  1.4815 -2.2795
 4606TIP3   OH213753   2.842   3.842   2.536 -0.2185 -0.3024  0.0994
 4606TIP3    H113754   2.906   3.906   2.507 -0.8628  0.3947  0.2047
 4606TIP3    H213755   2.777   3.892   2.586 -0.5948 -1.0650  0.3975
 4607TIP3   OH213756   2.635   4.509   1.387  0.0621  0.2095  0.1119
 4607TIP3    H113757   2.635   4.425   1.432  1.5348 -0.1367 -0.5243
 4607TIP3    H213758   2.702   4.561   1.431 -1.6745  1.5039  1.2989
 4608TIP3   OH213759   2.776   6.651   1.662  0.3061 -0.0181  0.5531
 4608TIP3    H113760   2.704   6.714   1.656  0.2697 -0.1961 -0.8881
 4608TIP3    H213761   2.752   6.595   1.736 -0.9265  0.0665  0.2344
 4609TIP3   OH213762   7.600   0.318   0.264 -0.0001 -0.1872 -0.4454
 4609TIP3    H113763   7.677   0.302   0.318  0.2151 -0.4113 -0.8207
 4609TIP3    H213764   7.526   0.294   0.321  0.1230  1.4726  0.4358
 4610TIP3   OH213765   2.765   5.071   2.668  0.5089 -0.1556  0.0813
 4610TIP3    H113766   2.852   5.068   2.708  0.3224  0.8780  0.5802
 4610TIP3    H213767   2.707   5.100   2.738 -0.1545 -0.3531 -0.3841
 4611TIP3   OH213768   3.255   5.870   1.199 -0.1006  0.0362 -0.1441
 4611TIP3    H113769   3.173   5.853   1.244 -0.9982  2.8961 -0.5754
 4611TIP3    H213770   3.317   5.893   1.268 -0.0603 -0.7260  0.0681
 4612TIP3   OH213771   2.704   5.094   3.786  0.0054  0.3982  0.4186
 4612TIP3    H113772   2.730   5.144   3.863  1.1883 -2.4657  1.9669
 4612TIP3    H213773   2.609   5.090   3.792 -0.0603  1.8400  0.6326
 4613TIP3   OH213774   5.896   5.055   2.567  0.6345  0.0662  0.3249
 4613TIP3    H113775   5.933   5.001   2.637 -2.2754  0.1164  1.9608
 4613TIP3    H213776   5.892   4.997   2.491 -0.9168 -1.5383  1.6043
 4614TIP3   OH213777   2.067   7.149   1.848  0.4891 -0.3522 -0.2275
 4614TIP3    H113778   2.160   7.153   1.826  0.2454 -0.4349 -1.2888
 4614TIP3    H213779   2.022   7.174   1.768 -0.3924  0.5799  0.5458
 4615TIP3   OH213780   3.926   4.782   1.406 -0.1111  0.2374  0.0283
 4615TIP3    H113781   3.942   4.762   1.498 -0.8021  0.2581  0.1590
 4615TIP3    H213782   3.975   4.716   1.358  1.3395  1.0359  0.3844
 4616TIP3   OH213783   1.739   6.510   2.373 -0.1215 -0.1457  0.3480
 4616TIP3    H113784   1.789   6.591   2.364  0.7926 -0.8776 -1.4685
 4616TIP3    H213785   1.712   6.508   2.464 -0.0301  2.1327  0.4596
 4617TIP3   OH213786   0.945   6.103   0.485  0.9230  0.2392 -0.1046
 4617TIP3    H113787   0.910   6.105   0.574  2.9976  0.8253  0.7388
 4617TIP3    H213788   0.961   6.195   0.464  1.5856  0.0162 -0.5888
 4618TIP3   OH213789   0.857   6.818   1.819 -0.0408 -0.2323 -0.0510
 4618TIP3    H113790   0.851   6.725   1.842  2.7750 -0.3527  0.3098
 4618TIP3    H213791   0.819   6.864   1.895 -3.2038 -1.0799 -1.0211
 4619TIP3   OH213792   8.025   4.016   1.319 -0.6630 -0.7636  0.3331
 4619TIP3    H113793   7.949   4.000   1.263  1.7889 -0.7780 -3.1667
 4619TIP3    H213794   8.023   4.110   1.336 -1.2094 -0.6871 -0.1302
 4620TIP3   OH213795   1.805   2.603   3.436 -0.2265  0.4688 -0.4268
 4620TIP3    H113796   1.756   2.541   3.491  0.4678  0.8918  0.6855
 4620TIP3    H213797   1.739   2.642   3.380 -0.9006 -0.2366 -0.1378
 4621TIP3   OH213798   1.209   4.570   3.057 -0.1091 -0.3869 -0.0338
 4621TIP3    H113799   1.223   4.478   3.078  0.6210 -0.6355 -1.5187
 4621TIP3    H213800   1.260   4.584   2.977 -0.7466  1.1351 -0.1879
 4622TIP3   OH213801   1.490   7.413   2.743 -0.5263  0.4390  0.0611
 4622TIP3    H113802   1.462   7.322   2.733  1.2896 -0.0104 -1.2583
 4622TIP3    H213803   1.574   7.407   2.789 -0.6210  1.4898  0.3882
 4623TIP3   OH213804   2.245   5.926   1.401 -0.1848  1.0098  0.3131
 4623TIP3    H113805   2.264   5.912   1.308  0.7266 -1.8048  0.8616
 4623TIP3    H213806   2.153   5.904   1.410  0.2153 -0.6672  0.4118
 4624TIP3   OH213807   4.589   5.098   2.217  0.1725  0.3842 -0.0036
 4624TIP3    H113808   4.578   5.003   2.211  0.9666  0.2672  0.3318
 4624TIP3    H213809   4.516   5.127   2.271  1.7252 -0.4297  2.6272
 4625TIP3   OH213810   2.555   4.668   3.349  0.6688  0.9151  0.2565
 4625TIP3    H113811   2.528   4.630   3.432 -2.0324  1.1827 -0.4589
 4625TIP3    H213812   2.545   4.762   3.361 -2.0797  0.8456 -1.1053
 4626TIP3   OH213813   2.525   6.317   1.353  0.1127 -0.0205 -0.2174
 4626TIP3    H113814   2.599   6.265   1.324  0.8435 -0.0756  1.6781
 4626TIP3    H213815   2.539   6.403   1.314  1.6139  0.1961  0.7658
 4627TIP3   OH213816   0.843   5.761   2.104 -0.1906  0.3554  0.1263
 4627TIP3    H113817   0.917   5.767   2.164  0.1428  0.8695 -0.3364
 4627TIP3    H213818   0.789   5.690   2.140  0.6058 -0.1345  0.3681
 4628TIP3   OH213819   3.974   3.739   1.470 -0.6600  0.7078 -0.0646
 4628TIP3    H113820   4.056   3.702   1.438 -0.4536  0.1890  1.0413
 4628TIP3    H213821   3.910   3.715   1.404 -0.2703 -0.5085 -0.0271
 4629TIP3   OH213822   4.655   5.216   2.984  0.1773 -0.1812  0.4863
 4629TIP3    H113823   4.716   5.179   2.921 -0.6452  1.2840 -1.2471
 4629TIP3    H213824   4.570   5.180   2.959 -0.2214  0.7662  0.4210
 4630TIP3   OH213825   1.708   6.502   1.449  0.0582 -0.0292  0.3100
 4630TIP3    H113826   1.721   6.577   1.508 -0.8840 -0.0033  0.4964
 4630TIP3    H213827   1.613   6.500   1.435  0.4013  0.8959 -2.4198
 4631TIP3   OH213828   1.645   4.192   2.517  0.5693 -0.2829  0.0156
 4631TIP3    H113829   1.717   4.189   2.454  2.1767  1.1240  1.6879
 4631TIP3    H213830   1.591   4.116   2.497  2.8871 -1.7258 -0.8802
 4632TIP3   OH213831   2.887   6.453   2.251 -0.1465 -0.1426 -0.3330
 4632TIP3    H113832   2.903   6.392   2.323  2.1188 -1.3889 -1.8427
 4632TIP3    H213833   2.937   6.417   2.178 -1.7609  1.5422 -2.3054
 4633TIP3   OH213834   2.750   5.429   2.995 -0.7414 -0.0255 -0.2169
 4633TIP3    H113835   2.677   5.419   3.055  0.0912  1.5649  1.1002
 4633TIP3    H213836   2.825   5.390   3.041 -0.0983  1.2238 -0.1752
 4634TIP3   OH213837   2.905   4.269   1.270  0.0448 -0.3697 -0.3860
 4634TIP3    H113838   2.963   4.202   1.307  0.3696 -1.0868 -2.1352
 4634TIP3    H213839   2.957   4.349   1.268 -0.1114 -0.2191  1.0631
 4635TIP3   OH213840   5.107   5.572   3.240  0.1064  0.1142  0.1230
 4635TIP3    H113841   5.014   5.573   3.219 -0.0318  0.5463  0.7365
 4635TIP3    H213842   5.141   5.494   3.197 -0.2304  0.8012 -1.4344
 4636TIP3   OH213843   5.297   1.010   0.533  0.2659 -0.1519  0.1461
 4636TIP3    H113844   5.201   1.018   0.533  0.2353 -0.3489  1.4066
 4636TIP3    H213845   5.326   1.066   0.460 -0.6650  1.9298  1.3172
 4637TIP3   OH213846   3.339   6.929   1.231 -0.1288 -0.2977  0.7509
 4637TIP3    H113847   3.304   7.007   1.188  0.0305 -1.5371 -1.7024
 4637TIP3    H213848   3.379   6.963   1.311 -0.4625  2.0841 -0.0297
 4638TIP3   OH213849   1.534   4.953   2.756  0.2987  0.5799  0.1558
 4638TIP3    H113850   1.572   4.887   2.815 -1.6381 -1.4667 -0.8472
 4638TIP3    H213851   1.592   5.029   2.766  2.0684 -0.9410  2.0062
 4639TIP3   OH213852   8.078   0.742   6.842 -0.3960 -0.3220  0.1049
 4639TIP3    H113853   8.047   0.724   6.753 -1.8030  1.2213  0.2647
 4639TIP3    H213854   8.018   0.694   6.898 -0.8678  0.5030  0.3096
 4640TIP3   OH213855   1.823   3.319   2.712  0.5776 -0.1434  0.2113
 4640TIP3    H113856   1.852   3.393   2.657 -0.6547 -0.9773 -1.6261
 4640TIP3    H213857   1.759   3.358   2.772  0.9731  0.5462  0.1966
 4641TIP3   OH213858   3.519   5.827   2.148  0.0037 -0.2859 -0.1059
 4641TIP3    H113859   3.492   5.867   2.064 -0.0712 -1.2127 -0.5299
 4641TIP3    H213860   3.516   5.733   2.131 -0.3741 -0.4887  1.0574
 4642TIP3   OH213861   2.081   5.573   1.400  0.6639  0.1545  0.0031
 4642TIP3    H113862   1.986   5.574   1.401  0.6721  1.4079  0.2037
 4642TIP3    H213863   2.105   5.631   1.328  1.2728 -0.8433 -0.6165
 4643TIP3   OH213864   5.537   5.339   1.039  0.2583  0.3217 -0.1000
 4643TIP3    H113865   5.486   5.419   1.041 -1.5693 -0.7853 -0.8889
 4643TIP3    H213866   5.628   5.368   1.030 -0.2949  2.2978  0.5937
 4644TIP3   OH213867   1.644   5.686   2.146  0.1610  0.1312 -0.2944
 4644TIP3    H113868   1.725   5.736   2.138  0.4162  0.0476  1.4923
 4644TIP3    H213869   1.652   5.641   2.230 -1.9906  0.5967  0.1892
 4645TIP3   OH213870   2.622   5.386   2.483  0.1507  0.2791 -0.0698
 4645TIP3    H113871   2.655   5.436   2.409  0.7932  1.6846  1.1390
 4645TIP3    H213872   2.636   5.294   2.458  0.9616  0.7480 -1.4000
 4646TIP3   OH213873   4.587   5.896   3.820  0.4058 -0.2128 -0.0073
 4646TIP3    H113874   4.536   5.967   3.858  0.6784 -0.3524  0.6183
 4646TIP3    H213875   4.584   5.912   3.726  3.3106  2.5868  0.3103
 4647TIP3   OH213876   3.269   7.590   2.087 -0.5550  0.0363  0.0126
 4647TIP3    H113877   3.215   7.652   2.039  0.4778  1.1256  0.2441
 4647TIP3    H213878   3.327   7.552   2.021 -0.3947  0.1684  0.0783
 4648TIP3   OH213879   3.327   4.216   3.995  0.2441 -0.0019  0.0887
 4648TIP3    H113880   3.367   4.134   4.024  1.6475  0.7803  0.3900
 4648TIP3    H213881   3.384   4.246   3.924  0.2957  1.2057  0.6354
 4649TIP3   OH213882   4.400   5.373   0.507  0.1594  0.3014  0.1046
 4649TIP3    H113883   4.448   5.290   0.513  0.8575  0.7425  0.7872
 4649TIP3    H213884   4.351   5.367   0.425  0.3004 -0.7351  0.0908
 4650TIP3   OH213885   2.020   3.332   5.417 -0.2104  0.5992  0.3842
 4650TIP3    H113886   1.939   3.379   5.396 -0.9269 -0.1232  1.4622
 4650TIP3    H213887   1.994   3.240   5.421  0.8334  0.2772 -0.0298
 4651TIP3   OH213888   4.243   5.488   1.861 -0.1224 -0.0610 -0.7086
 4651TIP3    H113889   4.324   5.437   1.867  0.5017  0.7679 -1.9131
 4651TIP3    H213890   4.270   5.579   1.874 -0.6039  0.4001 -2.7262
 4652TIP3   OH213891   3.586   7.331   2.018  0.4490 -0.3044  0.1767
 4652TIP3    H113892   3.625   7.396   2.076 -0.3696 -0.0127  0.4084
 4652TIP3    H213893   3.533   7.383   1.956 -0.7250 -0.7811  0.7644
 4653TIP3   OH213894   4.347   4.362   4.372  0.2796 -0.3882 -0.0714
 4653TIP3    H113895   4.270   4.335   4.422  0.1248  0.6021  0.2523
 4653TIP3    H213896   4.394   4.281   4.354  0.5560 -0.7438  2.0574
 4654TIP3   OH213897   2.613   4.629   4.037 -0.5098 -0.0112  0.1422
 4654TIP3    H113898   2.543   4.564   4.032  1.9128 -2.6617 -1.4949
 4654TIP3    H213899   2.666   4.600   4.111 -0.4732  1.2694  0.6233
 4655TIP3   OH213900   1.782   5.861   1.731  0.1710 -0.1822 -0.4808
 4655TIP3    H113901   1.746   5.887   1.646  0.8931  1.5911 -0.2548
 4655TIP3    H213902   1.809   5.770   1.718  0.2548  0.0534 -2.1389
 4656TIP3   OH213903   2.638   5.177   2.870  0.1797 -0.0620 -0.5216
 4656TIP3    H113904   2.622   5.264   2.907  0.8369 -0.7038  1.3619
 4656TIP3    H213905   2.594   5.117   2.931 -0.6895 -1.0372 -2.0632
 4657TIP3   OH213906   2.687   5.844   4.526  0.1561  0.1790  0.1033
 4657TIP3    H113907   2.669   5.823   4.617 -0.8869  1.2215  0.1569
 4657TIP3    H213908   2.634   5.922   4.508  0.6489  0.2258 -1.2757
 4658TIP3   OH213909   4.070   4.748   3.777  0.1038 -0.7527  0.4388
 4658TIP3    H113910   4.049   4.838   3.749 -0.0410 -0.6957  0.7405
 4658TIP3    H213911   3.991   4.698   3.757 -0.4384 -0.4781  1.8521
 4659TIP3   OH213912   3.765   5.153   3.339  0.3637 -0.3057 -0.1049
 4659TIP3    H113913   3.801   5.065   3.353 -2.4672 -1.7209 -1.2658
 4659TIP3    H213914   3.730   5.150   3.250 -0.4675  1.7418  0.1399
 4660TIP3   OH213915   4.188   6.046   3.552  0.0494  0.5866  0.4191
 4660TIP3    H113916   4.135   5.975   3.587  1.2824 -0.5631 -0.0375
 4660TIP3    H213917   4.268   6.004   3.520  0.4477  2.0626 -0.5886
 4661TIP3   OH213918   3.520   4.600   3.266  0.0774 -0.2603  0.5239
 4661TIP3    H113919   3.463   4.550   3.324  0.6949 -0.5414  0.8822
 4661TIP3    H213920   3.582   4.536   3.230  0.6320  0.1759  0.6974
 4662TIP3   OH213921   1.978   4.558   3.770  0.4364  0.3038 -0.2118
 4662TIP3    H113922   1.921   4.630   3.798  2.1482  1.0770  1.3910
 4662TIP3    H213923   1.977   4.563   3.675  0.2323  2.2510 -0.1369
 4663TIP3   OH213924   0.712   2.952   6.517  0.1365 -0.0922  0.3202
 4663TIP3    H113925   0.762   2.948   6.436 -0.8798  1.3817 -0.4129
 4663TIP3    H213926   0.683   3.043   6.522 -1.8860 -0.7554  1.0780
 4664TIP3   OH213927   7.249   7.152   5.152  0.4920 -0.1621  0.2987
 4664TIP3    H113928   7.255   7.206   5.074 -0.2676  0.6723  0.8026
 4664TIP3    H213929   7.260   7.062   5.121  1.3637  0.2547 -0.5997
 4665TIP3   OH213930   3.823   6.483   1.904 -0.2004 -0.4982 -0.0422
 4665TIP3    H113931   3.827   6.539   1.981  0.0901 -1.0542  0.3460
 4665TIP3    H213932   3.897   6.511   1.850 -0.7598  0.3047 -0.4146
 4666TIP3   OH213933   1.315   6.025   1.232  0.4008  0.2989 -0.1129
 4666TIP3    H113934   1.258   6.030   1.309  1.2894  0.1533  0.5672
 4666TIP3    H213935   1.376   6.098   1.243  1.1539 -0.3122 -0.1575
 4667TIP3   OH213936   4.678   7.929   2.893  0.0116 -0.2357 -0.1227
 4667TIP3    H113937   4.736   8.001   2.921 -0.4142  0.7068 -1.6291
 4667TIP3    H213938   4.665   7.877   2.973  0.8775  0.9774  0.8336
 4668TIP3   OH213939   3.172   5.403   2.086  0.4050 -0.1271 -0.3330
 4668TIP3    H113940   3.258   5.365   2.105 -0.2518 -1.1873  0.5440
 4668TIP3    H213941   3.120   5.329   2.055 -0.3556  0.4178 -0.3463
 4669TIP3   OH213942   4.945   6.053   2.037  0.6732 -0.0199 -0.1541
 4669TIP3    H113943   4.896   6.128   2.073 -0.1529 -0.0218 -1.2583
 4669TIP3    H213944   4.879   6.001   1.992  0.7663 -2.8387  2.8167
 4670TIP3   OH213945   5.996   6.118   1.747  0.1826  0.3303  0.2573
 4670TIP3    H113946   6.065   6.099   1.810  0.4481  0.5846  0.0434
 4670TIP3    H213947   5.920   6.142   1.800  0.2342 -0.0300  0.4944
 4671TIP3   OH213948   4.001   5.402   3.287 -0.3239 -0.3714 -0.0058
 4671TIP3    H113949   3.979   5.313   3.313 -1.4140 -0.1799 -0.2478
 4671TIP3    H213950   3.973   5.408   3.196  3.8522 -1.1768 -1.4190
 4672TIP3   OH213951   6.044   5.110   1.460 -0.1945 -0.3110  0.2469
 4672TIP3    H113952   5.972   5.060   1.496  1.0752 -0.4147  2.7076
 4672TIP3    H213953   6.022   5.201   1.479 -0.8291 -0.1561 -1.1626
 4673TIP3   OH213954   3.107   5.420   1.735 -0.1764 -0.4108  0.2638
 4673TIP3    H113955   3.167   5.349   1.711 -1.3575 -0.9241 -1.2130
 4673TIP3    H213956   3.025   5.376   1.755 -0.3929  0.3953  1.1570
 4674TIP3   OH213957   7.374   0.802   0.749 -0.1129 -0.0047 -0.3577
 4674TIP3    H113958   7.458   0.825   0.710 -0.1631 -0.0764 -0.5055
 4674TIP3    H213959   7.391   0.722   0.798 -0.0424  0.1041 -0.2054
 4675TIP3   OH213960   2.570   3.437   2.658  0.2709  0.1582  0.9919
 4675TIP3    H113961   2.592   3.486   2.579  2.5232  1.5265  2.4218
 4675TIP3    H213962   2.542   3.351   2.626  1.1776  0.6741 -1.2740
 4676TIP3   OH213963   2.689   5.302   1.386  0.3472  0.2083 -0.0470
 4676TIP3    H113964   2.681   5.207   1.385  0.7251  0.1810 -0.7895
 4676TIP3    H213965   2.603   5.333   1.414  0.1803 -0.3509  0.0597
 4677TIP3   OH213966   2.130   7.816   1.245  0.0834  0.4200 -0.1654
 4677TIP3    H113967   2.174   7.793   1.163  1.0199 -0.6844  0.6254
 4677TIP3    H213968   2.194   7.794   1.313 -1.6895 -1.2318  1.0136
 4678TIP3   OH213969   4.365   5.370   4.194 -0.1913  0.1794  0.1854
 4678TIP3    H113970   4.442   5.427   4.187 -0.0583 -0.0542 -0.2581
 4678TIP3    H213971   4.346   5.344   4.104  0.4360 -1.3905  0.4995
 4679TIP3   OH213972   3.938   3.923   5.033 -0.3532 -0.4317  0.0097
 4679TIP3    H113973   4.003   3.963   4.975 -0.7101  1.0693  0.6241
 4679TIP3    H213974   3.972   3.939   5.121 -0.9845 -0.6622  0.2982
 4680TIP3   OH213975   3.111   6.250   0.910  0.4913  0.7219  0.0659
 4680TIP3    H113976   3.122   6.206   0.826 -0.1466  0.2149  0.2401
 4680TIP3    H213977   3.024   6.222   0.941  1.8667 -1.3673  2.2019
 4681TIP3   OH213978   5.010   5.188   2.583  0.1157 -0.2771 -0.3921
 4681TIP3    H113979   5.074   5.137   2.533  0.2311 -0.8706  0.3351
 4681TIP3    H213980   5.016   5.276   2.548  0.9308 -0.4549 -0.7135
 4682TIP3   OH213981   3.081   4.159   3.045 -0.0721 -0.6921  0.3024
 4682TIP3    H113982   3.065   4.171   3.138  0.0403 -1.7105  0.4568
 4682TIP3    H213983   3.100   4.066   3.035  2.8826 -0.0842 -0.2989
 4683TIP3   OH213984   5.399   4.683   2.142 -0.3054  0.6467  0.2014
 4683TIP3    H113985   5.311   4.664   2.109 -0.3424  1.2691 -0.0642
 4683TIP3    H213986   5.416   4.773   2.114  1.4076 -0.2894 -1.8498
 4684TIP3   OH213987   2.189   6.116   2.275 -0.0046 -0.6351 -0.0385
 4684TIP3    H113988   2.255   6.099   2.342 -0.3339 -1.7776 -0.0019
 4684TIP3    H213989   2.167   6.209   2.286  0.8605 -0.4998  0.5977
 4685TIP3   OH213990   5.050   4.402   2.240  0.0232  0.2565 -0.7435
 4685TIP3    H113991   4.966   4.394   2.196  0.3033 -0.4826 -1.1423
 4685TIP3    H213992   5.074   4.313   2.262  0.8014  0.4495 -0.8106
 4686TIP3   OH213993   5.937   5.088   3.746 -0.4567  0.0305  0.0301
 4686TIP3    H113994   5.991   5.121   3.817 -1.5981 -0.7109  1.2695
 4686TIP3    H213995   5.928   5.162   3.686 -0.3389  0.9854  1.1722
 4687TIP3   OH213996   1.159   4.017   2.664  0.1975 -0.0793  0.2008
 4687TIP3    H113997   1.164   4.083   2.733  0.5406 -1.7658  1.8105
 4687TIP3    H213998   1.067   3.988   2.666  0.5566 -1.1921  0.9725
 4688TIP3   OH213999   2.990   5.192   2.100  0.0828  0.6884  0.2852
 4688TIP3    H114000   2.980   5.208   2.194  1.4869  0.7772  0.4176
 4688TIP3    H214001   3.016   5.101   2.093  3.1075  1.5158  0.1907
 4689TIP3   OH214002   1.592   3.670   3.153 -0.1850 -0.3091  0.7378
 4689TIP3    H114003   1.568   3.657   3.245  0.4933 -2.6990  0.5944
 4689TIP3    H214004   1.666   3.612   3.139  3.7485  4.4347  0.2755
 4690TIP3   OH214005   2.542   6.190   2.003 -0.2683 -0.4926  0.0330
 4690TIP3    H114006   2.449   6.166   2.002 -0.1922 -0.7941  0.2986
 4690TIP3    H214007   2.582   6.130   2.065  0.1233 -0.4240 -0.1512
 4691TIP3   OH214008   4.009   4.088   1.489 -0.3735  0.6272 -0.1427
 4691TIP3    H114009   3.939   4.066   1.427  0.7057 -0.3830 -1.0280
 4691TIP3    H214010   4.058   4.158   1.446 -1.0615  1.6134  0.6533
 4692TIP3   OH214011   6.437   0.203   0.326  0.2584  0.1798 -0.1076
 4692TIP3    H114012   6.368   0.159   0.276 -0.6014 -0.3494  1.5132
 4692TIP3    H214013   6.496   0.132   0.353  1.5175  0.6421 -1.5723
 4693TIP3   OH214014   3.442   4.221   3.453  0.1232 -0.2804  0.2435
 4693TIP3    H114015   3.405   4.190   3.536 -0.6117 -0.1911 -0.0508
 4693TIP3    H214016   3.396   4.172   3.386  0.5827 -0.2113 -0.1263
 4694TIP3   OH214017   1.541   7.976   2.302  0.5200 -0.0279  0.1513
 4694TIP3    H114018   1.464   7.942   2.257  2.1057 -0.5133 -2.3034
 4694TIP3    H214019   1.552   7.918   2.378 -0.7898 -0.7022 -0.1537
 4695TIP3   OH214020   2.853   7.041   0.734 -0.6313  0.2941  0.3175
 4695TIP3    H114021   2.803   7.119   0.710  0.7533  0.6706 -1.4669
 4695TIP3    H214022   2.943   7.061   0.707 -0.3369 -2.1194 -0.6243
 4696TIP3   OH214023   3.749   5.834   2.301  0.2917 -0.5829  0.3378
 4696TIP3    H114024   3.762   5.929   2.292  1.4114 -0.7977 -0.4310
 4696TIP3    H214025   3.672   5.816   2.247 -1.3830  0.2279  2.3916
 4697TIP3   OH214026   3.801   0.096   2.949 -0.1635 -0.3234  0.0683
 4697TIP3    H114027   3.760   0.085   3.035 -2.4559  1.1802 -0.7598
 4697TIP3    H214028   3.727   0.110   2.890  1.5211  1.2965 -1.7050
 4698TIP3   OH214029   3.737   6.154   2.267 -0.1613 -0.1552 -0.3620
 4698TIP3    H114030   3.677   6.216   2.309  1.1988  0.9349 -0.0076
 4698TIP3    H214031   3.716   6.162   2.173  0.4997  1.4024 -0.3966
 4699TIP3   OH214032   2.166   7.892   2.218 -0.2241  0.1201  0.0112
 4699TIP3    H114033   2.125   7.855   2.141 -0.4144  0.4675 -0.0581
 4699TIP3    H214034   2.158   7.987   2.206  0.7428  0.1873 -0.0747
 4700TIP3   OH214035   3.737   5.882   1.789 -0.2279  0.2961  0.5099
 4700TIP3    H114036   3.751   5.816   1.721 -1.8229  0.6457 -0.1787
 4700TIP3    H214037   3.642   5.896   1.790  0.2183  4.1284 -0.8767
 4701TIP3   OH214038   3.207   3.899   3.076  0.0555  0.5550 -0.8973
 4701TIP3    H114039   3.162   3.842   3.138  1.4425 -0.3717 -0.7185
 4701TIP3    H214040   3.267   3.951   3.130  0.7842  0.2180 -1.3750
 4702TIP3   OH214041   3.203   7.898   1.212  0.2274 -0.4057 -0.0894
 4702TIP3    H114042   3.159   7.824   1.253  0.5824 -0.4183  0.2726
 4702TIP3    H214043   3.291   7.866   1.192  0.2985 -0.1630 -0.1657
 4703TIP3   OH214044   3.657   6.435   1.507 -0.3427  0.3678  0.6874
 4703TIP3    H114045   3.721   6.372   1.539 -1.2553 -1.3854 -0.8620
 4703TIP3    H214046   3.650   6.499   1.578 -1.0749 -2.4795  3.3056
 4704TIP3   OH214047   3.246   4.400   2.932  0.0358  0.5367  0.5875
 4704TIP3    H114048   3.202   4.480   2.904 -0.7652  0.1192  0.6506
 4704TIP3    H214049   3.206   4.379   3.016 -0.2045 -0.2920  0.2668
 4705TIP3   OH214050   1.889   5.959   1.299 -0.1020  0.3283 -0.1352
 4705TIP3    H114051   1.952   5.978   1.369 -2.0802  1.4139  1.4073
 4705TIP3    H214052   1.806   5.993   1.332 -1.4430 -0.7715 -2.2741
 4706TIP3   OH214053   5.731   0.323   0.549 -0.0265  0.5725 -0.6161
 4706TIP3    H114054   5.796   0.259   0.520 -0.9991  0.4129 -2.5313
 4706TIP3    H214055   5.768   0.408   0.526  0.2282  0.5822 -0.1846
 4707TIP3   OH214056   5.019   4.932   1.384 -0.1228  0.0380  0.2934
 4707TIP3    H114057   5.112   4.912   1.368  0.4053  3.3491 -0.9968
 4707TIP3    H214058   4.996   4.875   1.458  2.8459 -1.0407  0.4769
 4708TIP3   OH214059   3.294   4.410   1.466  0.4128 -0.1925 -0.1661
 4708TIP3    H114060   3.350   4.449   1.399  1.1710 -0.0394  0.5599
 4708TIP3    H214061   3.343   4.420   1.547 -0.5539 -0.2867  0.4322
 4709TIP3   OH214062   3.292   4.451   2.275  0.6103 -0.1119 -0.8558
 4709TIP3    H114063   3.226   4.472   2.210  1.6528  0.9996 -1.5674
 4709TIP3    H214064   3.313   4.535   2.317 -0.4045 -0.8777  1.2538
 4710TIP3   OH214065   2.650   4.439   2.632 -0.7024 -0.1742 -0.1434
 4710TIP3    H114066   2.696   4.441   2.548 -2.4659 -0.5316 -1.1511
 4710TIP3    H214067   2.719   4.427   2.697  0.7681  0.8542 -1.4744
 4711TIP3   OH214068   3.180   5.252   1.389  0.2077 -0.2304 -0.0016
 4711TIP3    H114069   3.156   5.266   1.298  0.2319 -2.0928 -0.3097
 4711TIP3    H214070   3.250   5.316   1.405 -1.1941  1.5059 -0.6691
 4712TIP3   OH214071   2.238   5.207   2.715  0.2152 -0.3948 -0.1513
 4712TIP3    H114072   2.292   5.178   2.642  0.5490  1.6373 -0.7602
 4712TIP3    H214073   2.289   5.277   2.756 -1.2765  0.5447  0.1661
 4713TIP3   OH214074   2.463   7.101   2.025 -0.4735  0.2653  0.5921
 4713TIP3    H114075   2.376   7.098   2.065 -1.1150 -3.6203 -0.8483
 4713TIP3    H214076   2.516   7.043   2.079  0.4252  0.2756 -0.2759
 4714TIP3   OH214077   3.738   4.450   2.336  0.1567  0.2506  0.0891
 4714TIP3    H114078   3.724   4.517   2.269 -1.3492  0.3066  0.4449
 4714TIP3    H214079   3.693   4.484   2.413  1.7260  0.1078  1.1053
 4715TIP3   OH214080   0.113   5.046   2.018 -0.2298  0.2289 -0.2634
 4715TIP3    H114081   0.206   5.049   1.995  0.0193 -0.2103  0.6489
 4715TIP3    H214082   0.078   4.974   1.966 -0.4195  1.4297 -1.8331
 4716TIP3   OH214083   1.933   3.992   1.114  0.0329 -0.9820  0.5136
 4716TIP3    H114084   1.848   4.014   1.150  0.2242 -0.8696  0.8983
 4716TIP3    H214085   1.986   4.071   1.127 -0.0050 -0.8108 -0.3402
 4717TIP3   OH214086   3.030   3.559   1.031 -0.0948  0.0156 -0.0439
 4717TIP3    H114087   3.068   3.555   0.943  1.2467  2.6507  0.3464
 4717TIP3    H214088   3.097   3.521   1.088 -1.5330 -2.9843 -0.2644
 4718TIP3   OH214089   3.499   6.973   1.493 -0.4528 -0.2941 -0.1458
 4718TIP3    H114090   3.433   7.008   1.553  0.0335 -0.7957  0.6993
 4718TIP3    H214091   3.575   7.029   1.506 -0.1542 -0.7674  0.1329
 4719TIP3   OH214092   4.931   5.683   1.364  0.5093  0.0522  0.1955
 4719TIP3    H114093   4.904   5.687   1.456  1.2921  0.1828  0.4271
 4719TIP3    H214094   4.895   5.762   1.324  0.2618  0.0523  0.4195
 4720TIP3   OH214095   2.174   5.432   5.694 -0.1702  0.7871 -0.3068
 4720TIP3    H114096   2.187   5.366   5.762 -0.4218  1.2127  0.1541
 4720TIP3    H214097   2.080   5.445   5.690 -0.1668  0.6477 -0.8470
 4721TIP3   OH214098   1.835   4.815   4.132  0.1082 -0.0817 -0.1946
 4721TIP3    H114099   1.885   4.733   4.132  0.8816  0.3762  0.8655
 4721TIP3    H214100   1.803   4.824   4.042 -1.6782 -2.5523  0.1628
 4722TIP3   OH214101   3.276   6.932   0.889 -0.6714 -0.2041  0.3322
 4722TIP3    H114102   3.264   6.931   0.794 -1.4029 -0.0247  0.4155
 4722TIP3    H214103   3.254   7.022   0.915  0.0870 -0.0988  0.6005
 4723TIP3   OH214104   2.624   5.030   1.403 -0.1390 -0.5742 -0.0162
 4723TIP3    H114105   2.658   4.957   1.351 -2.5221 -1.2605 -0.6457
 4723TIP3    H214106   2.649   5.008   1.493  0.8843 -1.1692 -0.4313
 4724TIP3   OH214107   5.997   4.739   2.670 -0.3150 -0.6318 -0.0159
 4724TIP3    H114108   5.909   4.747   2.705 -0.4051 -0.4831 -0.2725
 4724TIP3    H214109   6.046   4.692   2.737 -0.1749  0.7125  0.8400
 4725TIP3   OH214110   7.023   5.221   1.229  0.4375  0.4773 -0.3548
 4725TIP3    H114111   7.073   5.170   1.165  0.0067  1.5786 -1.5817
 4725TIP3    H214112   6.960   5.270   1.177 -1.5560 -0.4299  1.1301
 4726TIP3   OH214113   4.514   5.918   3.263  0.0073 -0.0077  0.5000
 4726TIP3    H114114   4.578   5.938   3.332  0.2704  0.5536  0.1051
 4726TIP3    H214115   4.490   5.827   3.278  2.2166 -0.7651 -0.3771
 4727TIP3   OH214116   7.420   7.873   6.805  0.4808 -0.5126 -0.7446
 4727TIP3    H114117   7.395   7.882   6.714 -0.6090  0.6649 -0.3303
 4727TIP3    H214118   7.515   7.859   6.803  0.5234 -0.0275 -2.0195
 4728TIP3   OH214119   4.268   7.343   1.522 -0.1187  0.0249 -0.2351
 4728TIP3    H114120   4.209   7.409   1.557 -0.4411  0.2645 -1.2116
 4728TIP3    H214121   4.249   7.264   1.573 -0.4542  0.4081  0.2351
 4729TIP3   OH214122   1.629   5.650   0.096 -0.2422  0.3211 -0.8146
 4729TIP3    H114123   1.598   5.698   0.173 -1.3291 -0.4998 -0.7406
 4729TIP3    H214124   1.619   5.712   0.024 -1.0895  0.4062 -0.6227
 4730TIP3   OH214125   3.822   3.723   1.249  0.1282  0.0603  0.4122
 4730TIP3    H114126   3.913   3.753   1.244  0.0571  0.1979 -0.0670
 4730TIP3    H214127   3.793   3.719   1.158 -0.6044  0.8176  0.6050
 4731TIP3   OH214128   0.029   0.287   0.978 -0.2462 -0.1804 -0.0414
 4731TIP3    H114129   0.112   0.261   1.020  0.3863 -0.0855 -1.2244
 4731TIP3    H214130   0.032   0.383   0.977 -2.2214  0.0171  3.5949
 4732TIP3   OH214131   5.951   7.276   0.135 -0.1210 -0.6376  0.1607
 4732TIP3    H114132   6.031   7.265   0.187 -0.2197  0.0911  0.4713
 4732TIP3    H214133   5.966   7.223   0.057  0.4477 -0.9303  0.4618
 4733TIP3   OH214134   6.243   6.339   2.530  0.2924  0.6216  0.4982
 4733TIP3    H114135   6.230   6.308   2.620 -0.1207  1.0809  0.6051
 4733TIP3    H214136   6.228   6.434   2.536 -0.7610  0.5054 -0.2507
 4734TIP3   OH214137   5.358   3.843   0.446  0.3535 -0.4157 -0.3577
 4734TIP3    H114138   5.344   3.771   0.507  1.0674 -0.4755 -0.2663
 4734TIP3    H214139   5.448   3.870   0.461 -0.1459  1.0272  0.1896
 4735TIP3   OH214140   6.382   4.413   2.169  0.0510  0.3486  0.6444
 4735TIP3    H114141   6.401   4.381   2.081  1.6384 -0.7174  1.3406
 4735TIP3    H214142   6.467   4.447   2.200 -0.6983  1.5338  1.4284
 4736TIP3   OH214143   4.573   7.152   0.980  0.0905 -0.0288  0.3136
 4736TIP3    H114144   4.545   7.242   0.962  0.6118 -0.2760 -1.9129
 4736TIP3    H214145   4.561   7.141   1.074 -3.6020  1.1467  0.0496
 4737TIP3   OH214146   3.865   6.038   2.990 -0.2045 -0.4167 -0.3875
 4737TIP3    H114147   3.926   6.109   2.970  1.2237 -1.2346  0.9490
 4737TIP3    H214148   3.910   5.986   3.056 -3.6096  0.6973  3.0237
 4738TIP3   OH214149   5.257   6.598   1.883  0.5735  0.3308 -0.2708
 4738TIP3    H114150   5.248   6.516   1.835 -0.9860  0.6793 -0.5864
 4738TIP3    H214151   5.340   6.634   1.854  0.6762 -0.5324 -1.0517
 4739TIP3   OH214152   5.444   4.807   2.683  0.2580 -0.1454 -0.2359
 4739TIP3    H114153   5.423   4.735   2.624  0.3292 -0.1680 -0.2352
 4739TIP3    H214154   5.410   4.779   2.768 -0.9633  0.4411 -0.5285
 4740TIP3   OH214155   4.826   6.302   0.626  0.0099  0.2637 -0.6589
 4740TIP3    H114156   4.752   6.243   0.639  0.0584  0.3858  0.1887
 4740TIP3    H214157   4.787   6.382   0.591 -0.5163  1.0018  1.5050
 4741TIP3   OH214158   7.911   2.365   6.601  0.2304 -0.4018  0.0899
 4741TIP3    H114159   7.955   2.361   6.516  0.8581  0.3530  0.3761
 4741TIP3    H214160   7.848   2.437   6.593  0.8669  0.2102  0.5288
 4742TIP3   OH214161   5.382   4.629   1.332 -0.2823  0.2352 -0.8599
 4742TIP3    H114162   5.389   4.667   1.420 -0.6041  1.3901 -1.3275
 4742TIP3    H214163   5.461   4.576   1.322 -0.7530 -0.7759  0.5350
 4743TIP3   OH214164   4.498   5.406   1.875  0.4253 -0.0444 -0.4839
 4743TIP3    H114165   4.495   5.337   1.808 -0.2962  0.9525 -1.4868
 4743TIP3    H214166   4.564   5.375   1.937  0.0997 -1.6604 -0.9028
 4744TIP3   OH214167   4.390   6.198   1.692 -0.2735 -0.2886 -0.7167
 4744TIP3    H114168   4.305   6.242   1.695  0.1555  0.5229  0.0606
 4744TIP3    H214169   4.391   6.151   1.609 -0.7823  1.1231 -1.5351
 4745TIP3   OH214170   3.872   5.395   0.482  0.0775 -0.1475 -0.0991
 4745TIP3    H114171   3.860   5.349   0.400  0.9478  1.0439 -0.9147
 4745TIP3    H214172   3.834   5.481   0.468  1.2862  0.4822  0.3224
 4746TIP3   OH214173   3.943   6.945   1.789  0.9120  0.1613  0.1627
 4746TIP3    H114174   3.948   6.867   1.843  1.1764 -0.2561 -0.4553
 4746TIP3    H214175   3.881   6.922   1.719  0.9516  0.5159  0.0066
 4747TIP3   OH214176   6.437   3.712   1.547 -0.3900  0.0205  0.1912
 4747TIP3    H114177   6.405   3.786   1.599  1.6706  0.5493  0.7508
 4747TIP3    H214178   6.524   3.739   1.517 -0.2305 -1.5805 -0.8517
 4748TIP3   OH214179   6.865   3.620   1.244 -0.0995  0.5247  0.3576
 4748TIP3    H114180   6.845   3.570   1.165 -0.5889  0.1998  0.6833
 4748TIP3    H214181   6.841   3.710   1.223  1.7272  0.8171 -0.5815
 4749TIP3   OH214182   5.308   7.992   0.774  0.2210 -0.4658  0.1273
 4749TIP3    H114183   5.356   8.073   0.763  0.8552 -0.6709  1.3137
 4749TIP3    H214184   5.344   7.933   0.707  1.8531 -0.7118  1.1897
 4750TIP3   OH214185   3.782   2.693   5.049  0.1938  0.0411  0.2533
 4750TIP3    H114186   3.732   2.617   5.075  1.0626 -0.3233  0.8675
 4750TIP3    H214187   3.828   2.721   5.128  0.1059  1.0352 -0.0313
 4751TIP3   OH214188   6.655   5.806   0.240  0.0991  0.1090 -0.0465
 4751TIP3    H114189   6.647   5.729   0.184  0.5254 -0.5723  0.8189
 4751TIP3    H214190   6.707   5.868   0.188  0.0269 -0.3101 -0.6229
 4752TIP3   OH214191   2.663   6.531   1.881  0.4490 -0.3297  0.4592
 4752TIP3    H114192   2.685   6.539   1.973  1.3196 -0.1325  0.2397
 4752TIP3    H214193   2.568   6.528   1.879  0.4047  0.4427  1.3009
 4753TIP3   OH214194   5.209   6.372   1.360  0.3116 -0.4534 -0.2332
 4753TIP3    H114195   5.206   6.302   1.295 -1.9915 -1.3091  0.7844
 4753TIP3    H214196   5.137   6.354   1.420  0.4200  2.1091  0.7510
 4754TIP3   OH214197   3.861   6.785   1.341 -0.0275 -0.1312 -0.2758
 4754TIP3    H114198   3.900   6.703   1.311  0.3843  0.6083 -1.8225
 4754TIP3    H214199   3.776   6.788   1.297 -0.3187 -0.0429  0.2965
 4755TIP3   OH214200   6.187   7.450   0.609 -0.6196  0.4068  0.5381
 4755TIP3    H114201   6.234   7.494   0.680  1.0608  1.2454 -1.0315
 4755TIP3    H214202   6.106   7.499   0.599 -0.3857  0.9285  1.1805
 4756TIP3   OH214203   5.554   5.325   3.718  0.0126  0.1049 -0.1909
 4756TIP3    H114204   5.646   5.314   3.740  0.0871 -0.8293 -0.9676
 4756TIP3    H214205   5.510   5.332   3.803  0.7833  0.4597  0.1825
 4757TIP3   OH214206   8.192   0.354   1.020  0.2971  0.3224 -0.7039
 4757TIP3    H114207   8.169   0.439   0.984  2.0281  1.2252  0.2244
 4757TIP3    H214208   8.288   0.357   1.029  0.1488 -0.6718  1.8226
 4758TIP3   OH214209   5.799   5.359   1.226 -0.1505  0.2046 -0.1943
 4758TIP3    H114210   5.704   5.353   1.236 -0.0942  0.5353  0.6131
 4758TIP3    H214211   5.823   5.442   1.268  0.6120 -0.3961  0.6059
 4759TIP3   OH214212   4.951   6.726   1.200  0.3574  0.1863  0.7677
 4759TIP3    H114213   4.898   6.806   1.203  0.4972  0.3025  0.2734
 4759TIP3    H214214   4.978   6.711   1.291  1.6888  1.6370  0.6426
 4760TIP3   OH214215   7.980   4.576   2.771  0.4517  0.4315  0.1678
 4760TIP3    H114216   8.006   4.651   2.718  0.8012 -0.2180 -0.5995
 4760TIP3    H214217   7.938   4.614   2.848 -1.0838  1.3955 -1.0979
 4761TIP3   OH214218   3.682   7.165   1.547 -0.7412 -0.0841  0.3571
 4761TIP3    H114219   3.644   7.252   1.564 -0.4658 -0.0600  0.8425
 4761TIP3    H214220   3.696   7.128   1.634  3.0733  1.0730  0.3208
 4762TIP3   OH214221   1.978   0.722   6.492 -0.1326 -0.6303  0.3423
 4762TIP3    H114222   1.909   0.781   6.525  0.1442  0.0555 -0.2740
 4762TIP3    H214223   2.041   0.716   6.563  1.5780  2.6066 -0.7723
 4763TIP3   OH214224   5.842   6.495   1.866 -0.7810 -0.4259 -0.4277
 4763TIP3    H114225   5.823   6.430   1.933 -0.3671  1.7406  1.8805
 4763TIP3    H214226   5.767   6.492   1.807 -0.8474 -2.8268 -0.2341
 4764TIP3   OH214227   4.614   3.192   6.326 -0.0957  0.3921 -0.0652
 4764TIP3    H114228   4.567   3.130   6.382  0.7181 -1.3921 -1.3394
 4764TIP3    H214229   4.548   3.257   6.302 -0.6311  0.8262  2.3727
 4765TIP3   OH214230   3.649   6.597   3.004 -0.1591  0.2309  0.3997
 4765TIP3    H114231   3.626   6.527   2.943  2.3483  1.3807 -1.9447
 4765TIP3    H214232   3.726   6.563   3.050  0.6685  1.1567 -0.2848
 4766TIP3   OH214233   4.746   6.315   2.579 -0.1109 -0.0849  0.3418
 4766TIP3    H114234   4.698   6.247   2.530 -0.2604 -1.0955  1.8511
 4766TIP3    H214235   4.678   6.361   2.629 -0.4083  3.0670 -2.7718
 4767TIP3   OH214236   3.463   4.830   3.392 -0.3147 -0.2398 -0.2883
 4767TIP3    H114237   3.440   4.892   3.323  1.0443 -0.8517 -1.3191
 4767TIP3    H214238   3.485   4.750   3.346 -0.5541 -1.0228  0.9392
 4768TIP3   OH214239   4.064   6.216   1.466  0.4149  0.0889 -0.1345
 4768TIP3    H114240   4.131   6.147   1.469 -0.1953 -0.5184 -0.5922
 4768TIP3    H214241   3.997   6.183   1.407  0.0469  1.0158 -0.2459
 4769TIP3   OH214242   2.365   5.296   2.362 -0.1676 -0.0195  0.1585
 4769TIP3    H114243   2.414   5.220   2.394 -0.6131 -0.1643  0.4966
 4769TIP3    H214244   2.273   5.274   2.379 -0.3390  0.3168 -0.3381
 4770TIP3   OH214245   8.155   7.683   1.871 -0.0171  0.1834 -0.1081
 4770TIP3    H114246   8.120   7.732   1.946 -0.8822 -0.1705 -0.2829
 4770TIP3    H214247   8.084   7.625   1.844  0.2958  0.2921 -1.1964
 4771TIP3   OH214248   5.719   6.312   0.541 -0.3603  0.0268  0.2073
 4771TIP3    H114249   5.761   6.265   0.469 -1.2260 -0.8543  0.2650
 4771TIP3    H214250   5.670   6.245   0.589 -0.4868  0.7530  1.1087
 4772TIP3   OH214251   3.105   7.348   1.398  0.5932 -0.6446 -0.0662
 4772TIP3    H114252   3.077   7.280   1.336 -0.1325  0.1519 -0.6262
 4772TIP3    H214253   3.025   7.374   1.443  0.7905  0.1433 -0.1618
 4773TIP3   OH214254   3.376   4.754   1.749 -0.3211  0.4189  0.2914
 4773TIP3    H114255   3.285   4.746   1.777  0.0218 -0.7119  1.0722
 4773TIP3    H214256   3.413   4.666   1.758  0.5812  0.6413 -0.9769
 4774TIP3   OH214257   4.186   7.667   0.133 -0.0050  0.1251 -0.2687
 4774TIP3    H114258   4.130   7.690   0.207  0.2420  0.8909 -0.3139
 4774TIP3    H214259   4.176   7.740   0.071  1.3088  0.4607 -0.1151
 4775TIP3   OH214260   1.360   3.422   6.897 -0.0509  0.1017 -0.3082
 4775TIP3    H114261   1.362   3.473   6.978  0.3467 -1.6851  0.8262
 4775TIP3    H214262   1.450   3.392   6.885 -0.3875 -0.7868 -0.6753
 4776TIP3   OH214263   6.429   6.931   2.516  0.1378 -0.3754  0.0044
 4776TIP3    H114264   6.363   6.943   2.585  1.2418 -1.5494  1.3055
 4776TIP3    H214265   6.457   7.020   2.494  1.3466 -0.0366  2.6717
 4777TIP3   OH214266   3.736   6.822   0.455  0.2268 -0.7422  0.0371
 4777TIP3    H114267   3.783   6.873   0.522 -0.0518 -0.3408 -0.0772
 4777TIP3    H214268   3.800   6.811   0.385 -0.6510  2.0626 -1.2845
 4778TIP3   OH214269   4.003   5.536   1.715  0.0620  0.2823 -0.0319
 4778TIP3    H114270   4.078   5.520   1.771  0.4636  0.3904 -0.5388
 4778TIP3    H214271   4.015   5.478   1.640  0.2231  1.1146 -0.6558
 4779TIP3   OH214272   5.485   3.797   2.937 -0.0618 -0.1134 -0.2843
 4779TIP3    H114273   5.408   3.854   2.936  0.4359  0.5603 -0.2216
 4779TIP3    H214274   5.519   3.803   3.026  1.0178  0.8910 -0.7388
 4780TIP3   OH214275   6.465   7.339   1.284  0.2798 -0.5163 -0.0690
 4780TIP3    H114276   6.474   7.433   1.303 -0.1253 -0.6355  0.7378
 4780TIP3    H214277   6.522   7.325   1.208  0.0890  0.4452 -0.4055
 4781TIP3   OH214278   5.315   6.944   0.341 -0.1789  0.2034 -0.1554
 4781TIP3    H114279   5.351   6.895   0.415 -3.4538 -0.9641  0.7079
 4781TIP3    H214280   5.330   6.887   0.265 -0.7656 -0.5577  0.2960
 4782TIP3   OH214281   4.095   6.362   3.437  0.7351  0.7083 -0.3084
 4782TIP3    H114282   4.165   6.339   3.498 -1.3998 -0.7038  1.6368
 4782TIP3    H214283   4.100   6.295   3.369  0.1998 -0.3668  0.7068
 4783TIP3   OH214284   5.330   7.747   1.108  0.3162 -0.4519  0.1433
 4783TIP3    H114285   5.321   7.824   1.052  0.7906  1.3919  2.5111
 4783TIP3    H214286   5.410   7.704   1.078 -1.7314 -1.9519 -3.4028
 4784TIP3   OH214287   1.438   3.929   5.779 -0.6108  0.3555  0.5477
 4784TIP3    H114288   1.364   3.912   5.721 -0.4573  2.2935 -0.2309
 4784TIP3    H214289   1.473   4.014   5.751  1.4172 -0.1466  1.4109
 4785TIP3   OH214290   5.390   6.087   1.184 -0.1102  0.2565 -0.0307
 4785TIP3    H114291   5.326   6.157   1.168 -0.2574 -0.0813 -0.9608
 4785TIP3    H214292   5.463   6.131   1.227 -0.8080  0.7156  0.6951
 4786TIP3   OH214293   4.502   7.989   2.472  0.4399 -0.1152  0.5233
 4786TIP3    H114294   4.576   7.981   2.532 -0.4925 -1.9443  1.4429
 4786TIP3    H214295   4.427   8.009   2.528 -0.0141  0.4769 -0.2772
 4787TIP3   OH214296   3.933   4.759   3.104  0.3856 -0.6244  0.2491
 4787TIP3    H114297   3.958   4.670   3.128  0.4856 -0.2310  1.6400
 4787TIP3    H214298   3.910   4.801   3.187  0.0597  0.5596 -0.4262
 4788TIP3   OH214299   2.528   5.486   1.974  0.7018  0.3376  0.0183
 4788TIP3    H114300   2.519   5.580   1.989 -2.6650  0.3423 -1.6665
 4788TIP3    H214301   2.622   5.469   1.984  1.4678  3.9733 -0.3415
 4789TIP3   OH214302   3.348   4.855   0.815  0.1950 -0.4826 -0.0627
 4789TIP3    H114303   3.363   4.761   0.806 -0.6095 -0.5780 -0.3670
 4789TIP3    H214304   3.279   4.875   0.753  1.6030  0.6445 -1.3006
 4790TIP3   OH214305   3.823   5.561   2.376 -0.1880  0.4045 -0.3194
 4790TIP3    H114306   3.806   5.650   2.345  1.7665  1.2873  1.0511
 4790TIP3    H214307   3.828   5.570   2.471  0.7916 -1.0366 -0.2213
 4791TIP3   OH214308   5.653   4.899   1.103  0.8154  0.0527  0.3848
 4791TIP3    H114309   5.721   4.967   1.099 -0.2342  1.0204 -2.5873
 4791TIP3    H214310   5.640   4.874   1.011  0.4797 -3.5134  1.3349
 4792TIP3   OH214311   5.309   4.528   1.037  0.3316 -0.0297 -0.2151
 4792TIP3    H114312   5.393   4.492   1.009 -0.7807 -2.1126 -0.9671
 4792TIP3    H214313   5.249   4.505   0.966 -1.8120 -2.4051  2.2625
 4793TIP3   OH214314   4.766   7.600   0.687  0.0098  0.4991 -0.0336
 4793TIP3    H114315   4.817   7.667   0.640  0.5215  0.5032  0.5281
 4793TIP3    H214316   4.702   7.571   0.623 -0.1797  1.4870 -0.3135
 4794TIP3   OH214317   5.739   5.198   3.166  0.5070 -0.3171 -0.0131
 4794TIP3    H114318   5.779   5.164   3.086  0.6621  2.1421 -1.0395
 4794TIP3    H214319   5.770   5.140   3.236  2.3330 -1.0502 -1.4017
 4795TIP3   OH214320   2.876   4.569   1.091 -0.4859 -0.4391 -1.1762
 4795TIP3    H114321   2.955   4.533   1.052  0.0219  0.1379 -0.6898
 4795TIP3    H214322   2.846   4.635   1.028 -1.0316 -1.2157 -1.7387
 4796TIP3   OH214323   3.572   4.236   1.212  0.0085 -0.1024 -0.3969
 4796TIP3    H114324   3.587   4.263   1.303  0.3729  0.0210 -0.4919
 4796TIP3    H214325   3.609   4.307   1.160 -0.2141 -0.1661 -0.6415
 4797TIP3   OH214326   7.523   7.715   0.625  0.2598  0.0994 -0.0095
 4797TIP3    H114327   7.465   7.751   0.559 -0.8509 -0.8456  0.4287
 4797TIP3    H214328   7.584   7.659   0.577 -0.7979 -0.9030 -0.2023
 4798TIP3   OH214329   4.237   6.433   1.364 -0.1334 -0.2449 -0.2862
 4798TIP3    H114330   4.195   6.354   1.399  0.8433 -1.0722 -0.9463
 4798TIP3    H214331   4.330   6.410   1.358  0.0595  0.7200 -1.1177
 4799TIP3   OH214332   4.526   5.128   1.414  0.3785 -0.6088 -0.1790
 4799TIP3    H114333   4.617   5.157   1.411  0.1852 -0.0212 -0.4835
 4799TIP3    H214334   4.529   5.035   1.391  0.9190 -0.6286 -0.0207
 4800TIP3   OH214335   3.945   4.439   1.508  0.2391  0.2279  0.1382
 4800TIP3    H114336   4.022   4.487   1.478  1.3875 -0.6196  1.6420
 4800TIP3    H214337   3.960   4.426   1.602 -1.9474  0.4322  0.5451
 4801TIP3   OH214338   4.107   5.634   2.359 -0.7617 -0.0989  0.1592
 4801TIP3    H114339   4.130   5.689   2.433  1.8486  1.1721 -1.5317
 4801TIP3    H214340   4.096   5.546   2.396 -1.7739  0.9397  2.3572
 4802TIP3   OH214341   5.533   5.354   1.359 -0.0899 -0.2020  0.0077
 4802TIP3    H114342   5.447   5.391   1.342 -0.2904 -0.8938 -0.5038
 4802TIP3    H214343   5.539   5.349   1.455 -1.0484 -1.1611  0.0240
 4803TIP3   OH214344   6.379   6.130   0.143 -0.4223  0.1708  0.0145
 4803TIP3    H114345   6.391   6.119   0.237 -2.0271  0.0142  0.2139
 4803TIP3    H214346   6.387   6.225   0.129  1.3407  0.0536  0.0611
 4804TIP3   OH214347   6.032   5.732   0.037 -0.0761 -0.2466  0.0284
 4804TIP3    H114348   5.938   5.733   0.053 -0.1950  1.0492 -0.6555
 4804TIP3    H214349   6.044   5.786  -0.042  1.0833 -1.6509 -0.7923
 4805TIP3   OH214350   4.793   6.220   0.351  0.1435 -0.0659  0.1818
 4805TIP3    H114351   4.780   6.215   0.446 -0.6481 -1.4760  0.0286
 4805TIP3    H214352   4.714   6.179   0.315 -0.1349  1.6003 -1.1158
 4806TIP3   OH214353   4.138   5.505   0.442 -0.4842  0.4290  0.2090
 4806TIP3    H114354   4.151   5.598   0.459 -1.4283  0.2114  2.3619
 4806TIP3    H214355   4.084   5.474   0.516  0.5582 -1.9822  0.0355
 4807TIP3   OH214356   4.352   7.947   0.776 -0.3857 -0.4363  0.0885
 4807TIP3    H114357   4.323   8.034   0.804 -0.8757 -0.6480  0.2466
 4807TIP3    H214358   4.434   7.933   0.823 -1.8125 -1.2921  2.3722
 4808TIP3   OH214359   5.764   7.443   1.926 -0.2163 -0.1124 -0.2130
 4808TIP3    H114360   5.753   7.469   2.017  0.7500 -1.1247  0.2093
 4808TIP3    H214361   5.687   7.479   1.881 -0.4512  0.8016  0.9023
 4809TIP3   OH214362   4.306   4.827   2.936  0.1504 -0.0285 -0.2140
 4809TIP3    H114363   4.336   4.904   2.888 -1.5133  0.7811  0.0170
 4809TIP3    H214364   4.328   4.845   3.027 -1.8955  1.0130  0.0935
 4810TIP3   OH214365   0.058   0.505   0.636 -0.0356 -0.2335 -0.0424
 4810TIP3    H114366  -0.032   0.473   0.633 -0.5539  1.3113 -1.7167
 4810TIP3    H214367   0.060   0.578   0.574  2.1979  0.1979  0.4873
 4811TIP3   OH214368   6.423   5.917   1.745 -0.0678 -0.1641 -0.2230
 4811TIP3    H114369   6.366   5.977   1.792  0.2143  0.9503 -1.2667
 4811TIP3    H214370   6.455   5.856   1.812 -0.8208  0.4836  0.7385
 4812TIP3   OH214371   3.399   2.420   6.329 -0.1104 -0.3346 -0.0353
 4812TIP3    H114372   3.308   2.404   6.305  0.2824 -1.9862 -0.5056
 4812TIP3    H214373   3.433   2.333   6.351  0.7281  0.5808  2.3405
 4813TIP3   OH214374   4.826   4.275   0.842 -0.0187 -0.2985 -0.2696
 4813TIP3    H114375   4.824   4.182   0.820 -0.9994 -0.5964  0.9857
 4813TIP3    H214376   4.892   4.313   0.784  1.5907 -2.0793  0.3794
 4814TIP3   OH214377   4.344   0.467   6.445 -0.1569 -0.6347 -0.8431
 4814TIP3    H114378   4.306   0.553   6.425  0.2146 -0.3858 -0.4714
 4814TIP3    H214379   4.424   0.464   6.392  0.4731 -0.2498  0.0786
 4815TIP3   OH214380   3.239   7.975   0.329  0.3054 -0.2157 -0.1915
 4815TIP3    H114381   3.175   7.905   0.318  0.1662 -0.1950  0.4668
 4815TIP3    H214382   3.310   7.935   0.379  0.0764  0.1963  0.4724
 4816TIP3   OH214383   0.944   8.011   2.535  0.0672  0.3214  0.0106
 4816TIP3    H114384   1.029   7.967   2.529  0.4503  1.0366  0.1548
 4816TIP3    H214385   0.887   7.961   2.476  0.3247 -0.7596  0.6561
 4817TIP3   OH214386   5.999   5.458   2.860 -0.0791 -0.2775 -0.1976
 4817TIP3    H114387   6.051   5.399   2.915 -0.1463 -0.2183 -0.0690
 4817TIP3    H214388   5.909   5.444   2.889 -0.1499 -0.4871 -0.5185
 4818TIP3   OH214389   0.615   0.194   1.574  0.8196 -0.8221 -0.1346
 4818TIP3    H114390   0.666   0.267   1.539 -0.1247 -0.7014 -1.2615
 4818TIP3    H214391   0.580   0.149   1.497 -1.2408 -0.5788  0.6322
 4819TIP3   OH214392   5.572   6.551   0.715 -0.1527  0.2910 -0.4074
 4819TIP3    H114393   5.481   6.527   0.700 -0.0017 -1.3343  1.1322
 4819TIP3    H214394   5.623   6.479   0.678  0.3759 -0.6353  2.0441
 4820TIP3   OH214395   6.824   4.518   1.280  0.2311  0.0567  0.4291
 4820TIP3    H114396   6.799   4.467   1.357 -1.3843  0.8797  0.4643
 4820TIP3    H214397   6.885   4.584   1.314  1.1907 -0.9149  0.6271
 4821TIP3   OH214398   1.966   0.466   6.671  0.2447 -0.4597 -0.1979
 4821TIP3    H114399   1.897   0.531   6.681 -1.0518 -1.5345 -1.9816
 4821TIP3    H214400   2.020   0.499   6.600 -0.6616 -1.5278 -1.3955
 4822TIP3   OH214401   7.423   5.359   1.105  0.1398  0.4733 -0.1953
 4822TIP3    H114402   7.345   5.338   1.054 -0.2592  1.6259 -0.0877
 4822TIP3    H214403   7.485   5.393   1.041  0.8567 -1.1999 -0.4010
 4823TIP3   OH214404   7.104   0.116   3.192  0.3700 -0.0717 -0.2516
 4823TIP3    H114405   7.158   0.078   3.261  0.0453  0.0269  0.0583
 4823TIP3    H214406   7.089   0.045   3.131 -2.0552 -1.0534  1.4211
 4824TIP3   OH214407   3.073   1.889   5.370  0.1137 -0.0795 -0.0255
 4824TIP3    H114408   3.066   1.900   5.275  1.5943 -1.9750 -0.3760
 4824TIP3    H214409   3.129   1.812   5.381  1.0526  0.9163  2.3991
 4825TIP3   OH214410   5.469   5.079   1.827 -0.3086  0.4131  0.0582
 4825TIP3    H114411   5.377   5.091   1.851  0.0902  2.0759  0.8018
 4825TIP3    H214412   5.516   5.147   1.875  1.2175  0.1147 -0.9696
 4826TIP3   OH214413   3.924   6.215   0.320  0.3380 -0.2231  0.1966
 4826TIP3    H114414   4.009   6.212   0.276  0.6396 -0.2369  0.7795
 4826TIP3    H214415   3.879   6.289   0.280  0.0510 -1.1086 -1.1544
 4827TIP3   OH214416   5.299   6.682   2.779 -0.1154 -0.2355  0.6201
 4827TIP3    H114417   5.303   6.708   2.871 -0.7657  1.4819  0.1834
 4827TIP3    H214418   5.205   6.675   2.760 -0.0007  0.3287 -0.1635
 4828TIP3   OH214419   3.618   5.395   3.099  0.4784 -0.2332 -0.1429
 4828TIP3    H114420   3.629   5.300   3.092 -1.7408 -0.5830  0.7184
 4828TIP3    H214421   3.556   5.407   3.172  0.3286  1.8377 -0.5732
 4829TIP3   OH214422   4.260   6.736   0.236 -0.0625  0.1206 -0.5402
 4829TIP3    H114423   4.317   6.812   0.225  2.6950 -2.0395 -1.7774
 4829TIP3    H214424   4.232   6.714   0.148 -0.6093 -0.4718 -0.2210
 4830TIP3   OH214425   7.437   5.580   2.099  0.9682 -0.9126  0.0637
 4830TIP3    H114426   7.424   5.506   2.039  1.2626 -1.1065  0.2398
 4830TIP3    H214427   7.363   5.574   2.160 -0.4478  0.4503 -1.4681
 4831TIP3   OH214428   7.389   0.994   6.375  0.3148  0.3144 -0.3336
 4831TIP3    H114429   7.473   0.953   6.355  1.0425  2.1273 -1.1911
 4831TIP3    H214430   7.398   1.083   6.339 -1.0633  1.3119  1.7283
 4832TIP3   OH214431   7.098   6.664   6.785 -0.2293  0.4255  0.0183
 4832TIP3    H114432   7.022   6.662   6.726  0.7852  2.3734 -1.4107
 4832TIP3    H214433   7.117   6.757   6.796  1.9482 -0.0490  0.3426
 4833TIP3   OH214434   5.848   4.135   1.433 -0.3431 -0.2614 -0.4880
 4833TIP3    H114435   5.943   4.128   1.444 -0.1211  0.6155 -1.8023
 4833TIP3    H214436   5.821   4.200   1.499 -0.0908 -0.7913  0.1421
 4834TIP3   OH214437   5.440   3.595   2.778 -0.2395 -0.0835 -0.1807
 4834TIP3    H114438   5.442   3.537   2.855 -1.9821 -0.0676 -0.1157
 4834TIP3    H214439   5.471   3.679   2.812 -2.0719  0.2195  0.7723
 4835TIP3   OH214440   4.255   5.067   1.004 -0.2355  0.1555 -0.1575
 4835TIP3    H114441   4.237   4.988   1.056 -0.6887  1.1655  1.2405
 4835TIP3    H214442   4.169   5.097   0.975 -0.0677  0.1705 -0.6467
 4836TIP3   OH214443   3.076   4.469   1.665  0.1096 -0.4138 -0.4313
 4836TIP3    H114444   3.093   4.389   1.715  0.9202  0.2380  0.3657
 4836TIP3    H214445   3.142   4.467   1.595 -0.4130 -0.8534 -0.9176
 4837TIP3   OH214446   5.631   5.195   2.861 -0.0320 -0.0535  0.2944
 4837TIP3    H114447   5.695   5.125   2.847  0.8759  1.1011 -1.4470
 4837TIP3    H214448   5.568   5.185   2.790  0.7483  1.5961 -0.6564
 4838TIP3   OH214449   4.379   5.840   0.066  0.2380  0.3514 -0.5352
 4838TIP3    H114450   4.371   5.749   0.036 -1.0925  0.1472  0.3955
 4838TIP3    H214451   4.401   5.832   0.159  0.7988  0.9879 -0.6124
 4839TIP3   OH214452   1.694   2.231   2.507 -0.3293 -0.3296  0.0304
 4839TIP3    H114453   1.747   2.176   2.450 -0.3620 -0.3311  0.0012
 4839TIP3    H214454   1.731   2.218   2.595  0.5403  0.6696 -0.1836
 4840TIP3   OH214455   3.454   4.306   6.236 -0.5865 -0.2044  0.0903
 4840TIP3    H114456   3.525   4.315   6.174 -1.4335  0.8838 -0.7413
 4840TIP3    H214457   3.390   4.249   6.192 -0.0505 -1.5596  1.0131
 4841TIP3   OH214458   3.996   5.007   3.757 -0.3467  0.1492 -0.1084
 4841TIP3    H114459   3.994   5.068   3.683  0.6289  1.4305  0.8983
 4841TIP3    H214460   4.067   5.038   3.812 -0.8075 -1.0245  1.1919
 4842TIP3   OH214461   3.970   6.250   1.196  0.0049 -0.3995 -0.1697
 4842TIP3    H114462   4.060   6.261   1.165 -0.5940 -1.3900 -2.3064
 4842TIP3    H214463   3.920   6.317   1.150 -0.5386 -0.5633  0.1786
 4843TIP3   OH214464   4.911   7.602   4.066  0.5052  0.2545  0.6822
 4843TIP3    H114465   4.976   7.586   4.133 -1.0348 -2.2182  1.6571
 4843TIP3    H214466   4.835   7.550   4.092 -2.0876  3.3996 -0.1422
 4844TIP3   OH214467   5.482   6.614   3.390  0.3501  0.1804 -0.8881
 4844TIP3    H114468   5.574   6.586   3.390  1.2778  3.0297 -1.5085
 4844TIP3    H214469   5.443   6.567   3.316  1.9256  0.7620 -2.1309
 4845TIP3   OH214470   6.647   5.657   0.495 -0.0409 -0.1369  0.1204
 4845TIP3    H114471   6.650   5.709   0.415  1.4627 -0.3743 -0.0043
 4845TIP3    H214472   6.597   5.578   0.472 -0.0117  0.0134 -0.4532
 4846TIP3   OH214473   5.862   6.619   3.446  0.3731 -0.3865  0.0034
 4846TIP3    H114474   5.917   6.604   3.523  0.2159 -1.6449 -0.1046
 4846TIP3    H214475   5.777   6.646   3.482  0.2189 -1.2289  0.3039
 4847TIP3   OH214476   3.472   5.687   1.370 -0.2805 -0.4052 -0.0686
 4847TIP3    H114477   3.551   5.646   1.405  0.5106  0.5628 -0.7157
 4847TIP3    H214478   3.494   5.706   1.279 -0.4629  1.9391  0.3693
 4848TIP3   OH214479   5.060   6.357   0.310  0.5473 -0.0466  0.3949
 4848TIP3    H114480   5.105   6.413   0.373  1.5778 -0.4344  0.0204
 4848TIP3    H214481   4.977   6.336   0.352 -0.1020  2.2151  0.2936
 4849TIP3   OH214482   3.082   7.268   2.431 -0.4025  0.4287 -0.5960
 4849TIP3    H114483   3.035   7.191   2.400 -0.6249  0.1550  0.4027
 4849TIP3    H214484   3.174   7.241   2.435 -0.8377 -0.8353  2.7761
 4850TIP3   OH214485   1.069   0.403   6.545  0.2556  0.4933  0.0659
 4850TIP3    H114486   1.057   0.343   6.619  0.4822 -0.8021 -0.9271
 4850TIP3    H214487   1.146   0.370   6.500 -0.0358  1.1255 -0.9057
 4851TIP3   OH214488   5.948   7.934   1.427  0.1157 -0.1591 -0.3974
 4851TIP3    H114489   5.925   7.847   1.460 -1.1839 -0.8661 -3.0081
 4851TIP3    H214490   5.871   7.961   1.376  0.1822  2.8711  0.9610
 4852TIP3   OH214491   3.758   6.007   3.288 -0.4318  0.7513  0.6147
 4852TIP3    H114492   3.747   5.975   3.198  0.5660  2.4109 -0.1104
 4852TIP3    H214493   3.848   5.984   3.310 -0.2885  1.4291  0.7447
 4853TIP3   OH214494   2.449   5.073   4.502 -0.4166 -0.2477  0.1428
 4853TIP3    H114495   2.536   5.032   4.500 -0.4882 -0.3642 -0.6961
 4853TIP3    H214496   2.460   5.149   4.559 -0.1334 -1.0895  1.2361
 4854TIP3   OH214497   4.553   4.843   2.116 -0.1126 -0.4336 -0.3528
 4854TIP3    H114498   4.624   4.779   2.113  0.0612 -0.2998  0.6849
 4854TIP3    H214499   4.473   4.791   2.126  0.1680 -0.4285  2.0533
 4855TIP3   OH214500   2.938   4.607   1.344 -0.5143  0.1555  0.3754
 4855TIP3    H114501   3.015   4.663   1.336  0.3722 -0.9884  0.6643
 4855TIP3    H214502   2.904   4.599   1.255  0.8901 -0.9304 -0.0908
 4856TIP3   OH214503   5.380   4.369   2.186 -0.1761  0.2399 -0.2712
 4856TIP3    H114504   5.301   4.348   2.136 -0.2185 -0.4892  0.0974
 4856TIP3    H214505   5.427   4.286   2.193 -0.1952  0.3204  0.9304
 4857TIP3   OH214506   8.200   0.267   1.572 -0.1205  0.2538  0.5008
 4857TIP3    H114507   8.293   0.273   1.550 -0.6709  0.7966 -1.7917
 4857TIP3    H214508   8.199   0.254   1.667  2.2893  0.2359  0.5580
 4858TIP3   OH214509   5.245   6.375   2.532  0.8076 -0.1924 -0.1942
 4858TIP3    H114510   5.194   6.354   2.454  0.4370  0.0985 -0.0292
 4858TIP3    H214511   5.185   6.360   2.605  1.1691 -0.5102  0.0405
 4859TIP3   OH214512   4.411   4.441   4.684  0.1324  0.3241 -0.0729
 4859TIP3    H114513   4.343   4.410   4.624  0.0557 -0.2849  0.3181
 4859TIP3    H214514   4.482   4.468   4.626 -0.1635  0.2868 -0.4632
 4860TIP3   OH214515   4.508   2.184   6.552  0.2075 -0.1648  0.1490
 4860TIP3    H114516   4.419   2.149   6.557  0.4146 -1.4914 -3.5611
 4860TIP3    H214517   4.556   2.135   6.619 -1.3250 -1.2287  0.5081
 4861TIP3   OH214518   4.867   5.621   4.700 -0.1827 -0.1052  0.0313
 4861TIP3    H114519   4.914   5.662   4.772  0.0746  0.6185 -0.5448
 4861TIP3    H214520   4.811   5.555   4.743  1.0305 -0.6927  0.7522
 4862TIP3   OH214521   5.778   5.776   2.031 -0.2464  0.0333 -0.0537
 4862TIP3    H114522   5.840   5.806   2.098 -2.1753 -0.0465  1.7930
 4862TIP3    H214523   5.724   5.710   2.076 -0.6235 -1.0877 -2.1014
 4863TIP3   OH214524   5.193   5.137   1.197 -0.1139  0.2344 -0.0704
 4863TIP3    H114525   5.194   5.091   1.282 -0.1656  0.1780 -0.1004
 4863TIP3    H214526   5.267   5.101   1.150 -0.0198  0.3425 -0.0076
 4864TIP3   OH214527   4.906   5.220   3.634 -0.3898  0.1562 -0.5033
 4864TIP3    H114528   4.998   5.196   3.622 -0.3416  0.2594 -0.3367
 4864TIP3    H214529   4.868   5.211   3.547  0.0632  1.3302 -0.8473
 4865TIP3   OH214530   5.221   4.981   1.681 -0.0058  0.3664 -0.1390
 4865TIP3    H114531   5.195   4.986   1.773 -1.1663 -0.9788 -0.3635
 4865TIP3    H214532   5.235   5.071   1.654 -2.8576  1.0332  0.4827
 4866TIP3   OH214533   3.473   5.363   1.894 -0.1090  0.4491 -0.3939
 4866TIP3    H114534   3.560   5.400   1.878 -0.2810  0.5595 -1.1072
 4866TIP3    H214535   3.437   5.348   1.807 -1.8711  2.9018 -0.1513
 4867TIP3   OH214536   4.482   5.693   2.559 -0.6227 -0.2643  0.5376
 4867TIP3    H114537   4.570   5.678   2.593 -0.3146  0.7690  0.2054
 4867TIP3    H214538   4.458   5.609   2.519  0.3189 -0.4727  0.3868
 4868TIP3   OH214539   5.997   4.899   1.069  0.3591  0.5214 -0.0753
 4868TIP3    H114540   5.955   4.985   1.057  0.4102  0.4563 -0.7380
 4868TIP3    H214541   6.087   4.920   1.097  0.3926  0.6875 -0.3052
 4869TIP3   OH214542   6.078   3.742   2.879 -0.5244 -0.0105  0.0390
 4869TIP3    H114543   6.158   3.767   2.927 -1.6516 -2.2743  3.3004
 4869TIP3    H214544   6.110   3.698   2.801  1.4711 -0.5265  1.0899
 4870TIP3   OH214545   4.928   4.224   3.600 -0.0188  0.1337 -0.4713
 4870TIP3    H114546   4.956   4.202   3.511 -0.0733  1.7168 -0.8846
 4870TIP3    H214547   4.930   4.320   3.604 -0.7945  0.1145  0.9803
 4871TIP3   OH214548   0.767   3.308   6.758  0.1114 -0.1365 -0.0107
 4871TIP3    H114549   0.673   3.295   6.763  0.0134  1.3385  2.5230
 4871TIP3    H214550   0.805   3.223   6.781 -0.5891 -0.0473  1.4942
 4872TIP3   OH214551   6.577   5.733   1.009  0.3546  0.2801  0.1867
 4872TIP3    H114552   6.584   5.805   1.072 -0.9901  0.3023  0.3375
 4872TIP3    H214553   6.657   5.682   1.022 -0.0004  0.1466  2.1018
 4873TIP3   OH214554   6.285   7.982   1.114 -0.4033  0.1518 -0.4227
 4873TIP3    H114555   6.278   7.888   1.097  0.3759  0.2551 -1.2771
 4873TIP3    H214556   6.246   8.024   1.037  0.7602  0.5614 -0.7924
 4874TIP3   OH214557   8.013   1.781   6.695 -0.3840 -0.1113 -0.3990
 4874TIP3    H114558   7.981   1.870   6.712 -0.5279 -0.4357  1.0821
 4874TIP3    H214559   8.057   1.755   6.776 -1.8763 -2.0634 -0.1745
 4875TIP3   OH214560   3.905   2.129   6.676 -0.5903 -0.2332  0.4849
 4875TIP3    H114561   3.822   2.122   6.723 -0.9047 -1.9365 -0.2986
 4875TIP3    H214562   3.954   2.052   6.702 -0.3886 -0.7028 -1.2215
 4876TIP3   OH214563   1.990   3.063   6.736 -0.3125  0.7033 -0.2242
 4876TIP3    H114564   1.995   3.147   6.783 -0.2366  0.1738  0.7255
 4876TIP3    H214565   2.054   3.007   6.779  0.1465  0.3675 -1.3214
 4877TIP3   OH214566   0.502   0.184   2.208  0.0794  0.3331  0.2477
 4877TIP3    H114567   0.460   0.199   2.292  0.8942  0.5725  0.6115
 4877TIP3    H214568   0.451   0.113   2.168 -0.1012 -0.0060  1.0734
 4878TIP3   OH214569   3.338   0.382   6.691 -0.3610 -0.0495 -0.1482
 4878TIP3    H114570   3.243   0.385   6.681 -0.4077  0.6748  0.4595
 4878TIP3    H214571   3.372   0.418   6.609 -0.5713 -1.8904 -1.0606
 4879TIP3   OH214572   5.337   7.447   1.290  0.3246  0.9903 -0.2759
 4879TIP3    H114573   5.329   7.460   1.195 -0.1456  0.6580 -0.2844
 4879TIP3    H214574   5.430   7.459   1.308  0.5667  0.1944 -0.9217
 4880TIP3   OH214575   7.135   5.289   2.227 -0.0682 -0.3843 -0.2173
 4880TIP3    H114576   7.140   5.363   2.167  1.2116  0.5452  0.9884
 4880TIP3    H214577   7.055   5.302   2.277 -0.7762 -0.7887 -1.2542
 4881TIP3   OH214578   5.690   0.070   6.202 -0.5687  0.6596  0.0616
 4881TIP3    H114579   5.670  -0.019   6.230 -0.3681 -0.0771 -2.0412
 4881TIP3    H214580   5.757   0.100   6.263 -0.1850 -0.8576  0.4152
 4882TIP3   OH214581   4.557   6.214   0.567 -0.2524 -0.2120  0.0619
 4882TIP3    H114582   4.518   6.295   0.599 -1.8307 -1.3895  1.2044
 4882TIP3    H214583   4.486   6.170   0.520  0.8385 -0.5215 -1.3231
 4883TIP3   OH214584   4.413   6.644   0.681  0.0254 -0.3008  0.4213
 4883TIP3    H114585   4.441   6.566   0.729 -0.1278  0.1596  1.2543
 4883TIP3    H214586   4.472   6.713   0.710 -0.5167  0.1418  0.4622
 4884TIP3   OH214587   6.380   4.584   1.839 -0.0051  0.1664 -0.0005
 4884TIP3    H114588   6.324   4.568   1.764  1.2957  0.3211 -1.0288
 4884TIP3    H214589   6.389   4.680   1.842  1.7376  0.0657 -1.0281
 4885TIP3   OH214590   4.011   4.956   2.943 -0.2752  0.2645 -0.4882
 4885TIP3    H114591   4.022   5.022   3.012  2.0633 -0.2889 -0.2986
 4885TIP3    H214592   3.981   4.878   2.989 -1.1566  0.6295 -0.4428
 4886TIP3   OH214593   7.790   4.626   1.718 -0.2842 -0.7981 -0.1384
 4886TIP3    H114594   7.742   4.681   1.656  0.8108 -1.5846 -1.7015
 4886TIP3    H214595   7.745   4.542   1.715  1.4261 -1.6773 -1.9449
 4887TIP3   OH214596   4.873   5.377   0.608  0.1652  0.7475 -0.1890
 4887TIP3    H114597   4.812   5.391   0.680  1.1442  0.4066  0.7016
 4887TIP3    H214598   4.958   5.366   0.649  0.5790 -0.4633 -1.3202
 4888TIP3   OH214599   4.362   4.847   0.686  0.8069  0.4606 -0.0821
 4888TIP3    H114600   4.400   4.922   0.732  1.8430  0.4179 -0.8510
 4888TIP3    H214601   4.375   4.866   0.594  1.2437 -0.7538 -0.2847
 4889TIP3   OH214602   7.256   2.614   3.018 -0.0416 -0.1804 -0.2118
 4889TIP3    H114603   7.283   2.567   2.939 -0.5774  1.6969 -1.5753
 4889TIP3    H214604   7.246   2.705   2.988  0.5645  0.7149  2.2234
 4890TIP3   OH214605   6.106   6.287   1.491 -0.0660 -0.2343 -0.5835
 4890TIP3    H114606   6.046   6.232   1.540  0.7323 -1.6816 -1.1916
 4890TIP3    H214607   6.137   6.231   1.420  1.3958  0.7190 -0.7237
 4891TIP3   OH214608   0.194   5.140   2.705 -0.3881  0.1025 -0.2351
 4891TIP3    H114609   0.194   5.195   2.783  0.9983 -1.2174  0.7273
 4891TIP3    H214610   0.106   5.150   2.669 -1.3072  0.1501  1.9317
 4892TIP3   OH214611   5.623   6.656   0.968  0.0665 -0.4225 -0.3826
 4892TIP3    H114612   5.592   6.619   0.885  1.5922 -0.5579 -0.9046
 4892TIP3    H214613   5.702   6.607   0.988 -0.5158 -0.6764  1.3875
 4893TIP3   OH214614   5.608   5.518   1.798  0.2917 -0.1658 -0.7991
 4893TIP3    H114615   5.551   5.594   1.808 -0.5380 -0.6000 -2.1109
 4893TIP3    H214616   5.696   5.552   1.815 -0.2659  0.6717  0.4750
 4894TIP3   OH214617   2.122   1.807   6.920 -0.3664 -0.1315  0.5527
 4894TIP3    H114618   2.115   1.902   6.911  1.6075 -0.0147 -0.0958
 4894TIP3    H214619   2.178   1.780   6.848  0.6743 -1.5400  1.8449
 4895TIP3   OH214620   3.316   4.679   1.104  0.4497 -0.5454 -0.8862
 4895TIP3    H114621   3.254   4.673   1.031 -0.9437  0.3685  0.1828
 4895TIP3    H214622   3.369   4.756   1.084 -1.8964  1.5273  0.4641
 4896TIP3   OH214623   5.174   4.481   2.465  0.5060  0.6861 -0.3221
 4896TIP3    H114624   5.156   4.444   2.378 -1.3522  0.5609  0.0906
 4896TIP3    H214625   5.118   4.559   2.469  1.9476  1.7147  0.0757
 4897TIP3   OH214626   5.631   5.276   1.969 -0.0459  0.5161 -0.4202
 4897TIP3    H114627   5.649   5.369   1.954 -0.0537  0.3335 -1.6207
 4897TIP3    H214628   5.622   5.268   2.064 -0.7910  1.8833 -0.3612
 4898TIP3   OH214629   4.785   6.783   0.489 -0.3020 -0.0869  0.0663
 4898TIP3    H114630   4.759   6.788   0.397  1.3870 -0.7893 -0.4762
 4898TIP3    H214631   4.880   6.774   0.486  0.1306  3.3430  1.9993
 4899TIP3   OH214632   5.119   5.620   2.221  0.0301 -0.0812  1.0254
 4899TIP3    H114633   5.187   5.676   2.184 -0.4823 -1.0399 -1.4852
 4899TIP3    H214634   5.069   5.677   2.280  0.4842  1.6809 -0.2626
 4900TIP3   OH214635   5.175   6.513   1.009 -0.5313  0.1061 -0.1839
 4900TIP3    H114636   5.101   6.573   0.994  0.1422  0.6032 -1.6855
 4900TIP3    H214637   5.252   6.570   1.006  0.0458 -0.6977 -0.6679
 4901TIP3   OH214638   5.015   4.515   0.724 -0.5585 -0.4937  0.0140
 4901TIP3    H114639   5.054   4.458   0.790  1.6729  0.4144 -0.4609
 4901TIP3    H214640   5.090   4.564   0.688 -1.9848  0.3216 -1.8990
 4902TIP3   OH214641   2.552   7.458   1.242  0.0933 -0.0993 -0.0261
 4902TIP3    H114642   2.584   7.547   1.259 -0.8476  0.0954  0.7621
 4902TIP3    H214643   2.531   7.458   1.148  1.0333  0.2060 -0.2374
 4903TIP3   OH214644   5.625   4.851   2.390  0.0161 -0.4488 -0.1299
 4903TIP3    H114645   5.593   4.774   2.436  0.0924 -0.7561 -0.5880
 4903TIP3    H214646   5.720   4.838   2.383 -0.1459 -0.9842 -1.4363
 4904TIP3   OH214647   6.881   6.199   0.592  0.0709 -0.4809  0.0174
 4904TIP3    H114648   6.793   6.209   0.555 -1.0629  0.5860  2.8503
 4904TIP3    H214649   6.940   6.207   0.517 -2.1229  1.2483 -1.5869
 4905TIP3   OH214650   5.573   7.172   0.420 -0.1040  0.3125  0.3811
 4905TIP3    H114651   5.509   7.108   0.387 -0.3740  0.5848  0.3680
 4905TIP3    H214652   5.615   7.206   0.341  1.1033 -0.9350  0.4726
 4906TIP3   OH214653   5.345   5.420   1.919  0.0593  0.2033  0.1387
 4906TIP3    H114654   5.403   5.454   1.988 -0.9704 -0.0826  1.1764
 4906TIP3    H214655   5.363   5.474   1.843  1.7436  0.0662  0.4238
 4907TIP3   OH214656   3.985   5.152   1.823 -0.3504 -0.0863 -0.0143
 4907TIP3    H114657   4.007   5.072   1.774 -1.7562 -1.3491  1.3594
 4907TIP3    H214658   3.983   5.221   1.757 -0.9829 -1.5342 -1.5308
 4908TIP3   OH214659   5.824   5.888   1.334 -0.0323  0.2592 -0.0903
 4908TIP3    H114660   5.854   5.821   1.272 -0.3240 -0.2336  0.2949
 4908TIP3    H214661   5.903   5.912   1.383  0.0324  0.0517 -0.0934
 4909TIP3   OH214662   4.282   3.111   6.670  0.2345  0.0628 -0.3672
 4909TIP3    H114663   4.197   3.139   6.638  0.2860  1.1007  0.4143
 4909TIP3    H214664   4.269   3.092   6.763  1.1917  1.6561  0.1024
 4910TIP3   OH214665   4.850   7.293   2.463  0.2757  0.5289 -0.6217
 4910TIP3    H114666   4.834   7.290   2.368 -2.2410  0.7859 -0.2227
 4910TIP3    H214667   4.839   7.203   2.492 -0.9655  0.7924 -0.2637
 4911TIP3   OH214668   0.387   0.116   2.486  0.0101  0.1947  0.4525
 4911TIP3    H114669   0.468   0.093   2.531  0.8770  0.1506 -1.0981
 4911TIP3    H214670   0.345   0.033   2.467 -0.6955  0.2373  1.7542
 4912TIP3   OH214671   0.279   1.724   6.249  0.1260 -0.0096 -0.0067
 4912TIP3    H114672   0.245   1.695   6.164 -0.6600 -0.0433  0.3088
 4912TIP3    H214673   0.373   1.735   6.235  0.2149 -1.2929 -0.5243
 4913TIP3   OH214674   4.602   6.540   2.914 -0.4507 -0.0994 -0.2907
 4913TIP3    H114675   4.562   6.601   2.852  0.5579  0.0344 -0.8359
 4913TIP3    H214676   4.633   6.596   2.985  0.4716  0.0362 -0.7894
 4914TIP3   OH214677   8.284   0.022   1.299 -0.2427  0.1043 -0.6277
 4914TIP3    H114678   8.327   0.107   1.289  0.7298 -0.1924  0.9023
 4914TIP3    H214679   8.268  -0.008   1.209  1.0070  1.0881 -1.1920
 4915TIP3   OH214680   3.688   4.058   0.386 -0.9324  0.3707  0.3249
 4915TIP3    H114681   3.671   4.108   0.466 -0.9664  1.9124 -0.6251
 4915TIP3    H214682   3.776   4.024   0.397 -0.8155  0.8513  0.8928
 4916TIP3   OH214683   7.861   5.151   4.948  0.2539  0.3337 -0.3644
 4916TIP3    H114684   7.803   5.152   4.872  0.5484 -0.2768 -0.6032
 4916TIP3    H214685   7.944   5.118   4.915  0.4744  0.3509  0.1593
 4917TIP3   OH214686   6.034   5.889   0.651  0.2492 -0.3450  0.6448
 4917TIP3    H114687   6.115   5.837   0.653  0.2262 -0.3978  0.1791
 4917TIP3    H214688   6.062   5.977   0.676  0.6850 -0.0563 -0.8009
 4918TIP3   OH214689   4.375   7.002   0.705  0.5393  0.1719  0.4829
 4918TIP3    H114690   4.447   7.002   0.643 -0.1011 -1.4286 -0.2895
 4918TIP3    H214691   4.399   6.936   0.770  0.5544  0.8445  1.1740
 4919TIP3   OH214692   2.085   4.008   1.738  0.4798  0.2852  0.0090
 4919TIP3    H114693   2.140   4.033   1.813  1.6287  3.3390 -1.7589
 4919TIP3    H214694   2.147   3.984   1.670 -0.4937 -0.2762 -0.6905
 4920TIP3   OH214695   4.893   4.970   1.897 -0.6847  0.4815  0.3679
 4920TIP3    H114696   4.859   5.049   1.939  0.1381  0.9126  0.2382
 4920TIP3    H214697   4.981   4.959   1.934  0.8241  1.9769 -2.6490
 4921TIP3   OH214698   5.918   5.349   1.555 -0.1542 -0.0384  0.1971
 4921TIP3    H114699   5.847   5.402   1.518  0.3471  0.1463 -0.5145
 4921TIP3    H214700   5.996   5.403   1.544  0.2710 -0.6894 -0.0262
 4922TIP3   OH214701   7.066   5.706   0.860 -0.1430  0.0701  0.3713
 4922TIP3    H114702   7.116   5.774   0.817 -0.3732 -0.7619 -1.2516
 4922TIP3    H214703   7.024   5.658   0.789  2.1434 -3.4505  1.2660
 4923TIP3   OH214704   3.884   7.421   0.676  0.0352  0.0377 -0.7327
 4923TIP3    H114705   3.852   7.351   0.619  1.7235 -1.0473 -0.3762
 4923TIP3    H214706   3.887   7.499   0.620  1.8452 -1.0533 -2.1864
 4924TIP3   OH214707   3.867   6.482   2.194 -0.2519  0.1407 -0.3314
 4924TIP3    H114708   3.801   6.434   2.245 -0.6400 -0.5253 -1.4464
 4924TIP3    H214709   3.919   6.414   2.152 -0.2333  0.6812 -1.1997
 4925TIP3   OH214710   2.009   3.800   1.928 -0.2066  0.2034  0.1132
 4925TIP3    H114711   1.945   3.738   1.893 -0.7274  0.7366  0.1038
 4925TIP3    H214712   2.024   3.862   1.857  0.9020 -0.3544 -0.1479
 4926TIP3   OH214713   5.219   5.659   1.386  0.1554  0.0998  0.4622
 4926TIP3    H114714   5.125   5.666   1.368  0.7924 -0.9731 -3.8551
 4926TIP3    H214715   5.253   5.748   1.372  0.3145 -0.3038 -2.0329
 4927TIP3   OH214716   6.062   3.046   2.023  0.2326 -0.9002 -0.5997
 4927TIP3    H114717   5.982   3.004   1.990 -2.0145  1.8713  1.1020
 4927TIP3    H214718   6.084   2.996   2.103  1.7846 -3.3084 -2.4537
 4928TIP3   OH214719   5.654   5.605   3.149 -0.3987  0.4068 -0.4319
 4928TIP3    H114720   5.563   5.576   3.148 -0.3210  0.0193  1.1973
 4928TIP3    H214721   5.655   5.679   3.210  0.2807  0.7175 -0.8121
 4929TIP3   OH214722   6.239   4.194   4.185 -0.3277 -0.3981  0.2316
 4929TIP3    H114723   6.218   4.139   4.110  0.2121  1.0067 -0.9884
 4929TIP3    H214724   6.269   4.277   4.146 -0.5627  0.5470  1.9966
 4930TIP3   OH214725   5.597   6.072   0.346 -0.0966 -0.2032 -0.0497
 4930TIP3    H114726   5.625   6.057   0.437  0.2198 -0.7263 -0.2304
 4930TIP3    H214727   5.505   6.096   0.353  0.1015  0.4140  0.4640
 4931TIP3   OH214728   5.035   7.094   1.422 -0.3464  0.0209  0.3352
 4931TIP3    H114729   5.065   7.166   1.366 -0.5439 -0.3968 -0.2999
 4931TIP3    H214730   5.108   7.032   1.424 -0.5660 -0.2436  0.0712
 4932TIP3   OH214731   2.577   2.110   1.830  0.2763 -0.0919 -0.3898
 4932TIP3    H114732   2.664   2.137   1.801  1.0475 -2.8732 -0.7781
 4932TIP3    H214733   2.540   2.063   1.755 -0.8237 -0.5354  0.4147
 4933TIP3   OH214734   5.087   1.654   6.900  0.1166 -0.3180  0.0916
 4933TIP3    H114735   5.089   1.727   6.838 -0.6731 -0.5365 -0.1993
 4933TIP3    H214736   5.176   1.620   6.899  1.0623  1.9389  1.8035
 4934TIP3   OH214737   5.142   2.378   6.608 -0.3709  0.2713 -0.1318
 4934TIP3    H114738   5.224   2.417   6.638  0.1302 -1.3189  0.6402
 4934TIP3    H214739   5.164   2.335   6.526 -0.0740 -1.3408  0.7654
 4935TIP3   OH214740   4.762   6.424   1.004  0.4914 -0.6908  0.4473
 4935TIP3    H114741   4.803   6.395   1.085  0.4130  1.8587  1.4215
 4935TIP3    H214742   4.813   6.499   0.976 -1.0453  0.0272 -0.4942
 4936TIP3   OH214743   7.686   6.053   1.421  0.6949  0.0947  1.0716
 4936TIP3    H114744   7.621   6.096   1.366  0.2530 -1.9621 -0.0779
 4936TIP3    H214745   7.666   6.083   1.510 -0.1955  1.4706  0.4156
 4937TIP3   OH214746   0.009   1.645   6.865 -0.1210 -0.2188 -0.1284
 4937TIP3    H114747   0.086   1.659   6.811  0.4284  0.1626  0.7389
 4937TIP3    H214748   0.000   1.726   6.917 -0.2520 -0.8227  0.8095
 4938TIP3   OH214749   7.116   6.557   1.233 -0.0427  0.1991  0.0781
 4938TIP3    H114750   7.107   6.472   1.276  1.3838 -0.7420 -1.4586
 4938TIP3    H214751   7.149   6.615   1.301 -0.3429 -0.6288  0.9410
 4939TIP3   OH214752   5.273   1.533   5.326 -0.5247 -0.0378  0.3016
 4939TIP3    H114753   5.219   1.610   5.345  0.3573  0.6376  0.0643
 4939TIP3    H214754   5.222   1.483   5.262 -0.7145  0.7718 -0.1820
 4940TIP3   OH214755   0.321   3.339   3.867 -0.0007  0.1052 -0.2193
 4940TIP3    H114756   0.404   3.323   3.823 -0.1667  0.2842 -0.5953
 4940TIP3    H214757   0.282   3.412   3.820 -0.6758 -0.4044 -0.4608
 4941TIP3   OH214758   6.274   5.722   2.472 -0.0885  0.4851 -0.0426
 4941TIP3    H114759   6.236   5.688   2.553  1.0709 -0.4298  0.1427
 4941TIP3    H214760   6.213   5.695   2.404 -1.0305  1.1879  0.5068
 4942TIP3   OH214761   4.716   1.995   5.980  0.2240  0.7597  0.2098
 4942TIP3    H114762   4.655   1.925   5.957  0.8256  0.1148  0.5765
 4942TIP3    H214763   4.783   1.953   6.032  0.7244  1.5675  0.2316
 4943TIP3   OH214764   4.988   0.945   5.561  0.5748 -0.7436  0.5614
 4943TIP3    H114765   4.934   1.023   5.570 -0.3464 -0.9647 -2.3279
 4943TIP3    H214766   5.074   0.979   5.534  0.1128 -0.6929 -0.9156
 4944TIP3   OH214767   5.422   6.726   0.495  0.2671 -0.4208 -0.0514
 4944TIP3    H114768   5.413   6.688   0.582  0.5324  0.9506  0.5969
 4944TIP3    H214769   5.506   6.694   0.462  1.0511  0.5638  0.9761
 4945TIP3   OH214770   0.410   3.616   2.956 -0.0450 -0.3856  0.2195
 4945TIP3    H114771   0.375   3.535   2.992 -0.5256 -0.9996 -1.5788
 4945TIP3    H214772   0.332   3.668   2.933  0.2509  0.0361  0.1610
 4946TIP3   OH214773   7.965   5.759   1.234 -0.0224 -0.1213  0.2167
 4946TIP3    H114774   7.938   5.846   1.263  0.4186 -0.1025  0.5888
 4946TIP3    H214775   7.898   5.732   1.172 -0.5936  0.1435  0.7112
 4947TIP3   OH214776   0.531   3.831   3.518 -0.0868  0.2595 -0.5526
 4947TIP3    H114777   0.538   3.752   3.465 -0.8880 -0.6934  0.7272
 4947TIP3    H214778   0.488   3.802   3.598  0.9830  1.7019  0.5694
 4948TIP3   OH214779   6.340   1.765   6.585  0.4628 -0.0007 -0.2017
 4948TIP3    H114780   6.309   1.850   6.617 -0.2814 -0.4408  0.2875
 4948TIP3    H214781   6.410   1.786   6.524 -0.4560  1.0097 -0.9331
 4949TIP3   OH214782   4.002   2.594   6.511 -0.4010  0.6079 -0.1156
 4949TIP3    H114783   4.016   2.524   6.574  0.6741 -0.7420 -1.8082
 4949TIP3    H214784   4.088   2.608   6.471 -1.0798  1.3278 -1.3740
 4950TIP3   OH214785   6.293   4.563   1.586 -0.1699 -0.2523  0.1159
 4950TIP3    H114786   6.214   4.617   1.587  0.1129  0.1639  0.3472
 4950TIP3    H214787   6.324   4.568   1.495 -1.4777 -2.0050 -0.4376
 4951TIP3   OH214788   7.376   2.486   2.791 -0.0332  0.3894 -0.0153
 4951TIP3    H114789   7.312   2.415   2.788  1.2365 -0.8140  1.2650
 4951TIP3    H214790   7.402   2.499   2.700  2.8052 -3.6178  0.1269
 4952TIP3   OH214791   6.245   6.205   1.228  0.4393 -0.7429 -0.3730
 4952TIP3    H114792   6.159   6.201   1.186  0.8205 -1.9040 -1.0866
 4952TIP3    H214793   6.291   6.275   1.182  0.9022 -2.1051 -2.0586
 4953TIP3   OH214794   0.054   5.518   1.038  0.0268  0.0035 -0.0622
 4953TIP3    H114795   0.007   5.557   1.111 -0.1960 -0.4502  0.0413
 4953TIP3    H214796   0.035   5.575   0.964 -0.6242 -0.1288 -0.0015
 4954TIP3   OH214797   0.064   4.731   0.040  0.3687  0.5864 -0.4242
 4954TIP3    H114798   0.030   4.696   0.122  0.7710  0.6025 -0.2524
 4954TIP3    H214799   0.159   4.728   0.049  0.4095  1.6322 -0.4521
 4955TIP3   OH214800   5.991   4.726   0.790 -0.4874 -0.3011 -0.1342
 4955TIP3    H114801   6.011   4.800   0.847  0.8723 -1.1006  0.4436
 4955TIP3    H214802   5.997   4.649   0.847 -0.4282 -0.9982 -1.0595
 4956TIP3   OH214803   5.330   5.553   1.633  0.1837 -0.3839 -0.7613
 4956TIP3    H114804   5.303   5.556   1.541 -2.7319 -0.0084  0.0619
 4956TIP3    H214805   5.366   5.640   1.650 -0.7572  0.0849 -1.1276
 4957TIP3   OH214806   7.429   4.991   2.589 -0.1576 -0.0359  0.6875
 4957TIP3    H114807   7.342   5.025   2.610  0.0843  1.3302 -0.4206
 4957TIP3    H214808   7.430   4.987   2.494  0.0216 -2.7374  0.7540
 4958TIP3   OH214809   7.310   6.863   1.641 -0.0054 -0.1209  0.0908
 4958TIP3    H114810   7.300   6.793   1.705  3.1750 -1.0109 -0.2918
 4958TIP3    H214811   7.371   6.925   1.682 -0.9836  1.2685 -0.5020
 4959TIP3   OH214812   7.694   5.993   0.308 -0.6215  0.2872  0.4945
 4959TIP3    H114813   7.734   5.927   0.251 -1.8409 -0.4617  0.4917
 4959TIP3    H214814   7.762   6.014   0.372  0.8297  1.2939 -1.3505
 4960TIP3   OH214815   6.238   7.011   1.556 -0.6269 -0.2323 -0.0931
 4960TIP3    H114816   6.267   7.073   1.622 -0.5677  0.3507 -0.6620
 4960TIP3    H214817   6.238   6.926   1.601  0.5788 -0.0263  0.3084
 4961TIP3   OH214818   8.295   5.902   0.335 -0.6326 -0.3814 -0.0545
 4961TIP3    H114819   8.294   5.879   0.428  0.5212 -1.4847 -0.2996
 4961TIP3    H214820   8.223   5.852   0.297 -0.4008 -0.8048  0.0576
 4962TIP3   OH214821   4.447   0.647   6.852 -0.3205 -0.1271 -0.1660
 4962TIP3    H114822   4.359   0.675   6.830  0.1705  1.3395 -0.3311
 4962TIP3    H214823   4.439   0.607   6.938 -1.0030  0.8235  0.2270
 4963TIP3   OH214824   6.510   6.440   1.594 -0.1806  0.1331 -0.1856
 4963TIP3    H114825   6.495   6.365   1.538 -1.7047  0.6549 -0.4908
 4963TIP3    H214826   6.436   6.440   1.656 -0.4089  1.5800 -0.4318
 4964TIP3   OH214827   6.520   5.793   0.714 -0.0914 -0.3446  0.3963
 4964TIP3    H114828   6.553   5.751   0.634 -0.6383 -1.8206  0.9117
 4964TIP3    H214829   6.557   5.740   0.785 -0.4485  0.3284  1.0857
 4965TIP3   OH214830   8.097   6.691   0.215  0.3578 -0.3257  0.6569
 4965TIP3    H114831   8.113   6.596   0.219 -2.2433 -0.7511  2.2430
 4965TIP3    H214832   8.051   6.711   0.296 -1.5445  1.8034 -0.8674
 4966TIP3   OH214833   7.684   5.010   0.404  0.1747 -0.2064 -0.0836
 4966TIP3    H114834   7.720   5.063   0.333 -1.1723  1.2393  0.2711
 4966TIP3    H214835   7.753   4.947   0.425  1.7476  1.2978 -0.6321
 4967TIP3   OH214836   3.709   1.416   2.348 -0.4765  0.1758 -0.2229
 4967TIP3    H114837   3.655   1.339   2.366 -0.2045  0.3491  1.4197
 4967TIP3    H214838   3.799   1.385   2.361 -0.3865  0.8651  0.8497
 4968TIP3   OH214839   5.861   6.527   1.052 -0.2749 -0.4003  0.8839
 4968TIP3    H114840   5.877   6.448   1.105 -0.3231  0.5935  2.4243
 4968TIP3    H214841   5.934   6.585   1.073 -0.9093  0.4656  0.7446
 4969TIP3   OH214842   6.238   5.701   0.737  0.5931 -0.2515 -0.2668
 4969TIP3    H114843   6.257   5.664   0.823  2.5038  3.6325  1.0682
 4969TIP3    H214844   6.324   5.718   0.699 -0.2301  1.6517 -1.3319
 4970TIP3   OH214845   7.977   3.850   2.745 -0.0415  0.2789  0.1375
 4970TIP3    H114846   7.903   3.834   2.803 -0.3406  0.0900 -0.2918
 4970TIP3    H214847   7.943   3.913   2.680  0.7142  1.5997  1.0092
 4971TIP3   OH214848   7.408   5.855   1.409  0.3275 -0.0141  0.2163
 4971TIP3    H114849   7.373   5.932   1.365  0.7740 -0.1796 -0.4365
 4971TIP3    H214850   7.349   5.784   1.384 -0.7534  0.3186  1.7357
 4972TIP3   OH214851   0.391   0.592   1.219  0.5975 -0.3028  0.3007
 4972TIP3    H114852   0.305   0.631   1.206  0.6502  0.1458  1.2415
 4972TIP3    H214853   0.441   0.616   1.141 -0.4219 -1.4025 -0.7107
 4973TIP3   OH214854   7.791   6.341   0.599  0.4039 -0.4597 -0.0331
 4973TIP3    H114855   7.743   6.406   0.651 -3.0233 -3.4629  0.7595
 4973TIP3    H214856   7.867   6.319   0.653 -1.2341 -0.9423  2.1761
 4974TIP3   OH214857   6.695   4.331   5.272 -0.6256 -0.7713 -0.0173
 4974TIP3    H114858   6.679   4.329   5.178  0.4262 -2.4785 -0.1791
 4974TIP3    H214859   6.677   4.242   5.301 -2.6697  0.1666  1.7091
 4975TIP3   OH214860   6.420   2.386   6.716 -0.1200 -0.3776  0.5747
 4975TIP3    H114861   6.450   2.304   6.677 -1.7860  0.2692 -2.1795
 4975TIP3    H214862   6.474   2.453   6.673 -1.3127  0.2621  0.0668
 4976TIP3   OH214863   5.794   5.540   1.432 -0.6960  0.1397  0.2666
 4976TIP3    H114864   5.721   5.598   1.455 -0.4504  1.1940 -1.5489
 4976TIP3    H214865   5.859   5.597   1.392  0.7368 -0.9579  0.9832
 4977TIP3   OH214866   7.232   5.370   0.680 -0.5171 -0.0428  0.0350
 4977TIP3    H114867   7.316   5.400   0.646 -0.3434 -0.9130 -0.3147
 4977TIP3    H214868   7.192   5.323   0.607 -1.5137  0.7634  0.0566
 4978TIP3   OH214869   3.483   3.428   6.817 -0.1726 -0.4074  0.4409
 4978TIP3    H114870   3.511   3.343   6.852  0.6342 -0.2662  0.1536
 4978TIP3    H214871   3.388   3.421   6.810 -0.4244 -0.2618  3.1350
 4979TIP3   OH214872   6.778   6.119   0.993  0.6270 -0.6913 -0.2721
 4979TIP3    H114873   6.751   6.089   0.907  0.3853 -0.4292 -0.2920
 4979TIP3    H214874   6.754   6.212   0.994 -0.1926 -0.8988  0.3966
 4980TIP3   OH214875   6.270   5.202   0.181 -0.3845  0.0214 -0.2138
 4980TIP3    H114876   6.284   5.143   0.107 -0.8379  0.5056 -0.6834
 4980TIP3    H214877   6.224   5.148   0.246 -1.5739  0.0791 -0.9802
 4981TIP3   OH214878   3.844   2.995   6.169 -0.1968  0.3240  0.3143
 4981TIP3    H114879   3.778   2.926   6.176  1.2675 -1.1399  0.0236
 4981TIP3    H214880   3.842   3.040   6.253 -0.2505 -0.9283  0.9864
 4982TIP3   OH214881   8.290   6.156   2.371  0.5795  0.1620  0.3967
 4982TIP3    H114882   8.281   6.250   2.354 -0.7735  0.2322  1.4133
 4982TIP3    H214883   8.311   6.150   2.464 -1.5607 -0.6305  0.8527
 4983TIP3   OH214884   0.015   4.824   1.845 -0.0826 -0.3710  0.1131
 4983TIP3    H114885  -0.064   4.783   1.880  0.2391 -1.4276 -0.3727
 4983TIP3    H214886   0.083   4.757   1.855  0.4072 -0.0335 -0.8674
 4984TIP3   OH214887   8.047   6.079   0.478 -0.0662  0.6802 -0.2389
 4984TIP3    H114888   8.065   6.165   0.514 -0.1707  1.2574 -1.5327
 4984TIP3    H214889   8.063   6.088   0.384  0.1484 -0.7662 -0.3564
 4985TIP3   OH214890   4.106   1.395   6.610 -0.3800  0.2481  0.7821
 4985TIP3    H114891   4.193   1.363   6.630  0.1243  0.9408 -0.2489
 4985TIP3    H214892   4.071   1.333   6.546  0.5544  1.6378 -1.1308
 4986TIP3   OH214893   6.578   3.265   2.134 -0.7333  0.9580  0.3567
 4986TIP3    H114894   6.483   3.259   2.123 -0.8681  2.2027  0.7672
 4986TIP3    H214895   6.611   3.274   2.045 -0.7969 -1.9212  0.0179
 4987TIP3   OH214896   7.179   5.496   2.527 -0.3380  0.4064  0.7668
 4987TIP3    H114897   7.090   5.511   2.495  0.2492 -0.2682 -1.2069
 4987TIP3    H214898   7.178   5.532   2.616 -2.0810  1.9843  0.1363
 4988TIP3   OH214899   0.219   6.466   2.076 -0.9160  0.0840  0.3785
 4988TIP3    H114900   0.138   6.508   2.104 -0.5315  0.4402  0.9595
 4988TIP3    H214901   0.253   6.523   2.007  0.0110  1.1681  1.7045
 4989TIP3   OH214902   7.443   7.875   1.988 -0.1247 -0.0538  0.6022
 4989TIP3    H114903   7.481   7.800   2.033 -0.2576 -0.2169  0.4424
 4989TIP3    H214904   7.423   7.937   2.058 -0.3212 -0.3028  0.7667
 4990TIP3   OH214905   7.607   5.201   1.373  0.2080 -0.7446  0.4907
 4990TIP3    H114906   7.529   5.216   1.318  1.4655 -0.7485 -1.3423
 4990TIP3    H214907   7.595   5.113   1.409 -0.9307 -0.5042  0.7195
 4991TIP3   OH214908   5.164   5.930   1.267 -0.1906 -0.1532  0.2389
 4991TIP3    H114909   5.239   5.933   1.207 -1.1866 -1.9447 -1.1753
 4991TIP3    H214910   5.093   5.973   1.219 -0.5835 -0.1838  0.7883
 4992TIP3   OH214911   6.682   5.173   1.386  0.4501  0.0690  0.1593
 4992TIP3    H114912   6.652   5.262   1.364  0.2876 -0.2852 -1.1283
 4992TIP3    H214913   6.724   5.142   1.305 -0.5642 -1.4718  0.2038
 4993TIP3   OH214914   7.209   6.068   1.340 -0.2328  0.0818 -0.2935
 4993TIP3    H114915   7.151   6.000   1.307 -0.4139  0.1648 -0.1486
 4993TIP3    H214916   7.154   6.146   1.344 -0.2590  0.0385  0.3446
 4994TIP3   OH214917   4.640   1.363   6.791  0.0879  0.2887  0.2162
 4994TIP3    H114918   4.623   1.300   6.721  0.0892  0.4426  0.0795
 4994TIP3    H214919   4.728   1.396   6.773  0.7686 -0.9210  1.2342
 4995TIP3   OH214920   0.328   7.375   1.977 -0.2573  0.2809 -0.0731
 4995TIP3    H114921   0.242   7.411   1.958 -0.7995 -1.0092 -0.0782
 4995TIP3    H214922   0.380   7.396   1.899 -0.8893  0.0420 -0.5591
 4996TIP3   OH214923   7.610   5.161   0.644 -0.2165 -0.1431 -0.4178
 4996TIP3    H114924   7.561   5.096   0.694  0.3395 -0.2428 -0.0003
 4996TIP3    H214925   7.658   5.110   0.579 -0.1388 -0.1049 -0.3903
 4997TIP3   OH214926   7.074   7.661   1.882  0.4792 -0.5810 -0.1993
 4997TIP3    H114927   6.984   7.681   1.907 -0.1435 -1.3589 -1.7043
 4997TIP3    H214928   7.117   7.636   1.963 -0.5009  0.3907  0.6257
 4998TIP3   OH214929   5.851   7.780   1.137 -0.1977  0.8118  0.1281
 4998TIP3    H114930   5.801   7.823   1.206  1.0533  0.9077  0.9909
 4998TIP3    H214931   5.918   7.844   1.112 -1.8873  1.5932 -2.6192
 4999TIP3   OH214932   0.628   6.135   2.917 -0.1362  0.5412  0.2093
 4999TIP3    H114933   0.600   6.215   2.962  1.3315  0.5450  1.1800
 4999TIP3    H214934   0.589   6.064   2.968  1.9350  0.5294  1.8557
 5000TIP3   OH214935   5.173   3.902   2.561  0.5678 -0.3689  0.3955
 5000TIP3    H114936   5.111   3.969   2.532 -0.2301 -0.9591  0.7126
 5000TIP3    H214937   5.165   3.832   2.497  0.2489 -0.8318  0.9354
 5001TIP3   OH214938   5.462   5.810   1.744 -0.3555  0.2169  0.3549
 5001TIP3    H114939   5.520   5.880   1.774 -1.3885  0.2039  2.4514
 5001TIP3    H214940   5.375   5.836   1.774 -1.4357  0.0990 -2.5249
 5002TIP3   OH214941   2.813   3.646   5.570 -0.1520  0.1331 -0.6168
 5002TIP3    H114942   2.827   3.565   5.522 -2.1832  0.3587 -1.6433
 5002TIP3    H214943   2.878   3.707   5.535  2.2828 -1.3797  1.0848
 5003TIP3   OH214944   2.786   0.105   5.848  0.0896 -0.6125 -0.3306
 5003TIP3    H114945   2.861   0.048   5.871  0.6177  1.0253  2.1805
 5003TIP3    H214946   2.826   0.190   5.830 -1.0648 -0.1114 -0.5066
 5004TIP3   OH214947   4.304   1.442   5.739 -0.2906 -0.3457 -0.2017
 5004TIP3    H114948   4.220   1.487   5.740  0.5386  1.1992  1.2533
 5004TIP3    H214949   4.302   1.384   5.815  0.5895  0.8622  0.7397
 5005TIP3   OH214950   6.079   4.658   2.970 -0.6119 -0.2645 -0.5151
 5005TIP3    H114951   6.042   4.684   3.054 -0.3384  0.9036 -0.7396
 5005TIP3    H214952   6.051   4.567   2.958 -1.7081 -0.0381  0.2458
 5006TIP3   OH214953   6.956   6.727   0.095  0.4009 -0.6031  0.0125
 5006TIP3    H114954   6.871   6.706   0.131  0.5356 -2.8467 -0.9267
 5006TIP3    H214955   7.019   6.699   0.162  0.4776 -0.4446  0.0095
 5007TIP3   OH214956   3.548   0.303   6.213 -0.1768 -0.2539 -0.5266
 5007TIP3    H114957   3.589   0.284   6.298  0.2267  0.3862 -0.5791
 5007TIP3    H214958   3.483   0.371   6.233  0.7600  0.7788 -0.9343
 5008TIP3   OH214959   5.773   6.102   0.136 -0.2434 -0.2083  0.4163
 5008TIP3    H114960   5.835   6.049   0.185 -0.7846 -0.1350  1.1934
 5008TIP3    H214961   5.691   6.093   0.183 -0.5375  0.6646  0.0890
 5009TIP3   OH214962   8.240   4.142   0.973 -0.4010 -0.0855 -0.5774
 5009TIP3    H114963   8.189   4.147   0.893 -2.1236  0.3482  0.5154
 5009TIP3    H214964   8.199   4.072   1.024 -0.7493  1.1204  0.8556
 5010TIP3   OH214965   1.825   1.138   6.255  0.0651  0.7040 -0.1096
 5010TIP3    H114966   1.761   1.184   6.201 -0.6878  0.6694  0.7341
 5010TIP3    H214967   1.896   1.202   6.268 -0.0883  0.9593 -0.5240
 5011TIP3   OH214968   6.443   5.318   1.035  0.1454  0.0162 -0.1035
 5011TIP3    H114969   6.512   5.314   0.969 -1.5760  0.5664 -2.0081
 5011TIP3    H214970   6.412   5.227   1.043 -0.9847  0.2511 -1.5717
 5012TIP3   OH214971   3.944   1.864   5.725  0.0635  0.2832  0.4722
 5012TIP3    H114972   3.929   1.927   5.655  0.8183  1.1868  1.1203
 5012TIP3    H214973   3.913   1.908   5.804  0.2506 -0.3020  0.8748
 5013TIP3   OH214974   6.465   7.366   3.130  0.0443  0.0291 -0.1622
 5013TIP3    H114975   6.398   7.399   3.190  0.5589 -0.0988  0.4950
 5013TIP3    H214976   6.473   7.433   3.063 -1.8824 -0.6717 -1.1465
 5014TIP3   OH214977   5.716   7.207   0.963 -0.5687 -0.5040 -0.0801
 5014TIP3    H114978   5.731   7.205   1.058  1.6100  0.4587 -0.3730
 5014TIP3    H214979   5.702   7.116   0.939 -0.6847 -0.8058  1.1000
 5015TIP3   OH214980   5.734   7.782   2.691  0.0580 -0.0678  0.0393
 5015TIP3    H114981   5.731   7.877   2.680 -0.9754 -0.2731 -1.7002
 5015TIP3    H214982   5.819   7.766   2.732  2.2630  1.3109 -3.6253
 5016TIP3   OH214983   7.312   7.995   1.756  0.8538 -0.4971 -0.3787
 5016TIP3    H114984   7.294   7.907   1.724 -0.7923 -0.5239  0.6044
 5016TIP3    H214985   7.351   7.983   1.842  2.0145 -0.2865 -0.8494
 5017TIP3   OH214986   6.293   6.365   5.376  0.7505 -0.2849  0.3214
 5017TIP3    H114987   6.239   6.357   5.455 -0.7503 -0.1833 -0.6683
 5017TIP3    H214988   6.334   6.280   5.366  1.1387 -0.2174  1.3552
 5018TIP3   OH214989   8.407   6.328   3.371  0.2389  0.3992  0.4472
 5018TIP3    H114990   8.371   6.385   3.302 -0.3232 -0.2739  0.1714
 5018TIP3    H214991   8.339   6.326   3.438 -0.2043 -0.7557 -0.0069
 5019TIP3   OH214992   4.527   6.439   0.832 -0.3253  0.7830 -0.6652
 5019TIP3    H114993   4.619   6.436   0.805 -0.5417  0.0417 -1.3488
 5019TIP3    H214994   4.530   6.436   0.928  0.4786  3.9027 -0.5196
 5020TIP3   OH214995   7.171   4.486   3.325 -0.1032  0.7382 -0.4347
 5020TIP3    H114996   7.212   4.428   3.260  1.9243  2.5800 -0.8672
 5020TIP3    H214997   7.229   4.562   3.329 -0.0703  0.5836  3.7398
 5021TIP3   OH214998   7.287   6.338   0.367  0.0463 -0.1438  0.0530
 5021TIP3    H114999   7.249   6.372   0.448  0.5973  0.2282  0.1626
 5021TIP3    H215000   7.380   6.327   0.388  0.5346  1.6961 -1.0895
 5022TIP3   OH215001   7.077   5.049   1.023  0.2115 -0.5948 -0.1484
 5022TIP3    H115002   7.060   5.020   0.933  2.7431 -0.7551 -0.6216
 5022TIP3    H215003   7.116   4.972   1.065 -0.4355 -0.3400  0.9171
 5023TIP3   OH215004   7.553   5.508   1.356 -0.2875 -0.1422  0.1458
 5023TIP3    H115005   7.480   5.498   1.417 -0.9239 -1.0532 -0.7596
 5023TIP3    H215006   7.543   5.437   1.293  1.3391 -0.2403 -0.0431
 5024TIP3   OH215007   6.310   4.012   0.117  0.2027 -0.8289  0.4193
 5024TIP3    H115008   6.278   4.095   0.081 -0.0734 -1.2407 -0.2933
 5024TIP3    H215009   6.392   4.035   0.162 -0.3442 -0.0170  1.0212
 5025TIP3   OH215010   6.831   6.278   4.807 -0.3904 -0.4498 -0.4062
 5025TIP3    H115011   6.752   6.225   4.800 -3.1968  3.3891  0.3063
 5025TIP3    H215012   6.856   6.271   4.899 -1.8391  0.8455  0.1126
 5026TIP3   OH215013   7.214   6.852   2.801  0.5116  0.5667 -0.0192
 5026TIP3    H115014   7.281   6.832   2.736  1.7260 -1.9431  1.8982
 5026TIP3    H215015   7.257   6.913   2.861  0.7838 -0.3175  0.6924
 5027TIP3   OH215016   6.195   6.508   1.950 -0.0161 -0.0716  0.2212
 5027TIP3    H115017   6.187   6.474   1.861  0.1626 -2.6810  1.1605
 5027TIP3    H215018   6.286   6.536   1.957  0.1951 -0.6547 -0.1612
 5028TIP3   OH215019   8.066   5.035   2.861 -0.0155  0.7495 -0.0066
 5028TIP3    H115020   8.027   5.018   2.947  1.1296  0.8519  0.5398
 5028TIP3    H215021   8.006   4.994   2.799 -1.4854  1.7035  0.7545
 5029TIP3   OH215022   6.877   4.121   2.701  0.3261  0.6369 -0.0799
 5029TIP3    H115023   6.942   4.060   2.666  2.0719  2.2591  0.2392
 5029TIP3    H215024   6.883   4.198   2.644 -2.7108  0.0900 -1.2309
 5030TIP3   OH215025   7.312   5.707   0.599 -0.4927  0.3140 -0.7899
 5030TIP3    H115026   7.249   5.691   0.529  0.4694  1.6075 -1.9833
 5030TIP3    H215027   7.281   5.787   0.641  0.0637  0.6744 -1.0579
 5031TIP3   OH215028   5.990   6.699   1.958  0.4582  0.5504  0.3003
 5031TIP3    H115029   6.074   6.657   1.978  0.0720  0.2511  1.3427
 5031TIP3    H215030   5.932   6.628   1.933  0.8440  0.8891 -1.6645
 5032TIP3   OH215031   5.414   7.182   2.734  0.2645  0.1605 -0.7602
 5032TIP3    H115032   5.499   7.167   2.777  0.3557 -3.5558 -2.0823
 5032TIP3    H215033   5.350   7.177   2.805  0.6206 -3.6285 -0.6198
 5033TIP3   OH215034   5.874   5.348   2.314  0.2008 -0.1000  0.5829
 5033TIP3    H115035   5.921   5.385   2.239  0.1103  0.7521  0.9455
 5033TIP3    H215036   5.837   5.423   2.359 -1.6324 -0.7665  0.2469
 5034TIP3   OH215037   7.472   4.923   2.177  0.5579 -0.5984 -0.0036
 5034TIP3    H115038   7.412   4.974   2.122 -1.4062 -1.9884  0.8273
 5034TIP3    H215039   7.416   4.869   2.231  2.5707 -1.7003  1.0461
 5035TIP3   OH215040   5.907   5.208   0.673  0.0085 -0.3676  0.1524
 5035TIP3    H115041   5.926   5.269   0.602  0.9851  0.7856  1.3889
 5035TIP3    H215042   5.991   5.165   0.690 -0.3673 -1.0928  0.2015
 5036TIP3   OH215043   4.912   7.639   1.311  0.2852  0.9159 -0.1783
 5036TIP3    H115044   5.007   7.647   1.304  0.3985  1.0771  1.5452
 5036TIP3    H215045   4.898   7.556   1.355 -0.3543  1.3132  0.3688
 5037TIP3   OH215046   6.309   6.432   0.414 -0.3017  0.3623 -0.5737
 5037TIP3    H115047   6.219   6.451   0.441 -0.4876 -0.5082 -0.5683
 5037TIP3    H215048   6.363   6.489   0.469 -0.8135  0.4185 -0.1264
 5038TIP3   OH215049   7.136   4.843   2.574 -0.3966 -0.0436  0.1157
 5038TIP3    H115050   7.156   4.805   2.659 -1.3551  0.3168  0.5126
 5038TIP3    H215051   7.112   4.933   2.593  1.8078  0.7750 -0.8140
 5039TIP3   OH215052   7.836   5.237   1.538  0.4260  0.1349  0.1349
 5039TIP3    H115053   7.761   5.226   1.480 -1.6764 -1.1355  2.9831
 5039TIP3    H215054   7.829   5.327   1.569 -0.7673 -0.4103  1.4901
 5040TIP3   OH215055   3.352   0.457   2.303 -0.0631  0.1851 -0.4981
 5040TIP3    H115056   3.346   0.547   2.271 -1.8300  0.0097 -0.6827
 5040TIP3    H215057   3.439   0.428   2.275  0.6366  1.9309 -0.1729
 5041TIP3   OH215058   8.175   5.180   1.913 -0.6091  0.1217 -0.8073
 5041TIP3    H115059   8.202   5.091   1.939 -0.3174  0.4066 -0.1261
 5041TIP3    H215060   8.198   5.186   1.820  1.4446  0.2680 -0.2985
 5042TIP3   OH215061   6.880   5.976   1.715  0.1186 -0.0026  0.0554
 5042TIP3    H115062   6.965   5.934   1.705  0.7507  1.5320 -1.2580
 5042TIP3    H215063   6.895   6.067   1.692 -1.4960  0.6881  1.6512
 5043TIP3   OH215064   5.483   6.714   1.784 -0.0992  0.1215 -0.3226
 5043TIP3    H115065   5.473   6.783   1.848  0.8840 -0.3896  0.3887
 5043TIP3    H215066   5.468   6.757   1.699  0.4729  1.1829  0.1143
 5044TIP3   OH215067   5.655   4.897   0.832 -0.5403  0.0333 -0.2128
 5044TIP3    H115068   5.706   4.864   0.757  1.6099  0.3466  1.0699
 5044TIP3    H215069   5.628   4.984   0.805  1.2179  0.6081 -0.2081
 5045TIP3   OH215070   6.637   5.421   1.280  0.2776  0.2754 -0.1011
 5045TIP3    H115071   6.552   5.443   1.243  0.5550  2.9405  0.8087
 5045TIP3    H215072   6.699   5.439   1.209  0.1982 -0.8238 -0.4650
 5046TIP3   OH215073   1.270   0.106   0.529 -0.4419  0.1548  0.3296
 5046TIP3    H115074   1.304   0.175   0.585 -0.0075  0.1391  0.0824
 5046TIP3    H215075   1.281   0.026   0.580  0.8528  0.0117 -0.1698
 5047TIP3   OH215076   7.779   3.737   1.957 -0.7486 -0.2112  0.3276
 5047TIP3    H115077   7.855   3.694   1.995 -0.8728 -1.2987 -0.6335
 5047TIP3    H215078   7.705   3.708   2.010 -0.8945 -1.5621 -0.5868
 5048TIP3   OH215079   5.056   3.103   6.655 -0.1805 -0.5255 -0.4557
 5048TIP3    H115080   5.033   3.174   6.595 -2.1131  1.3926  2.4283
 5048TIP3    H215081   4.972   3.061   6.675  0.5963 -1.8749  0.0420
 5049TIP3   OH215082   0.333   4.381   0.559  0.0865  0.2687 -0.3505
 5049TIP3    H115083   0.273   4.407   0.629 -1.0513 -0.5962 -0.9758
 5049TIP3    H215084   0.309   4.290   0.540  1.8075 -0.1941 -0.4147
 5050TIP3   OH215085   3.736   2.490   5.979  0.1984  0.2336 -0.5922
 5050TIP3    H115086   3.664   2.464   5.921  0.6951 -1.3259 -0.5228
 5050TIP3    H215087   3.693   2.523   6.058 -0.4356 -1.1406 -0.3591
 5051TIP3   OH215088   6.371   6.425   1.150  0.7128 -0.3269 -0.0828
 5051TIP3    H115089   6.457   6.454   1.119 -0.1837  1.3151 -1.1060
 5051TIP3    H215090   6.327   6.505   1.179 -1.4015 -0.7579 -1.9259
 5052TIP3   OH215091   7.959   4.988   1.602 -0.2432  0.0326  0.5176
 5052TIP3    H115092   7.912   4.955   1.679  0.3637  0.2368  0.9770
 5052TIP3    H215093   7.910   5.066   1.575 -0.9363 -0.5073  0.1982
 5053TIP3   OH215094   8.344   0.594   1.119 -0.0426 -0.4083  0.8378
 5053TIP3    H115095   8.408   0.654   1.158  0.5947  0.5167 -1.5522
 5053TIP3    H215096   8.266   0.604   1.174  0.5559  1.4604  1.4099
 5054TIP3   OH215097   6.323   5.601   0.966  0.5934 -0.0238 -0.2402
 5054TIP3    H115098   6.404   5.651   0.978 -0.4846  1.2837  1.9972
 5054TIP3    H215099   6.341   5.516   1.008  0.2395  0.9126  1.8634
 5055TIP3   OH215100   1.321   4.831   0.583 -0.3821  0.2267  0.0162
 5055TIP3    H115101   1.302   4.762   0.646 -3.3292  0.8706 -0.0806
 5055TIP3    H215102   1.374   4.894   0.631 -0.7874 -0.3311  1.2141
 5056TIP3   OH215103   5.305   6.649   1.289 -0.6457 -0.5252 -0.0920
 5056TIP3    H115104   5.389   6.604   1.287 -0.3629  0.0729 -2.0922
 5056TIP3    H215105   5.240   6.579   1.290 -0.1543 -0.9824 -0.1768
 5057TIP3   OH215106   6.919   5.851   2.895  0.2981 -0.2727  0.2217
 5057TIP3    H115107   6.838   5.834   2.848 -0.2051 -0.0079  0.9893
 5057TIP3    H215108   6.904   5.817   2.983  1.1584 -0.5769  0.2537
 5058TIP3   OH215109   3.196   0.358   1.718  0.1765  0.0467  0.3040
 5058TIP3    H115110   3.167   0.309   1.641  1.4826  1.3689 -1.0378
 5058TIP3    H215111   3.154   0.444   1.709  0.8086  0.4055  0.7520
 5059TIP3   OH215112   5.631   4.145   0.188 -0.0039 -0.0077 -0.3766
 5059TIP3    H115113   5.651   4.129   0.096  0.1055 -2.0770 -0.0012
 5059TIP3    H215114   5.541   4.115   0.199 -0.7996  2.2800 -0.2893
 5060TIP3   OH215115   5.210   5.041   0.512 -1.0495 -0.2600 -0.0868
 5060TIP3    H115116   5.152   5.082   0.449 -0.9694  1.2595  0.8175
 5060TIP3    H215117   5.155   5.024   0.588 -0.6356 -0.0508  0.2660
 5061TIP3   OH215118   2.852   4.762   0.910  0.6560 -0.7588 -0.2343
 5061TIP3    H115119   2.872   4.748   0.817 -0.0767 -1.1386 -0.3361
 5061TIP3    H215120   2.824   4.853   0.915 -0.8279 -1.1907 -0.6505
 5062TIP3   OH215121   6.301   4.392   0.614  1.0019 -0.1861  0.5207
 5062TIP3    H115122   6.300   4.318   0.554  1.8679  0.9576 -0.9184
 5062TIP3    H215123   6.209   4.419   0.621  0.8338 -0.6524  0.1126
 5063TIP3   OH215124   4.152   6.001   1.001  0.1002 -0.2432 -0.5057
 5063TIP3    H115125   4.170   6.091   0.974  1.0932 -0.8159 -1.8019
 5063TIP3    H215126   4.234   5.970   1.039 -0.2482 -0.5902 -0.0268
 5064TIP3   OH215127   3.708   2.290   4.777  0.4664  0.1754 -0.1649
 5064TIP3    H115128   3.691   2.244   4.860  0.5387 -0.8396 -0.7023
 5064TIP3    H215129   3.790   2.337   4.792 -0.0663  0.8644  0.6888
 5065TIP3   OH215130   6.835   5.022   2.865  0.0107 -0.3240  0.3541
 5065TIP3    H115131   6.775   5.094   2.883  0.4426  0.2519 -0.4483
 5065TIP3    H215132   6.778   4.946   2.850 -0.6285  0.6010 -2.1268
 5066TIP3   OH215133   8.482   4.311   2.899 -0.1960 -0.6667 -0.6765
 5066TIP3    H115134   8.565   4.359   2.890 -0.3644  0.3661  2.8728
 5066TIP3    H215135   8.416   4.369   2.862 -0.0836  0.9541  1.5886
 5067TIP3   OH215136   1.412   5.020   4.301  0.1714 -0.0407  0.2103
 5067TIP3    H115137   1.426   5.032   4.207  0.5778 -0.5830  0.1979
 5067TIP3    H215138   1.483   4.962   4.329 -1.9455 -2.8208  0.1428
 5068TIP3   OH215139   7.572   4.977   1.803 -0.3329 -0.4157  0.5557
 5068TIP3    H115140   7.563   4.887   1.835  0.4112 -0.9941 -0.7898
 5068TIP3    H215141   7.625   5.021   1.870  0.4603 -1.3624  0.5648
 5069TIP3   OH215142   7.350   5.371   2.351 -0.0070  0.2189 -0.1767
 5069TIP3    H115143   7.283   5.330   2.296 -1.0071  0.1078  1.0993
 5069TIP3    H215144   7.300   5.419   2.417  1.1794  1.7567 -0.3940
 5070TIP3   OH215145   7.189   6.109   2.007 -0.1541 -0.1340 -0.3911
 5070TIP3    H115146   7.178   6.018   1.982 -1.4436  0.2833 -1.3870
 5070TIP3    H215147   7.258   6.108   2.074 -0.5615 -1.8861  0.0184
 5071TIP3   OH215148   7.916   5.514   3.501 -0.4420 -0.4253 -0.4010
 5071TIP3    H115149   7.821   5.525   3.497 -0.3876  0.6044  0.8870
 5071TIP3    H215150   7.937   5.528   3.594  0.7888 -2.0561 -0.4169
 5072TIP3   OH215151   8.441   7.236   2.741 -0.7809 -0.5724 -0.6803
 5072TIP3    H115152   8.488   7.318   2.756 -2.0080 -0.0973  0.6237
 5072TIP3    H215153   8.349   7.261   2.731 -1.3689 -1.9067  1.0920
 5073TIP3   OH215154   7.259   6.300   4.253 -0.0102 -0.8392  0.0770
 5073TIP3    H115155   7.285   6.240   4.324 -0.1567 -1.4423 -0.3770
 5073TIP3    H215156   7.165   6.289   4.246 -0.3217  0.8864  1.2953
 5074TIP3   OH215157   7.190   4.371   2.800 -0.6081  0.1526  0.5096
 5074TIP3    H115158   7.261   4.392   2.860 -0.5035 -1.5655  1.0272
 5074TIP3    H215159   7.111   4.377   2.854 -0.4924 -1.6241  0.9055
 5075TIP3   OH215160   6.897   7.265   1.418 -0.4815 -0.2891  0.3761
 5075TIP3    H115161   6.870   7.210   1.344  3.0933  0.0467 -1.2904
 5075TIP3    H215162   6.860   7.351   1.399  0.0982 -0.3035 -0.8895
 5076TIP3   OH215163   8.085   5.292   3.185 -0.0289  0.3195 -0.1149
 5076TIP3    H115164   8.108   5.308   3.276  0.9303 -0.9414 -0.1115
 5076TIP3    H215165   7.992   5.313   3.179 -0.0815  0.4632  1.1378
 5077TIP3   OH215166   1.864   5.889   3.601  0.2705  0.0478 -0.6359
 5077TIP3    H115167   1.929   5.820   3.584 -0.2126 -0.4759 -0.3743
 5077TIP3    H215168   1.859   5.938   3.520 -0.3022 -0.9933 -1.2392
 5078TIP3   OH215169   1.977   5.239   3.527 -0.3250  0.0333  0.4266
 5078TIP3    H115170   2.062   5.228   3.569 -0.7382 -2.0097  0.8013
 5078TIP3    H215171   1.957   5.332   3.534  1.0267  0.2103  1.9935
 5079TIP3   OH215172   8.405   6.184   3.632 -0.4007 -0.5166  0.1300
 5079TIP3    H115173   8.356   6.265   3.647  1.4850  0.8306 -0.8784
 5079TIP3    H215174   8.413   6.177   3.537  1.3545 -0.7187  0.2761
 5080TIP3   OH215175   0.280   5.797   3.618  0.2406  0.4144 -0.0439
 5080TIP3    H115176   0.250   5.724   3.565 -0.7425  1.4539 -0.9709
 5080TIP3    H215177   0.306   5.864   3.554  2.0011  0.5349  0.7779
 5081TIP3   OH215178   2.973   1.311   4.663 -0.4507  0.3022 -0.3688
 5081TIP3    H115179   3.048   1.303   4.603 -1.1504  0.6593 -1.3022
 5081TIP3    H215180   2.900   1.271   4.615 -0.8449 -0.1154  0.5694
 5082TIP3   OH215181   2.531   6.859   3.522  0.1150  0.0125 -0.5487
 5082TIP3    H115182   2.610   6.805   3.515 -1.3669 -2.1809 -0.7768
 5082TIP3    H215183   2.518   6.894   3.433  0.8143  0.3662 -0.5129
 5083TIP3   OH215184   7.701   7.291   0.789  0.4091 -0.0855  0.5471
 5083TIP3    H115185   7.780   7.342   0.802 -1.2140  2.6354  0.0744
 5083TIP3    H215186   7.709   7.255   0.701  0.6658  0.9638  0.1468
 5084TIP3   OH215187   7.963   7.739   4.971 -0.5529  0.6806 -0.1779
 5084TIP3    H115188   7.871   7.737   4.997 -0.5827 -1.7140 -0.3882
 5084TIP3    H215189   8.005   7.672   5.025  0.5840 -0.0127 -1.8667
 5085TIP3   OH215190   2.365   0.057   2.493 -0.2512 -0.0148  0.1845
 5085TIP3    H115191   2.346  -0.034   2.514  0.9615 -0.3172 -0.0192
 5085TIP3    H215192   2.290   0.086   2.441 -1.4857 -0.3765  1.7236
 5086TIP3   OH215193   8.434   7.663   3.004  0.0974  0.1856  0.1695
 5086TIP3    H115194   8.373   7.736   3.011  1.4989  1.3711  0.2773
 5086TIP3    H215195   8.521   7.704   3.005  0.9171 -1.5184  0.7742
 5087TIP3   OH215196   5.740   6.435   2.134  0.3296 -0.1414  0.1721
 5087TIP3    H115197   5.689   6.354   2.125  1.1385 -0.5751 -0.6036
 5087TIP3    H215198   5.695   6.484   2.203 -1.6108 -0.1279 -1.0601
 5088TIP3   OH215199   3.612   7.613   2.410  0.2695  0.3690 -0.3784
 5088TIP3    H115200   3.525   7.606   2.371  0.6203 -1.1801 -0.9487
 5088TIP3    H215201   3.599   7.663   2.491 -1.0524  0.6109 -0.7320
 5089TIP3   OH215202   7.835   7.213   2.592 -0.5927  0.2603  0.1317
 5089TIP3    H115203   7.791   7.246   2.513 -2.3098  0.9137  1.3365
 5089TIP3    H215204   7.885   7.137   2.561 -1.6371  0.1950 -1.4947
 5090TIP3   OH215205   8.343   4.798   3.471 -0.1594 -0.0904 -0.7532
 5090TIP3    H115206   8.356   4.770   3.561 -0.8211  1.0148 -0.3041
 5090TIP3    H215207   8.378   4.887   3.468  0.7829 -0.4782 -1.8422
 5091TIP3   OH215208   8.076   5.964   0.892  0.2004  0.4210 -0.7892
 5091TIP3    H115209   8.114   6.042   0.850  0.7259  0.2592 -0.6262
 5091TIP3    H215210   8.101   5.892   0.835  1.4492  0.1229  0.1139
 5092TIP3   OH215211   1.581   6.365   3.071 -0.8376  0.6409 -0.3577
 5092TIP3    H115212   1.544   6.393   2.987 -1.7937 -0.4301 -0.3028
 5092TIP3    H215213   1.656   6.422   3.084 -0.3773  0.4913 -2.2023
 5093TIP3   OH215214   6.627   6.729   0.768 -0.1154  0.0604 -0.6411
 5093TIP3    H115215   6.552   6.682   0.733  0.1302 -0.4754 -0.4475
 5093TIP3    H215216   6.592   6.780   0.841  0.1858 -2.2098  1.1286
 5094TIP3   OH215217   2.222   0.446   3.143  0.7725  0.2872  0.6003
 5094TIP3    H115218   2.165   0.370   3.130  0.3650  0.4467  1.4154
 5094TIP3    H215219   2.288   0.417   3.205  1.5635  0.1165 -0.3125
 5095TIP3   OH215220   7.655   5.679   2.885 -0.4716  0.2504  0.1443
 5095TIP3    H115221   7.644   5.585   2.878  1.1971 -0.0506  1.0873
 5095TIP3    H215222   7.615   5.715   2.806 -1.5064 -1.2116  0.0017
 5096TIP3   OH215223   1.117   6.682   3.801 -0.0801  0.2553 -0.3956
 5096TIP3    H115224   1.038   6.733   3.783 -1.2003 -1.8305 -1.5203
 5096TIP3    H215225   1.145   6.711   3.888 -2.9402 -0.0959  0.6859
 5097TIP3   OH215226   1.574   4.990   1.981 -0.3786 -0.2512  0.2563
 5097TIP3    H115227   1.612   4.913   1.939  3.0428  0.5131  1.7712
 5097TIP3    H215228   1.636   5.061   1.961 -2.5518  1.7408  0.3690
 5098TIP3   OH215229   7.830   6.740   3.750 -0.1568  0.1226  0.5207
 5098TIP3    H115230   7.828   6.646   3.734  1.1438  0.0213  0.8964
 5098TIP3    H215231   7.758   6.757   3.810  0.6457 -0.8869  1.7756
 5099TIP3   OH215232   3.127   0.346   2.783 -0.4240 -0.2624 -0.3355
 5099TIP3    H115233   3.116   0.395   2.864  1.8956 -0.2577  0.0146
 5099TIP3    H215234   3.168   0.264   2.810 -1.4046 -1.0822 -1.2829
 5100TIP3   OH215235   3.286   1.465   2.162  0.7433 -0.2677 -0.2675
 5100TIP3    H115236   3.338   1.518   2.223  1.2448 -0.6110 -0.3888
 5100TIP3    H215237   3.275   1.520   2.085 -1.1512  0.7318  0.6991
 5101TIP3   OH215238   3.046   0.318   1.488  1.1146  0.1073 -0.1028
 5101TIP3    H115239   2.988   0.364   1.427  1.3668 -0.0230 -0.4386
 5101TIP3    H215240   3.058   0.231   1.449 -0.6860 -0.8313  1.3381
 5102TIP3   OH215241   1.864   6.710   3.616 -0.4699 -0.2386  0.6592
 5102TIP3    H115242   1.911   6.698   3.534 -1.0798 -2.1493  0.5791
 5102TIP3    H215243   1.902   6.790   3.654  0.6477 -0.0237 -0.8877
 5103TIP3   OH215244   1.856   6.782   2.306 -0.1216 -0.3065  0.0809
 5103TIP3    H115245   1.921   6.731   2.354 -0.0762  1.4803  1.9876
 5103TIP3    H215246   1.884   6.776   2.214  0.0871 -3.3571  0.2649
 5104TIP3   OH215247   3.709   0.364   3.366 -0.1778  0.0631  0.2341
 5104TIP3    H115248   3.661   0.336   3.288  0.1515  1.0748 -0.3410
 5104TIP3    H215249   3.797   0.381   3.334  0.7206 -2.2239  1.3693
 5105TIP3   OH215250   0.888   7.078   4.233 -0.2784 -0.2798  0.1430
 5105TIP3    H115251   0.812   7.054   4.285  0.1895 -0.7368  0.6281
 5105TIP3    H215252   0.950   7.116   4.296 -0.1452  0.1885 -0.2624
 5106TIP3   OH215253   0.291   6.123   0.961 -0.5610  0.6420  0.2001
 5106TIP3    H115254   0.287   6.140   0.867 -0.1826 -0.4656 -0.0240
 5106TIP3    H215255   0.380   6.092   0.975 -0.5028  1.1674  0.9918
 5107TIP3   OH215256   4.963   0.462   0.986  0.3739  0.4617  0.0376
 5107TIP3    H115257   4.893   0.451   0.921  0.9497 -0.2539 -0.4597
 5107TIP3    H215258   5.039   0.420   0.947  1.1285  1.3741  0.5207
 5108TIP3   OH215259   3.332   7.722   2.329 -0.5138  0.1704  0.2343
 5108TIP3    H115260   3.287   7.670   2.395  0.3680  1.0585  1.5597
 5108TIP3    H215261   3.317   7.675   2.247 -0.8326 -1.4490  1.1978
 5109TIP3   OH215262   1.628   5.827   3.197 -0.0744 -0.5183  0.0987
 5109TIP3    H115263   1.550   5.823   3.251 -0.0622 -1.0803  0.0758
 5109TIP3    H215264   1.667   5.740   3.204  0.4588 -0.2912 -0.0190
 5110TIP3   OH215265   2.203   6.635   2.251 -0.7065  0.7437  0.0688
 5110TIP3    H115266   2.155   6.556   2.275 -0.0963  0.6093  0.8547
 5110TIP3    H215267   2.251   6.610   2.172 -0.5661  0.3508  0.2773
 5111TIP3   OH215268   8.450   6.030   3.886  0.1403 -0.2699  0.5964
 5111TIP3    H115269   8.402   6.018   3.803  1.3279 -0.0838 -0.1258
 5111TIP3    H215270   8.427   6.119   3.913  0.6489  0.0961 -0.1394
 5112TIP3   OH215271   2.174   6.510   0.611 -0.5327  0.0895 -0.5009
 5112TIP3    H115272   2.201   6.582   0.554  1.4809 -0.3172 -0.1060
 5112TIP3    H215273   2.208   6.534   0.697 -0.6451 -0.8938 -0.1800
 5113TIP3   OH215274   0.047   6.515   2.718  0.6153 -0.2780  0.1676
 5113TIP3    H115275  -0.045   6.538   2.707  0.8464  0.4435 -0.2808
 5113TIP3    H215276   0.053   6.481   2.807 -0.0543 -0.1764  0.2525
 5114TIP3   OH215277   0.363   7.128   3.295 -0.2724 -0.4751 -0.2492
 5114TIP3    H115278   0.287   7.186   3.302  1.0084  1.2019  0.3847
 5114TIP3    H215279   0.428   7.167   3.355  0.3601 -3.0269  0.8088
 5115TIP3   OH215280   3.616   0.433   2.165 -0.1366 -0.5451 -0.1228
 5115TIP3    H115281   3.674   0.361   2.191 -0.1492 -0.0578  1.2948
 5115TIP3    H215282   3.668   0.512   2.180 -0.8034 -0.1554  0.1604
 5116TIP3   OH215283   2.898   7.613   1.859  0.6592 -0.4684 -0.8111
 5116TIP3    H115284   2.870   7.603   1.950  0.7221 -3.1269 -1.0562
 5116TIP3    H215285   2.818   7.637   1.812  0.6073  0.8105 -0.0952
 5117TIP3   OH215286   7.517   4.981   2.860  0.5199 -0.4230  0.3144
 5117TIP3    H115287   7.494   5.005   2.770  0.5573  1.0656  0.6860
 5117TIP3    H215288   7.439   5.003   2.911  1.7295  2.0640  1.1672
 5118TIP3   OH215289   5.193   1.517   2.336 -0.3373  0.3293 -0.4442
 5118TIP3    H115290   5.171   1.476   2.419  1.7056 -0.5902 -0.3341
 5118TIP3    H215291   5.234   1.447   2.284 -0.4602  1.2005 -1.7563
 5119TIP3   OH215292   3.523   6.688   1.770 -0.0383  0.0624  0.1710
 5119TIP3    H115293   3.598   6.748   1.771 -0.3242  0.4132  0.2866
 5119TIP3    H215294   3.494   6.689   1.678 -0.3355  0.4632  0.2672
 5120TIP3   OH215295   8.396   5.913   3.025  0.2084 -0.0841 -0.3345
 5120TIP3    H115296   8.376   5.942   2.936  0.7303 -3.1409 -1.5076
 5120TIP3    H215297   8.313   5.880   3.059  0.2168  0.2254 -0.0036
 5121TIP3   OH215298   7.239   7.127   0.256  0.1403  0.1841  0.2989
 5121TIP3    H115299   7.192   7.103   0.176 -0.3693  1.9718  0.0484
 5121TIP3    H215300   7.269   7.216   0.241  0.3966  0.3957  1.9429
 5122TIP3   OH215301   0.499   7.117   3.011  0.5948 -0.4644 -0.7264
 5122TIP3    H115302   0.435   7.046   3.013 -0.2933  0.3297 -0.4792
 5122TIP3    H215303   0.525   7.130   3.102  2.3320 -1.8571 -0.9993
 5123TIP3   OH215304   8.174   5.497   1.124  0.2184 -0.4341  0.1367
 5123TIP3    H115305   8.253   5.547   1.145 -0.3022  0.3424  0.2727
 5123TIP3    H215306   8.121   5.500   1.203 -1.0640  1.2061 -0.7342
 5124TIP3   OH215307   3.849   5.370   1.293  0.1809 -0.0958 -0.2033
 5124TIP3    H115308   3.901   5.292   1.276  0.3036  0.1183 -0.8060
 5124TIP3    H215309   3.815   5.396   1.207 -1.5133 -0.6525  0.2671
 5125TIP3   OH215310   4.292   7.174   1.775 -0.5803 -0.3864  0.1259
 5125TIP3    H115311   4.371   7.121   1.765 -0.7404 -0.2148 -2.4796
 5125TIP3    H215312   4.315   7.239   1.841  1.4048 -0.4404 -0.4823
 5126TIP3   OH215313   2.850   6.299   2.549 -0.4259 -0.4048 -0.0365
 5126TIP3    H115314   2.764   6.339   2.532  0.0306 -0.3617 -2.4092
 5126TIP3    H215315   2.910   6.373   2.552 -0.0094 -0.6834 -1.5140
 5127TIP3   OH215316   4.880   0.915   2.631  0.2534  0.3150 -0.0014
 5127TIP3    H115317   4.925   0.999   2.639 -0.1881  0.5416  0.1681
 5127TIP3    H215318   4.942   0.857   2.588  1.4733  0.0338  2.0678
 5128TIP3   OH215319   1.473   6.416   1.018 -0.5555 -0.2816  0.5613
 5128TIP3    H115320   1.569   6.420   1.025 -0.6011 -1.2534  2.0989
 5128TIP3    H215321   1.457   6.346   0.955 -0.2532 -0.2439  0.4383
 5129TIP3   OH215322   1.133   6.854   1.540  0.4645 -0.7582  0.3033
 5129TIP3    H115323   1.068   6.895   1.597  0.0531 -0.6624 -0.2390
 5129TIP3    H215324   1.084   6.792   1.487  0.9116 -1.1321  0.3191
 5130TIP3   OH215325   2.446   7.497   3.643 -0.1627 -0.5129  0.8600
 5130TIP3    H115326   2.447   7.524   3.552 -1.1885  0.1382  1.0359
 5130TIP3    H215327   2.508   7.424   3.647  0.4290 -0.0734 -0.1985
 5131TIP3   OH215328   8.313   6.846   3.665 -0.3126  0.1691 -0.5078
 5131TIP3    H115329   8.365   6.777   3.622  0.4408 -1.2179  2.5018
 5131TIP3    H215330   8.237   6.800   3.700 -0.0286  0.9192  1.1366
 5132TIP3   OH215331   1.515   6.619   2.245 -0.2675  0.0178 -0.2472
 5132TIP3    H115332   1.587   6.566   2.279 -0.8398 -0.6885 -0.1355
 5132TIP3    H215333   1.481   6.570   2.170 -0.6104  0.3587 -0.3169
 5133TIP3   OH215334   6.615   7.905   1.068  0.6180 -0.1340 -0.2098
 5133TIP3    H115335   6.569   7.924   1.149  2.2001 -3.1084  1.4882
 5133TIP3    H215336   6.650   7.989   1.039  0.0606  0.9547  2.2001
 5134TIP3   OH215337   3.630   7.971   6.875  0.1388  0.3462 -0.5480
 5134TIP3    H115338   3.664   7.883   6.859 -1.1281 -0.2059 -0.2151
 5134TIP3    H215339   3.685   8.005   6.946  1.1128  0.1134 -1.1840
 5135TIP3   OH215340   1.035   6.245   3.045  0.0751 -0.1158 -0.0720
 5135TIP3    H115341   0.975   6.229   2.972  0.7255 -1.5446 -0.2953
 5135TIP3    H215342   1.097   6.310   3.011  0.7336 -1.2199 -0.9940
 5136TIP3   OH215343   7.601   5.738   2.355 -0.0062  0.7490 -0.3736
 5136TIP3    H115344   7.593   5.784   2.272  0.2770 -0.9650 -1.3659
 5136TIP3    H215345   7.691   5.757   2.384 -0.2375  1.6764 -0.2332
 5137TIP3   OH215346   4.066   5.897   1.614  0.0759  0.1783  0.0963
 5137TIP3    H115347   3.977   5.865   1.597  0.1803 -0.5793  0.9477
 5137TIP3    H215348   4.053   5.967   1.679  0.2631 -1.2592  1.7288
 5138TIP3   OH215349   0.985   7.983   2.173  0.5611 -0.5288 -0.2821
 5138TIP3    H115350   0.985   7.901   2.123  0.3161 -0.2861 -0.6816
 5138TIP3    H215351   0.926   7.965   2.246 -0.1016 -0.4529 -0.7962
 5139TIP3   OH215352   1.216   5.513   2.852 -0.5591  0.5541 -0.6640
 5139TIP3    H115353   1.207   5.606   2.835 -1.1722  0.6602  0.2086
 5139TIP3    H215354   1.217   5.506   2.948 -1.1545 -0.3873 -0.7230
 5140TIP3   OH215355   3.580   1.065   2.772 -0.5919  0.4746 -0.5015
 5140TIP3    H115356   3.633   0.989   2.750 -2.1369 -0.1599 -2.1262
 5140TIP3    H215357   3.552   1.050   2.862  2.2789  1.0348  0.5606
 5141TIP3   OH215358   2.912   7.906   2.225  0.5084 -0.3452  0.2349
 5141TIP3    H115359   2.862   7.848   2.282  1.6786 -0.9772  0.6440
 5141TIP3    H215360   2.989   7.855   2.200  0.5280  0.3008 -1.0743
 5142TIP3   OH215361   6.024   2.523   6.876  0.1147 -0.0022  0.4945
 5142TIP3    H115362   6.105   2.503   6.923  0.2668 -0.4918  0.0302
 5142TIP3    H215363   6.019   2.456   6.808 -1.6044 -1.1296  1.6708
 5143TIP3   OH215364   1.926   5.822   0.404  0.1983  0.2377  0.3097
 5143TIP3    H115365   1.945   5.915   0.408  2.2012 -0.0534 -1.4499
 5143TIP3    H215366   1.956   5.795   0.317  1.1671 -2.3505  1.3805
 5144TIP3   OH215367   0.042   7.955   0.717  0.2677 -0.1333 -0.3654
 5144TIP3    H115368   0.085   7.899   0.782 -0.5939 -0.8675 -0.4098
 5144TIP3    H215369  -0.023   7.897   0.676 -1.0402  1.0685 -0.0042
 5145TIP3   OH215370   3.672   6.947   2.945  0.4202  0.2585  0.1261
 5145TIP3    H115371   3.715   7.023   2.984  0.5363 -0.6338  1.7565
 5145TIP3    H215372   3.692   6.875   3.004  0.2515 -1.0465 -1.3732
 5146TIP3   OH215373   2.042   6.290   1.613  0.3375 -0.3388 -0.1318
 5146TIP3    H115374   1.961   6.247   1.585  1.1789 -0.6613 -2.2016
 5146TIP3    H215375   2.112   6.238   1.573  1.4962  1.0839 -0.0019
 5147TIP3   OH215376   4.304   0.670   3.227 -0.0787  0.3817 -0.0103
 5147TIP3    H115377   4.260   0.658   3.311 -1.6843  0.0201 -0.8972
 5147TIP3    H215378   4.252   0.735   3.181  1.0363  0.8957 -0.5751
 5148TIP3   OH215379   0.702   5.911   0.210  0.4064  0.0875 -0.2119
 5148TIP3    H115380   0.745   5.831   0.239  0.2962 -0.1261 -0.6338
 5148TIP3    H215381   0.610   5.898   0.234  0.6793  0.8189  1.2814
 5149TIP3   OH215382   0.380   6.176   1.306 -0.6044  1.0519  0.1454
 5149TIP3    H115383   0.291   6.141   1.303  0.0354 -0.7494  1.0843
 5149TIP3    H215384   0.372   6.258   1.355 -1.6053  0.3936  1.1266
 5150TIP3   OH215385   0.098   7.461   1.848  0.6814 -0.8025  0.2243
 5150TIP3    H115386   0.098   7.549   1.812  0.1362 -0.8268  0.1610
 5150TIP3    H215387   0.007   7.444   1.871  0.7624 -1.3916  0.1309
 5151TIP3   OH215388   3.150   1.656   3.279 -0.4866 -0.2472  0.1264
 5151TIP3    H115389   3.055   1.663   3.287 -0.4696  1.7247 -0.9774
 5151TIP3    H215390   3.166   1.663   3.185  0.8795  1.6374  0.4680
 5152TIP3   OH215391   0.703   6.088   2.631  0.3041 -0.4563 -0.0371
 5152TIP3    H115392   0.642   6.118   2.699  0.7729 -0.0762  0.2124
 5152TIP3    H215393   0.659   6.012   2.593 -0.7642  0.3686 -0.4881
 5153TIP3   OH215394   1.425   7.091   2.312  1.1441  0.4155  0.1153
 5153TIP3    H115395   1.468   7.007   2.294  1.9898  0.6751  0.9220
 5153TIP3    H215396   1.392   7.119   2.227  0.7143 -0.8112 -0.1369
 5154TIP3   OH215397   5.532   6.768   1.465  0.2778 -0.3148  0.1830
 5154TIP3    H115398   5.461   6.708   1.444  0.8073 -1.6746  2.1681
 5154TIP3    H215399   5.607   6.737   1.414  0.0371 -0.1643 -0.2648
 5155TIP3   OH215400   1.088   7.123   1.931 -0.1090 -0.1591  0.5288
 5155TIP3    H115401   1.087   7.190   1.863 -0.0464 -0.0578  0.6288
 5155TIP3    H215402   1.049   7.046   1.889  1.6277 -0.6672 -0.2170
 5156TIP3   OH215403   3.846   6.969   0.644  0.0554 -0.0644 -0.1760
 5156TIP3    H115404   3.940   6.950   0.638  0.1016  0.5646 -1.6390
 5156TIP3    H215405   3.830   6.978   0.738  1.4495 -0.2201  0.0948
 5157TIP3   OH215406   7.991   5.949   2.763 -0.2114 -0.3203  0.3030
 5157TIP3    H115407   7.994   6.035   2.805 -1.1879  0.1574 -0.5747
 5157TIP3    H215408   7.983   5.969   2.670  2.7792 -1.3605 -0.2141
 5158TIP3   OH215409   3.050   0.402   2.492 -0.3913 -0.7813 -0.2376
 5158TIP3    H115410   3.068   0.416   2.585  0.2751 -0.5734 -0.3964
 5158TIP3    H215411   2.985   0.469   2.471 -1.1777 -1.3765  0.2776
 5159TIP3   OH215412   2.690   5.524   2.268  0.6330  0.1870  0.3329
 5159TIP3    H115413   2.696   5.489   2.179 -0.8633  0.6595  0.0267
 5159TIP3    H215414   2.774   5.567   2.283  1.3543 -0.9188 -0.4000
 5160TIP3   OH215415   0.554   5.397   3.306 -0.3919  0.1317 -0.1509
 5160TIP3    H115416   0.502   5.463   3.352  1.0583  0.5869  0.9116
 5160TIP3    H215417   0.605   5.355   3.376  0.6816 -0.2532 -1.1506
 5161TIP3   OH215418   2.418   7.624   3.106 -0.1853 -0.5718 -0.4100
 5161TIP3    H115419   2.346   7.684   3.087 -1.2260 -2.1774 -1.7273
 5161TIP3    H215420   2.468   7.621   3.024 -0.6614 -2.1832 -0.6511
 5162TIP3   OH215421   0.303   5.540   2.418 -0.2362 -0.4799  0.2644
 5162TIP3    H115422   0.334   5.468   2.363 -1.5010 -0.7624 -0.0863
 5162TIP3    H215423   0.227   5.575   2.371 -0.3870  0.2666  1.0626
 5163TIP3   OH215424   0.533   6.511   1.129  0.1193  0.2460 -0.5720
 5163TIP3    H115425   0.493   6.598   1.139 -1.4726 -0.7473  2.3833
 5163TIP3    H215426   0.584   6.500   1.209 -1.0163 -2.1830 -0.1583
 5164TIP3   OH215427   8.015   7.032   2.520  0.3955 -0.2279 -0.0241
 5164TIP3    H115428   8.050   7.031   2.432  0.0047 -0.1957 -0.1836
 5164TIP3    H215429   7.999   6.940   2.541 -1.7647 -0.0954 -0.9130
 5165TIP3   OH215430   4.859   0.020   3.362 -0.1880 -0.2018  0.6267
 5165TIP3    H115431   4.782   0.076   3.372 -1.1905 -1.3242 -0.6783
 5165TIP3    H215432   4.920   0.072   3.310 -0.0540  0.6830  1.6519
 5166TIP3   OH215433   1.199   5.501   0.252 -0.0504  0.2360 -0.3738
 5166TIP3    H115434   1.274   5.475   0.197  0.6120 -0.8075  0.9836
 5166TIP3    H215435   1.133   5.531   0.190  1.3160  0.7118 -1.6337
 5167TIP3   OH215436   2.495   0.724   3.179  0.0851 -0.0593  0.6136
 5167TIP3    H115437   2.562   0.782   3.215  0.3703 -0.2709  0.4234
 5167TIP3    H215438   2.528   0.636   3.196  0.3188 -0.1619 -0.3338
 5168TIP3   OH215439   4.393   5.444   2.440 -0.3976  0.3327  0.0848
 5168TIP3    H115440   4.322   5.499   2.406 -1.8419 -1.3313  0.3466
 5168TIP3    H215441   4.371   5.356   2.412  1.5263 -0.2231  0.2778
 5169TIP3   OH215442   2.983   2.447   3.049  0.0936  0.1985 -0.2929
 5169TIP3    H115443   2.917   2.412   3.109 -0.0356  1.2130  0.1691
 5169TIP3    H215444   3.000   2.376   2.988 -0.1426 -0.6836  0.6491
 5170TIP3   OH215445   1.966   6.353   3.238  0.0854 -0.3811  1.0012
 5170TIP3    H115446   2.053   6.366   3.275 -0.4489 -1.0181  2.5362
 5170TIP3    H215447   1.915   6.315   3.310 -1.5222  0.2083  0.2012
 5171TIP3   OH215448   4.743   1.069   0.515  0.1770 -0.7047 -0.2544
 5171TIP3    H115449   4.691   1.010   0.459 -0.2046  1.1445 -1.8908
 5171TIP3    H215450   4.678   1.115   0.568  0.1761  0.9401 -1.6479
 5172TIP3   OH215451   0.715   6.257   0.915 -0.3647  0.2202 -0.4393
 5172TIP3    H115452   0.773   6.198   0.867 -0.1239 -0.1845  0.3413
 5172TIP3    H215453   0.764   6.340   0.920 -1.1641  0.8408 -2.4998
 5173TIP3   OH215454   0.630   7.801   2.597 -0.0945 -0.0927  0.2291
 5173TIP3    H115455   0.570   7.730   2.621  0.4816  0.1104  2.3673
 5173TIP3    H215456   0.701   7.795   2.660  1.6475  0.3297 -1.6487
 5174TIP3   OH215457   1.866   7.301   0.798 -0.4190  0.3409  0.4327
 5174TIP3    H115458   1.900   7.348   0.875  1.9534 -0.4387 -0.0879
 5174TIP3    H215459   1.943   7.259   0.760 -1.9389 -1.1183 -1.1130
 5175TIP3   OH215460   7.991   6.965   1.313 -0.3408  0.5388 -0.2122
 5175TIP3    H115461   8.038   6.986   1.233 -0.7656  1.5123 -0.2196
 5175TIP3    H215462   7.937   6.889   1.290 -1.5950  1.7253 -1.2996
 5176TIP3   OH215463   3.449   6.769   2.117  0.3418 -0.2877 -0.0361
 5176TIP3    H115464   3.527   6.803   2.073 -1.2526  1.5740 -1.5408
 5176TIP3    H215465   3.391   6.742   2.046  0.1222 -2.9224  1.0882
 5177TIP3   OH215466   3.067   0.190   3.077  0.1011  0.1335 -0.2085
 5177TIP3    H115467   3.046   0.123   3.142  1.9942 -0.9570 -0.6686
 5177TIP3    H215468   3.047   0.149   2.993  0.9203  0.2622 -0.4736
 5178TIP3   OH215469   3.400   6.593   0.365  0.5041  0.2401  0.1301
 5178TIP3    H115470   3.362   6.524   0.419 -0.0810  0.0753 -0.4956
 5178TIP3    H215471   3.388   6.673   0.417 -0.7044  0.1938 -0.0803
 5179TIP3   OH215472   1.281   5.730   1.700  0.1436  0.2158  0.4684
 5179TIP3    H115473   1.236   5.650   1.728  0.5953 -0.2591 -0.1185
 5179TIP3    H215474   1.212   5.795   1.690 -0.5241 -0.6977 -1.1127
 5180TIP3   OH215475   2.279   4.790   0.885 -0.4198  0.4316 -0.3053
 5180TIP3    H115476   2.356   4.760   0.836 -0.8338 -1.7143  0.3190
 5180TIP3    H215477   2.237   4.854   0.827 -0.0821 -0.9813 -2.1496
 5181TIP3   OH215478   3.107   6.498   1.031 -0.0002  0.4165 -0.3650
 5181TIP3    H115479   3.130   6.419   0.981 -1.1809 -0.1936  0.0448
 5181TIP3    H215480   3.061   6.553   0.968 -0.0027  0.3789 -0.3962
 5182TIP3   OH215481   8.516   4.044   0.996 -0.4405 -0.1692  0.0640
 5182TIP3    H115482   8.514   4.084   0.909 -0.8883  0.7287  0.4811
 5182TIP3    H215483   8.426   4.055   1.029 -0.3619 -0.8081  0.5070
 5183TIP3   OH215484   0.295   4.389   2.665 -0.0529 -0.2693 -0.5625
 5183TIP3    H115485   0.241   4.462   2.694  1.1952 -0.2688  1.9157
 5183TIP3    H215486   0.237   4.313   2.669  0.2470 -0.4030  2.8345
 5184TIP3   OH215487   1.744   6.358   1.866  0.4279  0.3539  0.0732
 5184TIP3    H115488   1.664   6.403   1.841  1.6639  1.7544 -1.4989
 5184TIP3    H215489   1.737   6.271   1.827 -0.5881  0.2528  0.4719
 5185TIP3   OH215490   4.441   1.002   2.735  0.2661 -0.7471  0.1575
 5185TIP3    H115491   4.417   0.926   2.789 -0.3591 -1.3253 -0.9285
 5185TIP3    H215492   4.516   0.973   2.684  1.0114 -0.1155  0.8796
 5186TIP3   OH215493   7.774   5.019   2.979 -0.0527  0.1533 -0.1033
 5186TIP3    H115494   7.689   4.981   2.958 -0.4852  0.9161  0.2609
 5186TIP3    H215495   7.788   5.086   2.912 -0.5543  1.2600  0.8915
 5187TIP3   OH215496   4.043   1.511   2.949  0.2115 -0.7521 -0.5463
 5187TIP3    H115497   4.138   1.507   2.963  0.2716 -1.5970 -1.1481
 5187TIP3    H215498   4.006   1.480   3.031  0.4940 -1.9857 -0.8714
 5188TIP3   OH215499   2.667   0.506   3.259 -0.1039  0.1155  0.2317
 5188TIP3    H115500   2.646   0.441   3.326  0.6125 -0.0010  0.3454
 5188TIP3    H215501   2.685   0.455   3.180 -0.7656  0.2424 -0.0036
 5189TIP3   OH215502   3.084   7.182   2.843  0.0937 -0.3299  0.1785
 5189TIP3    H115503   2.990   7.183   2.860 -0.0518  1.8524 -0.6489
 5189TIP3    H215504   3.101   7.264   2.797  2.8802  0.6255  2.8089
 5190TIP3   OH215505   3.107   7.644   3.074 -0.2353  0.2975 -0.2952
 5190TIP3    H115506   3.142   7.567   3.119 -2.2008 -0.5458 -0.1949
 5190TIP3    H215507   3.053   7.688   3.139  0.7077  1.6639 -0.4158
 5191TIP3   OH215508   1.088   5.500   1.749  0.1139  0.5140  0.6205
 5191TIP3    H115509   1.108   5.501   1.843  0.1898  0.2250  0.6099
 5191TIP3    H215510   1.051   5.413   1.734  1.5394 -0.0114  0.0920
 5192TIP3   OH215511   2.536   0.250   1.823 -0.2457  0.2897  0.2550
 5192TIP3    H115512   2.579   0.215   1.901  0.9162 -0.5914 -0.7433
 5192TIP3    H215513   2.532   0.175   1.763  0.7889  1.4382 -1.3119
 5193TIP3   OH215514   0.295   6.887   2.956 -0.4390 -0.0327 -0.0733
 5193TIP3    H115515   0.246   6.942   2.896 -0.2756  0.4270  0.2117
 5193TIP3    H215516   0.363   6.847   2.902 -0.1496  0.5587 -0.1511
 5194TIP3   OH215517   1.363   7.341   4.219 -0.5021  0.5393 -0.6901
 5194TIP3    H115518   1.333   7.275   4.281  0.6803  1.7652  1.2479
 5194TIP3    H215519   1.458   7.333   4.220 -0.4474  0.7568 -2.1865
 5195TIP3   OH215520   4.932   0.971   0.285  0.7151 -0.1050  0.3526
 5195TIP3    H115521   4.872   0.896   0.285  2.0727 -1.2002  0.3481
 5195TIP3    H215522   4.933   1.001   0.376  0.0969 -0.0309  0.3372
 5196TIP3   OH215523   4.318   6.557   1.630  0.3620  0.3738 -0.3944
 5196TIP3    H115524   4.261   6.550   1.553  1.0984  0.3822 -0.9483
 5196TIP3    H215525   4.372   6.634   1.613  0.5212  0.3840  0.1404
 5197TIP3   OH215526   1.677   4.885   0.502  0.0851  0.5587  0.7559
 5197TIP3    H115527   1.605   4.826   0.522  1.4399 -0.6969  2.1343
 5197TIP3    H215528   1.738   4.832   0.450  0.0975  1.5473 -0.2614
 5198TIP3   OH215529   0.564   7.160   3.536  0.4457 -0.3267 -0.8268
 5198TIP3    H115530   0.526   7.246   3.554 -1.2396 -1.1149 -0.4384
 5198TIP3    H215531   0.656   7.177   3.516  0.5514  1.3927  0.9577
 5199TIP3   OH215532   1.681   6.098   2.553  0.1409 -0.1299 -0.2215
 5199TIP3    H115533   1.680   6.010   2.516  0.8711 -0.6398  0.9407
 5199TIP3    H215534   1.757   6.140   2.512 -0.1292 -0.0897 -0.6756
 5200TIP3   OH215535   2.447   7.535   4.737 -0.4993 -0.7877 -0.4308
 5200TIP3    H115536   2.532   7.493   4.747 -0.5257 -0.7554 -0.0513
 5200TIP3    H215537   2.461   7.625   4.766 -0.6801 -0.8019 -0.2963
 5201TIP3   OH215538   8.309   5.911   3.442 -0.3836 -0.2454 -0.2192
 5201TIP3    H115539   8.396   5.932   3.407 -0.3190  2.2588  1.3601
 5201TIP3    H215540   8.248   5.952   3.380 -0.3774  0.4058  0.2077
 5202TIP3   OH215541   0.101   7.141   1.851 -0.2141  0.1137 -0.5096
 5202TIP3    H115542   0.167   7.209   1.842 -1.3916  1.6970  2.0315
 5202TIP3    H215543   0.043   7.153   1.776  1.3246 -0.1161 -1.7541
 5203TIP3   OH215544   6.386   0.474   2.659  0.5463 -0.2106  0.3343
 5203TIP3    H115545   6.326   0.548   2.662 -0.0558 -0.5677 -1.9728
 5203TIP3    H215546   6.470   0.511   2.687  0.2815  1.4069 -0.9047
 5204TIP3   OH215547   2.148   6.211   3.828 -0.2807  0.0437  0.7329
 5204TIP3    H115548   2.136   6.212   3.733  0.1468 -0.0403  0.6785
 5204TIP3    H215549   2.215   6.144   3.843 -0.4099 -0.0045  1.1016
 5205TIP3   OH215550   2.444   7.209   3.429 -0.2927 -0.2140 -0.0137
 5205TIP3    H115551   2.515   7.249   3.479 -0.3627  0.3360 -0.3472
 5205TIP3    H215552   2.438   7.262   3.350 -1.2680 -0.0752  0.1514
 5206TIP3   OH215553   4.359   0.228   3.594 -0.2416 -0.0201 -0.0573
 5206TIP3    H115554   4.319   0.194   3.674  0.8906  0.1499  0.5765
 5206TIP3    H215555   4.428   0.164   3.573  1.5335  1.5569  0.8301
 5207TIP3   OH215556   1.996   6.376   2.618 -0.4872  0.0560  0.1222
 5207TIP3    H115557   2.073   6.381   2.674 -0.4190  1.2842 -0.0601
 5207TIP3    H215558   1.934   6.322   2.666  0.3490 -0.6208  0.4374
 5208TIP3   OH215559   3.409   7.091   1.959  0.0747  0.4389 -0.0393
 5208TIP3    H115560   3.339   7.142   1.918  0.3943  1.1736  0.3228
 5208TIP3    H215561   3.429   7.138   2.040  0.4951 -0.1692  0.2168
 5209TIP3   OH215562   4.989   1.039   3.278 -0.7196  0.5047  0.2846
 5209TIP3    H115563   5.076   1.077   3.265 -0.0462  0.0091  2.9226
 5209TIP3    H215564   5.003   0.944   3.271 -0.3390  0.2057  3.8584
 5210TIP3   OH215565   2.984   7.389   0.175 -0.1728  0.2596  0.2441
 5210TIP3    H115566   2.919   7.458   0.184 -1.1460 -0.7455  1.0163
 5210TIP3    H215567   3.039   7.417   0.102 -0.7774  1.6689  0.3203
 5211TIP3   OH215568   5.450   1.287   2.347 -0.4882  0.4262 -0.2014
 5211TIP3    H115569   5.512   1.215   2.336  0.9178  1.5165  0.3415
 5211TIP3    H215570   5.380   1.251   2.400  0.0036 -0.6541 -0.2779
 5212TIP3   OH215571   5.123   7.533   3.685  0.4472 -0.0543  0.3845
 5212TIP3    H115572   5.164   7.592   3.748 -0.4486  0.5170  0.4356
 5212TIP3    H215573   5.073   7.471   3.739 -0.9989  0.9496  0.1977
 5213TIP3   OH215574   1.562   6.309   0.644 -0.1653  0.2923  0.3741
 5213TIP3    H115575   1.523   6.242   0.699  1.4191 -0.3024  0.8183
 5213TIP3    H215576   1.524   6.295   0.557 -2.9278  1.4393  1.3554
 5214TIP3   OH215577   1.505   6.960   3.065 -0.2347  0.5082  0.4028
 5214TIP3    H115578   1.471   7.049   3.070 -0.7928  0.2586  1.1465
 5214TIP3    H215579   1.429   6.906   3.044 -0.1865  0.0283  1.4356
 5215TIP3   OH215580   1.987   6.526   4.320  0.2423  0.2881 -0.0363
 5215TIP3    H115581   1.953   6.607   4.284  0.0246  0.4853  0.6105
 5215TIP3    H215582   1.963   6.459   4.256  0.4732  0.7411 -0.5949
 5216TIP3   OH215583   1.750   7.863   1.436 -0.6915 -0.5241  0.3259
 5216TIP3    H115584   1.739   7.770   1.419  1.0824 -0.2647 -2.5530
 5216TIP3    H215585   1.772   7.901   1.351  0.4215  2.2293  1.7705
 5217TIP3   OH215586   1.817   6.143   1.044  0.5445  0.6346  0.0304
 5217TIP3    H115587   1.814   6.090   1.123  1.4396  1.0399  0.3471
 5217TIP3    H215588   1.906   6.179   1.043  0.9410 -0.3154 -1.7652
 5218TIP3   OH215589   2.146   7.347   1.398 -0.0113 -0.1106 -0.1314
 5218TIP3    H115590   2.141   7.424   1.341 -1.9698 -1.0976 -1.3332
 5218TIP3    H215591   2.240   7.337   1.417  0.4862  1.1985 -1.8396
 5219TIP3   OH215592   2.535   6.972   2.320 -0.0909 -0.4276 -0.1167
 5219TIP3    H115593   2.469   6.905   2.337  0.0283 -0.7115 -0.7459
 5219TIP3    H215594   2.488   7.055   2.331 -1.0160 -0.6278 -2.2035
 5220TIP3   OH215595   5.987   0.330   1.786  0.5522  0.1261 -0.0439
 5220TIP3    H115596   5.925   0.403   1.787  1.4095  0.8566  0.2191
 5220TIP3    H215597   5.961   0.276   1.860  0.6909  0.8281  0.5213
 5221TIP3   OH215598   5.999   0.179   2.323  0.7511  0.3576  0.3011
 5221TIP3    H115599   6.037   0.262   2.354 -0.3972  1.0559 -0.1126
 5221TIP3    H215600   6.073   0.120   2.315  1.2990  0.6507  2.8438
 5222TIP3   OH215601   1.198   4.935   1.941 -0.4155 -0.1897  0.2965
 5222TIP3    H115602   1.167   4.874   1.874 -0.0905  1.5801 -1.5202
 5222TIP3    H215603   1.287   4.907   1.962 -1.5151 -2.4764  2.1268
 5223TIP3   OH215604   1.572   5.315   2.566  0.3491 -0.1198  0.1482
 5223TIP3    H115605   1.505   5.271   2.512  0.9893 -0.1451 -0.6399
 5223TIP3    H215606   1.628   5.243   2.597  1.6640  0.1443 -1.5107
 5224TIP3   OH215607   7.520   6.532   0.701  0.0983 -0.3117 -0.1362
 5224TIP3    H115608   7.495   6.567   0.615  2.4238  0.3026 -0.6139
 5224TIP3    H215609   7.590   6.590   0.730  0.3496 -1.4188  1.5153
 5225TIP3   OH215610   4.087   0.652   1.298  0.6651  0.4073  0.1593
 5225TIP3    H115611   4.068   0.558   1.307 -0.1196  0.6090  0.6579
 5225TIP3    H215612   4.072   0.670   1.205  1.8031 -0.1716 -0.1408
 5226TIP3   OH215613   1.084   5.193   0.726 -0.6395  0.2610 -0.2800
 5226TIP3    H115614   1.106   5.137   0.651 -1.2983  0.8561 -0.9332
 5226TIP3    H215615   0.992   5.216   0.712 -1.5433 -1.7151  2.0887
 5227TIP3   OH215616   2.513   6.399   2.791 -0.2622 -0.1782  0.1443
 5227TIP3    H115617   2.538   6.340   2.863 -1.0658  0.4761  0.9708
 5227TIP3    H215618   2.544   6.485   2.819 -0.8806  0.1389 -0.1397
 5228TIP3   OH215619   1.672   6.108   1.778  0.1884  0.1038 -0.1818
 5228TIP3    H115620   1.713   6.029   1.811  1.6963  1.4047  1.1016
 5228TIP3    H215621   1.580   6.101   1.805  0.6106 -0.5759  1.0828
 5229TIP3   OH215622   2.470   6.228   2.300  0.5797  0.3635  0.4087
 5229TIP3    H115623   2.517   6.250   2.381 -0.8863 -0.3141  1.4811
 5229TIP3    H215624   2.534   6.182   2.247  1.6804  1.1511  1.0267
 5230TIP3   OH215625   1.627   4.448   2.168 -0.1316 -0.3970  0.0768
 5230TIP3    H115626   1.684   4.510   2.122  1.6465 -1.7923  0.3563
 5230TIP3    H215627   1.592   4.498   2.243 -0.6116  0.9543 -1.0322
 5231TIP3   OH215628   0.848   5.686   2.459 -0.2352 -0.4094 -0.1257
 5231TIP3    H115629   0.878   5.691   2.368 -0.0989  0.9981 -0.0097
 5231TIP3    H215630   0.911   5.738   2.508 -1.0599 -0.0762  0.5874
 5232TIP3   OH215631   4.713   5.117   0.967 -0.6146 -0.6224 -0.1369
 5232TIP3    H115632   4.720   5.077   1.053  0.9657 -3.3948 -1.5030
 5232TIP3    H215633   4.620   5.110   0.945 -0.6319 -2.0021  0.3628
 5233TIP3   OH215634   3.373   7.923   2.556  0.5984 -0.1774 -0.4237
 5233TIP3    H115635   3.331   7.908   2.471 -1.8273  1.5379  0.4225
 5233TIP3    H215636   3.332   8.003   2.589  1.1292 -1.1163  2.6222
 5234TIP3   OH215637   0.296   6.625   2.594 -0.4432 -0.2581 -0.6892
 5234TIP3    H115638   0.213   6.607   2.637 -0.5174  0.6817 -0.4141
 5234TIP3    H215639   0.341   6.541   2.589 -1.4078 -0.7589 -0.8300
 5235TIP3   OH215640   0.233   5.919   3.869  0.0183 -0.0975  0.0249
 5235TIP3    H115641   0.142   5.940   3.892 -0.0329  0.0065 -0.2675
 5235TIP3    H215642   0.226   5.867   3.789  0.2561  0.6032 -0.4632
 5236TIP3   OH215643   0.503   6.749   0.500 -0.0866  0.0538 -0.1800
 5236TIP3    H115644   0.586   6.757   0.453 -0.3139 -0.8296 -0.7561
 5236TIP3    H215645   0.467   6.837   0.501  1.0976  0.5260  0.5099
 5237TIP3   OH215646   1.705   6.820   1.004 -0.0753 -0.2051 -0.4752
 5237TIP3    H115647   1.684   6.908   0.976  0.0189  0.1573  0.5621
 5237TIP3    H215648   1.714   6.770   0.923  0.7620  0.9392 -1.0956
 5238TIP3   OH215649   0.457   5.327   3.636  0.5608 -0.2549 -0.0441
 5238TIP3    H115650   0.543   5.310   3.598  0.2859  1.3693 -1.4267
 5238TIP3    H215651   0.397   5.323   3.562 -0.5930 -1.5095  0.9352
 5239TIP3   OH215652   2.434   6.478   2.142 -0.3320 -0.2077 -0.2268
 5239TIP3    H115653   2.445   6.469   2.047 -0.3770  0.2200 -0.2736
 5239TIP3    H215654   2.458   6.392   2.177  1.5958  0.2166 -0.4575
 5240TIP3   OH215655   0.319   6.946   3.964  0.0701 -0.5426 -0.1539
 5240TIP3    H115656   0.412   6.943   3.987  0.0937 -0.6236 -0.2604
 5240TIP3    H215657   0.311   6.888   3.888  0.6375  2.4529 -2.5916
 5241TIP3   OH215658   2.227   3.611   1.829  0.4610  0.1211 -0.1963
 5241TIP3    H115659   2.147   3.657   1.851 -0.9478 -1.8149 -1.0778
 5241TIP3    H215660   2.249   3.641   1.740  0.0088 -0.2632 -0.4408
 5242TIP3   OH215661   1.140   6.498   1.635 -0.1912  0.2208  0.3270
 5242TIP3    H115662   1.067   6.486   1.575 -0.0848  2.1638 -0.2434
 5242TIP3    H215663   1.199   6.557   1.589  1.0361 -0.1603  1.3796
 5243TIP3   OH215664   4.954   6.770   1.473  0.1706  0.2498 -0.1811
 5243TIP3    H115665   4.939   6.722   1.554 -0.5898  0.6359 -0.0854
 5243TIP3    H215666   5.044   6.802   1.480  1.3640 -2.7311 -1.0782
 5244TIP3   OH215667   4.332   7.827   1.588  0.1953 -0.4484 -0.5296
 5244TIP3    H115668   4.285   7.795   1.510 -1.2741 -0.2954  0.2772
 5244TIP3    H215669   4.424   7.808   1.569 -0.2230 -1.2092 -1.9356
 5245TIP3   OH215670   6.467   0.579   1.689  0.0474 -0.4232  0.1140
 5245TIP3    H115671   6.503   0.524   1.620 -0.1581  0.6082 -0.8269
 5245TIP3    H215672   6.372   0.580   1.673 -0.1533 -1.2720  1.2136
 5246TIP3   OH215673   8.013   1.074   0.598  0.3146  0.4361 -0.1693
 5246TIP3    H115674   8.000   1.009   0.529 -0.6450  0.5167 -0.0678
 5246TIP3    H215675   8.107   1.092   0.597  0.9326 -2.4411  1.1699
 5247TIP3   OH215676   8.180   2.183   6.846 -0.2232  0.1909 -0.0059
 5247TIP3    H115677   8.233   2.107   6.820  0.1028  0.3476  0.1942
 5247TIP3    H215678   8.115   2.147   6.907 -0.9800 -0.1711 -1.0218
 5248TIP3   OH215679   0.563   5.841   3.017 -0.6791  0.1768 -0.3553
 5248TIP3    H115680   0.502   5.830   2.944 -2.4105  0.2800  1.0379
 5248TIP3    H215681   0.589   5.752   3.040 -1.8795 -0.0190  0.3147
 5249TIP3   OH215682   2.120   2.797   4.658 -0.1554  0.2479  0.7561
 5249TIP3    H115683   2.094   2.876   4.611  2.1382 -0.5001 -1.8930
 5249TIP3    H215684   2.042   2.741   4.656 -0.1829  0.3409 -1.9901
 5250TIP3   OH215685   4.521   1.966   1.685 -0.0844 -0.5230 -0.2053
 5250TIP3    H115686   4.531   2.035   1.751 -1.1470 -0.1045 -0.4623
 5250TIP3    H215687   4.608   1.956   1.647  0.1829  0.3653  0.1507
 5251TIP3   OH215688   6.179   0.257   1.582  0.4365  0.8289 -0.4713
 5251TIP3    H115689   6.116   0.263   1.654  3.0339  2.8244  1.7145
 5251TIP3    H215690   6.231   0.179   1.602  1.2558  1.4693 -0.1195
 5252TIP3   OH215691   0.808   7.552   2.278 -0.1695 -0.1308  0.1266
 5252TIP3    H115692   0.773   7.489   2.216 -0.4692 -0.7367  0.9092
 5252TIP3    H215693   0.900   7.526   2.289  0.1861  0.6351 -0.8776
 5253TIP3   OH215694   6.423   0.378   0.545 -0.1644 -0.0628 -0.3894
 5253TIP3    H115695   6.440   0.328   0.465 -1.4103  0.1896 -0.8195
 5253TIP3    H215696   6.359   0.444   0.519  1.5178  1.8302  0.1521
 5254TIP3   OH215697   7.136   0.392   1.971 -0.3452  0.6074  0.1579
 5254TIP3    H115698   7.217   0.442   1.961 -0.2940  0.6928  0.9499
 5254TIP3    H215699   7.102   0.383   1.882  2.3223 -2.3962 -0.6641
 5255TIP3   OH215700   1.899   5.387   2.634  0.4690 -0.1073 -0.0509
 5255TIP3    H115701   1.981   5.435   2.643  0.3420  0.0746  0.1674
 5255TIP3    H215702   1.895   5.362   2.542  1.2831 -1.0509  0.1641
 5256TIP3   OH215703   2.177   8.005   1.618  0.2411  0.2296  0.3802
 5256TIP3    H115704   2.092   8.033   1.584  0.2769 -2.9859 -2.6127
 5256TIP3    H215705   2.158   7.972   1.706 -1.3400  0.7342  0.2444
 5257TIP3   OH215706   3.546   7.720   2.643 -0.4731  0.2754 -0.5802
 5257TIP3    H115707   3.491   7.791   2.609 -1.4338 -0.8143 -1.3280
 5257TIP3    H215708   3.495   7.682   2.715 -0.9290 -1.0202 -1.5608
 5258TIP3   OH215709   5.178   7.715   1.928 -0.0752  0.8018 -0.0995
 5258TIP3    H115710   5.167   7.798   1.975  2.6926  1.3096 -0.2472
 5258TIP3    H215711   5.238   7.736   1.856  2.0286 -1.6673  0.8519
 5259TIP3   OH215712   4.082   6.537   1.805 -0.2195  0.5159  0.0085
 5259TIP3    H115713   4.160   6.563   1.756 -1.6160  2.4186 -1.2590
 5259TIP3    H215714   4.066   6.611   1.864 -0.8464 -0.0613  0.5704
 5260TIP3   OH215715   2.252   5.422   3.926 -0.5391  0.1360 -0.4336
 5260TIP3    H115716   2.164   5.416   3.889 -1.9919  1.6215  2.5776
 5260TIP3    H215717   2.255   5.354   3.993  0.0067  1.1627  0.6082
 5261TIP3   OH215718   4.829   7.479   0.928 -0.1910 -0.0533  0.2559
 5261TIP3    H115719   4.776   7.525   0.863  0.4244 -0.0271 -0.2338
 5261TIP3    H215720   4.787   7.499   1.011 -3.5608 -3.5965 -0.4472
 5262TIP3   OH215721   4.830   0.828   1.271 -0.4682  0.6858 -0.4664
 5262TIP3    H115722   4.773   0.763   1.231  0.3670 -0.2289 -0.1836
 5262TIP3    H215723   4.885   0.778   1.332 -0.2714  1.7460  0.2458
 5263TIP3   OH215724   4.037   7.526   1.169 -0.2828 -0.0085  0.4071
 5263TIP3    H115725   4.030   7.432   1.188  0.6321 -0.2524 -0.4085
 5263TIP3    H215726   4.071   7.530   1.080 -0.7770  1.1073  0.2554
 5264TIP3   OH215727   1.432   7.024   1.428 -0.1228 -0.6497 -0.5111
 5264TIP3    H115728   1.408   6.941   1.387  0.4044 -1.1223  0.1191
 5264TIP3    H215729   1.432   7.087   1.356 -2.8993 -0.6814 -0.6132
 5265TIP3   OH215730   6.823   2.362   4.551 -0.0807  0.2933 -0.0171
 5265TIP3    H115731   6.891   2.412   4.595  1.5465 -0.3572 -1.7145
 5265TIP3    H215732   6.762   2.428   4.518  1.2177  1.0876 -0.8934
 5266TIP3   OH215733   4.623   0.720   1.903  0.1146 -0.3258  0.1697
 5266TIP3    H115734   4.597   0.714   1.811  0.6190 -1.0402  0.0650
 5266TIP3    H215735   4.590   0.639   1.942  1.5350 -0.9054  0.1935
 5267TIP3   OH215736   5.064   6.286   1.589 -0.1727 -0.3279  0.2073
 5267TIP3    H115737   4.991   6.317   1.642  1.3178  0.3569  1.9409
 5267TIP3    H215738   5.053   6.191   1.586 -0.8515 -0.2729  0.8656
 5268TIP3   OH215739   6.787   2.069   0.062  0.1316  0.1043  0.5428
 5268TIP3    H115740   6.781   2.007  -0.010 -0.3365 -0.6359  1.2109
 5268TIP3    H215741   6.846   2.138   0.030  0.3913 -0.5154 -0.3215
 5269TIP3   OH215742   3.754   7.990   0.389  0.0545  0.7001 -0.2839
 5269TIP3    H115743   3.729   7.985   0.481  1.1980 -4.1949 -0.0714
 5269TIP3    H215744   3.849   7.978   0.389  0.2693  2.1430 -2.0452
 5270TIP3   OH215745   4.678   7.238   0.148 -0.5524 -0.4878 -0.2548
 5270TIP3    H115746   4.730   7.314   0.123  0.7132 -1.3773 -0.3873
 5270TIP3    H215747   4.671   7.243   0.244  1.8569 -1.6594  0.0063
 5271TIP3   OH215748   7.291   1.276   1.825 -0.5337 -0.2569  0.1550
 5271TIP3    H115749   7.306   1.320   1.909 -0.2468  1.7413 -0.9067
 5271TIP3    H215750   7.202   1.301   1.800 -1.4366 -2.6399  0.8889
 5272TIP3   OH215751   3.244   7.224   1.734  0.1729 -0.1144 -0.3635
 5272TIP3    H115752   3.227   7.131   1.749 -1.9552 -0.1058 -2.3443
 5272TIP3    H215753   3.157   7.262   1.721  1.1507  1.7598 -1.7086
 5273TIP3   OH215754   4.740   6.572   1.385  0.3613 -0.2165  0.1997
 5273TIP3    H115755   4.772   6.547   1.298  0.6748  0.6939  0.0472
 5273TIP3    H215756   4.730   6.667   1.381 -0.8029 -0.3085  0.7763
 5274TIP3   OH215757   0.945   3.015   6.854  0.2641 -0.3456  0.4314
 5274TIP3    H115758   0.929   2.939   6.909  1.7384 -1.1684 -0.2515
 5274TIP3    H215759   1.022   3.056   6.892  0.8422 -0.5020 -0.5660
 5275TIP3   OH215760   0.150   1.155   1.511  0.5861 -0.5410 -0.0110
 5275TIP3    H115761   0.199   1.170   1.592 -1.0203  1.0654  0.7050
 5275TIP3    H215762   0.107   1.238   1.493 -0.2077 -1.2971 -1.7602
 5276TIP3   OH215763   6.840   0.670   0.322  0.5898  0.1011 -0.0223
 5276TIP3    H115764   6.897   0.721   0.379 -1.7933  1.7846  0.9542
 5276TIP3    H215765   6.816   0.593   0.374  0.8835  0.0698  0.0678
 5277TIP3   OH215766   6.216   0.148   0.177  0.3592 -0.3428  0.1269
 5277TIP3    H115767   6.172   0.178   0.097  0.1857 -1.2858 -0.1355
 5277TIP3    H215768   6.153   0.089   0.218  0.3561  0.3181  1.0876
 5278TIP3   OH215769   2.646   7.306   1.902 -0.0635  0.4790  0.2089
 5278TIP3    H115770   2.589   7.238   1.936  0.8093 -0.3997 -0.0770
 5278TIP3    H215771   2.729   7.262   1.884  0.4266  1.5544 -0.2348
 5279TIP3   OH215772   2.798   7.140   1.204 -0.0531  0.6384 -0.1776
 5279TIP3    H115773   2.753   7.172   1.125 -0.2134  0.2118 -0.2609
 5279TIP3    H215774   2.736   7.158   1.275 -0.6215 -0.4829 -0.3670
 5280TIP3   OH215775   6.101   0.033   0.989 -0.0324 -0.1659 -0.2219
 5280TIP3    H115776   6.177  -0.014   1.023  0.3003  0.4571 -0.1001
 5280TIP3    H215777   6.031   0.014   1.052  0.1993 -0.1871  0.0309
 5281TIP3   OH215778   1.872   5.523   0.160 -0.1019 -0.5458  0.2915
 5281TIP3    H115779   1.785   5.540   0.125 -1.2339 -0.0583  3.2321
 5281TIP3    H215780   1.890   5.432   0.136 -1.7377 -0.9012  0.3393
 5282TIP3   OH215781   8.339   3.897   6.482  0.3273 -0.0321  0.1901
 5282TIP3    H115782   8.403   3.934   6.543 -1.0869  2.1697  0.3764
 5282TIP3    H215783   8.308   3.817   6.525  0.8449  0.4151  1.3941
 5283TIP3   OH215784   5.098   7.113   0.245  0.3648  0.9178  0.0129
 5283TIP3    H115785   5.167   7.069   0.295 -1.4673 -0.5710  1.2666
 5283TIP3    H215786   5.079   7.192   0.296 -0.2772  0.2880  0.7636
 5284TIP3   OH215787   5.156   0.074   2.917 -0.2620 -0.0510 -0.2408
 5284TIP3    H115788   5.096   0.002   2.898 -0.1316  0.2365 -1.7498
 5284TIP3    H215789   5.102   0.153   2.915 -0.8007 -0.2347  3.3258
 5285TIP3   OH215790   2.489   6.287   1.653 -0.9455 -0.6164  0.0707
 5285TIP3    H115791   2.476   6.281   1.558  1.7522  1.5969 -0.5030
 5285TIP3    H215792   2.537   6.207   1.676 -0.2858 -0.4590 -0.7193
 5286TIP3   OH215793   3.267   6.946   1.744 -0.6031 -0.2117  0.2148
 5286TIP3    H115794   3.242   6.869   1.694  1.1783 -0.3436 -0.5099
 5286TIP3    H215795   3.292   6.912   1.830  1.3975 -0.6285 -0.4983
 5287TIP3   OH215796   5.197   5.970   2.002 -0.0910  0.6122 -0.1878
 5287TIP3    H115797   5.109   5.997   2.028 -0.4244 -1.3836  0.8988
 5287TIP3    H215798   5.193   5.961   1.907 -1.4408 -0.6767 -0.0262
 5288TIP3   OH215799   6.140   0.822   2.879  0.1723 -0.2733  0.1774
 5288TIP3    H115800   6.148   0.766   2.956 -1.4917  0.1617  0.6821
 5288TIP3    H215801   6.197   0.897   2.897  1.9142 -1.4704 -0.2291
 5289TIP3   OH215802   0.312   4.210   6.578  0.0870  0.5877 -0.0063
 5289TIP3    H115803   0.292   4.244   6.491 -0.7894 -0.4460 -0.2248
 5289TIP3    H215804   0.307   4.115   6.568 -1.1873  0.4734  1.4386
 5290TIP3   OH215805   1.304   6.012   3.317 -0.1539  0.3594 -0.0658
 5290TIP3    H115806   1.281   6.085   3.374  0.2326  0.2050  0.2954
 5290TIP3    H215807   1.346   6.053   3.242  0.1434  0.5098  0.1776
 5291TIP3   OH215808   0.228   6.357   0.539  0.4364 -0.6191 -0.2995
 5291TIP3    H115809   0.221   6.444   0.579  0.6911 -0.9099  0.3743
 5291TIP3    H215810   0.312   6.359   0.493  1.1725 -1.0452  1.0126
 5292TIP3   OH215811   3.425   5.925   1.526  0.1106 -0.0096  0.5057
 5292TIP3    H115812   3.346   5.894   1.571 -0.0777 -0.0774  0.1360
 5292TIP3    H215813   3.456   5.849   1.477  0.9155 -0.2362  1.3500
 5293TIP3   OH215814   6.682   0.723   3.184  0.1537  0.2987  0.2271
 5293TIP3    H115815   6.624   0.697   3.255  1.2707 -1.4217  0.5507
 5293TIP3    H215816   6.701   0.816   3.201 -1.9385  0.6940  0.4670
 5294TIP3   OH215817   7.133   0.794   0.614 -0.3177  0.4476  0.5542
 5294TIP3    H115818   7.228   0.793   0.630 -0.0311  1.5529 -0.9287
 5294TIP3    H215819   7.095   0.764   0.697  1.4298 -3.6031  0.0313
 5295TIP3   OH215820   4.841   0.513   3.150 -0.5025  0.3423 -0.5432
 5295TIP3    H115821   4.774   0.536   3.086 -0.7607 -0.6147 -0.6238
 5295TIP3    H215822   4.794   0.470   3.221 -0.1368  0.8310 -0.0033
 5296TIP3   OH215823   2.255   6.057   0.619 -0.2898  0.2004  0.3129
 5296TIP3    H115824   2.305   5.994   0.671 -0.2923  0.9057  1.1800
 5296TIP3    H215825   2.174   6.070   0.669 -1.5932 -1.3267 -1.3406
 5297TIP3   OH215826   1.018   7.540   1.534  0.0355  0.0746 -0.1523
 5297TIP3    H115827   1.001   7.513   1.444 -2.7393  0.5890  0.1677
 5297TIP3    H215828   0.977   7.472   1.588  0.5389  0.4427  0.7196
 5298TIP3   OH215829   2.727   7.932   1.912  0.0525  0.8526 -0.3401
 5298TIP3    H115830   2.689   8.009   1.870  1.2590  0.2593 -2.5904
 5298TIP3    H215831   2.821   7.948   1.910  0.2195  0.0495  0.6692
 5299TIP3   OH215832   6.876   0.821   3.932  0.2475 -0.2094  0.4078
 5299TIP3    H115833   6.872   0.891   3.997 -0.4417 -0.2309  0.3946
 5299TIP3    H215834   6.807   0.760   3.958  0.2134 -0.4040 -0.1265
 5300TIP3   OH215835   3.435   7.530   1.876 -0.6412 -0.5356 -0.0376
 5300TIP3    H115836   3.495   7.603   1.859 -0.5208 -0.6426 -0.0695
 5300TIP3    H215837   3.375   7.531   1.802 -0.0693 -1.0505 -0.5127
 5301TIP3   OH215838   8.278   2.637   6.900 -0.5235 -0.0346 -0.3207
 5301TIP3    H115839   8.347   2.587   6.942 -1.5716 -0.6790  0.6675
 5301TIP3    H215840   8.214   2.654   6.970 -0.2850  2.5223 -0.6627
 5302TIP3   OH215841   8.434   4.622   6.659  0.0529  0.2924  0.0096
 5302TIP3    H115842   8.486   4.686   6.609 -1.0193  2.3516  1.4665
 5302TIP3    H215843   8.473   4.537   6.636  3.5393  1.6784  0.4141
 5303TIP3   OH215844   3.021   7.786   0.044  0.1049  0.3351 -0.7458
 5303TIP3    H115845   2.941   7.756   0.087  0.7295  0.9878  0.9320
 5303TIP3    H215846   3.010   7.881   0.037  0.8297  0.4618 -0.2501
 5304TIP3   OH215847   3.242   5.863   1.757  0.0505  0.1014  0.0669
 5304TIP3    H115848   3.203   5.791   1.707  0.2762 -1.0877  1.5314
 5304TIP3    H215849   3.167   5.911   1.792 -0.1114  0.0548 -0.2197
 5305TIP3   OH215850   1.793   6.691   1.631 -0.0391 -0.0495  0.0668
 5305TIP3    H115851   1.726   6.759   1.617  0.3216  0.2548 -0.1772
 5305TIP3    H215852   1.817   6.701   1.724 -1.2779 -1.0243  0.5038
 5306TIP3   OH215853   1.366   5.614   6.724  0.1096 -0.2124 -0.1447
 5306TIP3    H115854   1.303   5.545   6.745 -1.9342  1.4667 -0.6342
 5306TIP3    H215855   1.381   5.658   6.808  0.9305 -0.8062  0.0366
 5307TIP3   OH215856   4.823   7.337   0.649  0.4703  0.6394  0.6536
 5307TIP3    H115857   4.833   7.412   0.707 -0.4068  1.1275  0.1989
 5307TIP3    H215858   4.874   7.360   0.571 -0.4049  1.0943  0.2120
 5308TIP3   OH215859   4.515   5.907   1.923  0.2415  0.4630 -0.5800
 5308TIP3    H115860   4.552   5.949   1.845  0.5715  2.0575  0.4251
 5308TIP3    H215861   4.533   5.968   1.994  0.2863 -1.1764  0.8298
 5309TIP3   OH215862   2.999   5.894   1.291 -0.0164 -0.1381 -0.3472
 5309TIP3    H115863   2.967   5.910   1.202 -2.9875 -1.2797  0.4428
 5309TIP3    H215864   2.964   5.966   1.343 -1.1559 -1.2706  0.5006
 5310TIP3   OH215865   7.797   1.038   0.778 -0.0590  0.0752 -0.5857
 5310TIP3    H115866   7.759   1.115   0.821  0.7669 -0.9606  2.1131
 5310TIP3    H215867   7.867   1.074   0.723 -0.1454  1.3501  0.1020
 5311TIP3   OH215868   0.488   3.906   6.836 -0.2359 -0.3717  0.0645
 5311TIP3    H115869   0.491   3.817   6.873 -1.1112 -0.4125  0.0480
 5311TIP3    H215870   0.569   3.947   6.865  0.9273 -1.6904 -1.2101
 5312TIP3   OH215871   6.066   0.077   1.924  0.0726  0.2868  0.3119
 5312TIP3    H115872   6.066   0.007   1.859 -0.6971  1.5382 -1.0730
 5312TIP3    H215873   6.144   0.128   1.903 -0.0877  0.5974  0.4728
 5313TIP3   OH215874   3.825   7.687   1.203  0.3274 -0.0498 -0.2349
 5313TIP3    H115875   3.846   7.779   1.219 -0.4301 -0.1002  1.2500
 5313TIP3    H215876   3.909   7.644   1.190  0.8155  0.5754  0.7673
 5314TIP3   OH215877   3.331   4.951   2.466 -1.0183 -0.0598  0.1987
 5314TIP3    H115878   3.238   4.956   2.488 -0.6386 -1.0231  2.1655
 5314TIP3    H215879   3.362   5.042   2.468 -1.5553  0.1087  1.2886
 5315TIP3   OH215880   3.009   7.782   3.294  0.3341  0.3071  0.2610
 5315TIP3    H115881   2.935   7.842   3.308  0.9504  0.9297  0.8726
 5315TIP3    H215882   3.009   7.727   3.372  0.1798 -0.0638  0.0031
 5316TIP3   OH215883   4.420   6.123   2.249  0.8370  0.4150 -0.7413
 5316TIP3    H115884   4.372   6.040   2.255 -2.0337  2.0997  1.2325
 5316TIP3    H215885   4.411   6.149   2.158 -0.5962 -0.1585 -0.7841
 5317TIP3   OH215886   5.915   0.960   2.782  0.3435  0.2788  0.7630
 5317TIP3    H115887   5.980   0.909   2.831  1.1624  0.9916  0.4245
 5317TIP3    H215888   5.950   1.049   2.781  1.0590  0.0201 -2.3287
 5318TIP3   OH215889   4.044   7.327   2.631 -0.1768 -0.0626  0.4835
 5318TIP3    H115890   4.020   7.275   2.708 -0.2261  0.0684  0.5568
 5318TIP3    H215891   3.978   7.397   2.628  0.3099  0.4119  0.7937
 5319TIP3   OH215892   6.891   5.987   0.109 -0.4803  0.1284 -0.1095
 5319TIP3    H115893   6.892   5.947   0.022  0.2551 -2.3544  0.9829
 5319TIP3    H215894   6.962   5.942   0.156 -0.8486  1.4589  1.7459
 5320TIP3   OH215895   3.884   7.525   3.157 -0.3036  0.4801 -0.0582
 5320TIP3    H115896   3.909   7.613   3.187  1.0443 -0.0747  0.5249
 5320TIP3    H215897   3.792   7.533   3.133 -0.2860  1.9802  0.2862
 5321TIP3   OH215898   5.753   1.547   0.507  0.5168  0.1827  0.2943
 5321TIP3    H115899   5.711   1.466   0.480  0.1739  0.7776 -0.9763
 5321TIP3    H215900   5.725   1.612   0.443  0.1795  1.4883  1.7315
 5322TIP3   OH215901   5.305   1.486   1.719 -0.2178 -0.0058 -0.2288
 5322TIP3    H115902   5.244   1.450   1.655  0.6874 -2.3572  0.1971
 5322TIP3    H215903   5.377   1.522   1.666 -0.5562  0.1079 -0.6142
 5323TIP3   OH215904   6.531   1.553   0.035  0.0902 -0.4567 -0.5878
 5323TIP3    H115905   6.553   1.605   0.113  0.8059  0.4808 -1.4096
 5323TIP3    H215906   6.477   1.482   0.069  1.5218 -0.8387  0.9693
 5324TIP3   OH215907   5.500   0.171   2.521 -0.3217 -0.5397  0.2352
 5324TIP3    H115908   5.535   0.196   2.436 -0.7360  0.2181  0.2896
 5324TIP3    H215909   5.473   0.080   2.509 -1.3319 -0.1259 -0.7523
 5325TIP3   OH215910   6.992   1.699   1.948 -0.3752 -0.0350  0.1858
 5325TIP3    H115911   7.020   1.739   2.030 -0.4787 -2.1222  1.2593
 5325TIP3    H215912   6.904   1.734   1.933  0.2336  1.5142  0.1624
 5326TIP3   OH215913   3.842   2.102   0.239  0.2989  0.2870  0.1580
 5326TIP3    H115914   3.785   2.038   0.195 -0.9129  0.0780  1.9967
 5326TIP3    H215915   3.834   2.181   0.185 -1.2059  0.0427 -0.0022
 5327TIP3   OH215916   1.922   5.530   0.422 -0.2155  0.7509  0.1256
 5327TIP3    H115917   1.924   5.508   0.329  1.4898 -0.7488  0.4884
 5327TIP3    H215918   1.885   5.618   0.425 -2.2550 -0.0096 -1.7896
 5328TIP3   OH215919   0.515   2.732   6.346 -0.5542 -0.4989  0.1758
 5328TIP3    H115920   0.527   2.736   6.441  0.1383 -0.3263  0.0883
 5328TIP3    H215921   0.595   2.689   6.314 -0.2152  0.5762 -0.4416
 5329TIP3   OH215922   3.060   6.858   1.117 -0.2887  0.0756  0.3934
 5329TIP3    H115923   3.130   6.920   1.098 -1.5116  2.3064  2.8658
 5329TIP3    H215924   3.100   6.794   1.177 -0.0214  0.6473  0.8274
 5330TIP3   OH215925   5.924   0.502   2.834 -0.1289 -0.3600  0.3446
 5330TIP3    H115926   5.926   0.537   2.745 -1.4066 -1.4332 -0.1290
 5330TIP3    H215927   5.980   0.424   2.830  0.1003 -0.2039  0.5625
 5331TIP3   OH215928   3.325   5.343   2.919 -0.0572  0.0426 -0.0298
 5331TIP3    H115929   3.231   5.339   2.905 -0.3777 -0.9536  2.1624
 5331TIP3    H215930   3.337   5.413   2.984  0.6913  0.1165 -0.2373
 5332TIP3   OH215931   1.856   4.409   3.414 -0.3058  0.0953 -0.4153
 5332TIP3    H115932   1.828   4.341   3.476 -0.1171  0.4836  0.0933
 5332TIP3    H215933   1.908   4.470   3.467 -0.1239  0.4100 -0.9610
 5333TIP3   OH215934   1.104   4.438   5.067  0.2488 -0.1736  0.0847
 5333TIP3    H115935   1.177   4.379   5.089  0.2286 -0.3983 -0.4370
 5333TIP3    H215936   1.047   4.386   5.011 -0.2499  0.0471  0.3882
 5334TIP3   OH215937   4.562   7.568   0.487  0.1478 -0.3236  0.0085
 5334TIP3    H115938   4.514   7.601   0.412 -0.0550  2.1630  1.1616
 5334TIP3    H215939   4.589   7.480   0.462  1.5101  1.0174 -3.6255
 5335TIP3   OH215940   7.116   0.438   0.629  0.5896  0.4599 -0.0083
 5335TIP3    H115941   7.168   0.404   0.701  1.0791 -2.2360 -1.5493
 5335TIP3    H215942   7.179   0.482   0.572  0.5814  0.5661  0.0661
 5336TIP3   OH215943   1.310   7.914   2.826 -0.0789  0.1312  0.0402
 5336TIP3    H115944   1.274   7.994   2.788  0.8110 -0.2836 -1.7600
 5336TIP3    H215945   1.405   7.924   2.817  0.0761 -0.7406  0.6033
 5337TIP3   OH215946   0.920   7.822   1.599 -0.1940  0.5119  0.3837
 5337TIP3    H115947   0.961   7.848   1.681 -1.4956  1.7103  0.6844
 5337TIP3    H215948   0.958   7.737   1.578  0.3849  0.3514  2.0586
 5338TIP3   OH215949   6.242   0.042   3.319  0.0298 -0.1890  0.6323
 5338TIP3    H115950   6.325   0.032   3.273  0.6254 -1.1965  1.8961
 5338TIP3    H215951   6.197  -0.041   3.305  0.1084 -0.4027  1.6454
 5339TIP3   OH215952   1.269   7.936   2.299 -0.3012  0.0771 -0.0537
 5339TIP3    H115953   1.283   7.905   2.389  0.2470 -1.9156 -0.8070
 5339TIP3    H215954   1.222   8.018   2.310 -0.0920 -0.0467  2.0755
 5340TIP3   OH215955   7.465   0.839   1.392 -0.0372 -0.4399  0.5088
 5340TIP3    H115956   7.405   0.886   1.334  0.6278 -1.0595 -0.7030
 5340TIP3    H215957   7.550   0.882   1.379  0.2278 -0.9239  0.6104
 5341TIP3   OH215958   2.263   6.883   2.330  0.3914  0.6033 -0.4135
 5341TIP3    H115959   2.231   6.928   2.251  0.7306  0.0085 -0.9017
 5341TIP3    H215960   2.223   6.796   2.325  0.7077  0.4403 -0.1202
 5342TIP3   OH215961   1.042   6.008   6.092 -0.0254 -0.0158 -0.4183
 5342TIP3    H115962   0.973   6.066   6.125  0.3789  0.4509 -0.3794
 5342TIP3    H215963   1.004   5.967   6.015 -0.4269  0.0725 -0.2681
 5343TIP3   OH215964   5.827   7.162   1.939  0.2329  0.9749 -0.1311
 5343TIP3    H115965   5.812   7.112   1.859  1.2847  2.0087 -0.9937
 5343TIP3    H215966   5.803   7.252   1.916  0.0390  1.1872  0.8711
 5344TIP3   OH215967   3.262   0.743   3.424 -0.0344  0.5322 -0.0791
 5344TIP3    H115968   3.236   0.835   3.430  1.6430  0.9799  0.6207
 5344TIP3    H215969   3.317   0.739   3.346  1.2589  0.4825  0.8136
 5345TIP3   OH215970   4.059   6.787   3.369  0.0168 -0.1064 -0.2333
 5345TIP3    H115971   4.091   6.703   3.335  1.2830  0.0053  0.6596
 5345TIP3    H215972   4.138   6.833   3.399 -0.7366  1.1261 -0.0875
 5346TIP3   OH215973   2.962   5.286   3.156  0.8321  0.7448 -0.1599
 5346TIP3    H115974   3.019   5.335   3.215 -0.0101  0.4410  0.9156
 5346TIP3    H215975   3.013   5.210   3.130 -0.5134 -1.7285  4.0587
 5347TIP3   OH215976   0.487   2.827   6.656 -0.0269  0.1601  0.0988
 5347TIP3    H115977   0.571   2.852   6.617  0.1726 -1.2381 -0.3880
 5347TIP3    H215978   0.483   2.732   6.645 -1.4797  0.1678  0.5200
 5348TIP3   OH215979   5.595   6.195   2.156  0.3323  0.4071 -0.0010
 5348TIP3    H115980   5.599   6.107   2.193  0.5785  1.1213  1.6831
 5348TIP3    H215981   5.505   6.224   2.173 -0.2140 -0.0693 -1.8965
 5349TIP3   OH215982   5.384   6.814   0.975  0.0999  0.1243  0.5086
 5349TIP3    H115983   5.408   6.889   1.029  0.9352 -1.4067  2.2985
 5349TIP3    H215984   5.452   6.749   0.992 -0.3332 -0.8761 -1.4091
 5350TIP3   OH215985   1.158   7.073   2.410 -0.0495  0.2683  0.0898
 5350TIP3    H115986   1.248   7.104   2.398  0.9542 -1.3289  2.9504
 5350TIP3    H215987   1.162   6.979   2.392 -1.3269  0.3187 -0.5323
 5351TIP3   OH215988   5.406   7.033   2.482  0.3933  0.7806 -0.0876
 5351TIP3    H115989   5.499   7.050   2.468  0.9867 -0.6467  1.7652
 5351TIP3    H215990   5.393   7.050   2.576 -1.3784  1.6729 -0.4770
 5352TIP3   OH215991   2.504   4.950   5.730 -0.0843 -0.3779 -0.0702
 5352TIP3    H115992   2.544   5.037   5.735 -1.1842  0.3110 -2.5009
 5352TIP3    H215993   2.575   4.892   5.702 -0.0809  0.3311 -1.5846
 5353TIP3   OH215994   4.722   0.587   3.807  0.4029  0.4091 -0.1953
 5353TIP3    H115995   4.808   0.616   3.839  0.2139  1.6106 -0.7706
 5353TIP3    H215996   4.659   0.635   3.861  0.0898  0.8225 -0.9224
 5354TIP3   OH215997   7.193   0.421   1.662  0.3731 -0.0172 -0.0747
 5354TIP3    H115998   7.250   0.362   1.613 -0.0641  0.4173 -1.1162
 5354TIP3    H215999   7.248   0.496   1.683  0.7638 -0.5266  0.7329
 5355TIP3   OH216000   2.838   7.441   1.509 -1.0262 -0.9148  0.0665
 5355TIP3    H116001   2.767   7.407   1.562 -1.8615 -1.4317 -1.3582
 5355TIP3    H216002   2.809   7.528   1.483  0.4441  0.3168  2.4454
 5356TIP3   OH216003   4.638   6.817   5.157 -0.2386 -0.0073  0.0101
 5356TIP3    H116004   4.602   6.745   5.106  0.8753 -0.0798 -0.6918
 5356TIP3    H216005   4.561   6.862   5.194 -0.9211 -1.7604  0.7520
 5357TIP3   OH216006   2.156   5.585   2.418 -0.2889  0.3915 -0.5538
 5357TIP3    H116007   2.251   5.576   2.423 -0.4736 -0.8971  1.7787
 5357TIP3    H216008   2.128   5.516   2.357  0.0691 -1.2368  1.0693
 5358TIP3   OH216009   4.012   5.367   2.320  0.4371  0.0569  0.1988
 5358TIP3    H116010   3.943   5.431   2.338 -0.9281 -1.9838  2.4869
 5358TIP3    H216011   4.011   5.357   2.225 -1.1777  1.4246  0.0391
 5359TIP3   OH216012   3.182   5.325   1.132 -0.0386 -0.0666 -0.4566
 5359TIP3    H116013   3.214   5.285   1.051  0.1317  0.4445 -0.6397
 5359TIP3    H216014   3.231   5.406   1.140 -0.4285  0.1357 -0.1082
 5360TIP3   OH216015   0.283   7.204   3.841  0.1753 -0.1983  0.6288
 5360TIP3    H116016   0.282   7.136   3.909 -0.7474  1.2086  2.0499
 5360TIP3    H216017   0.230   7.168   3.770  1.4916 -1.8598  0.4462
 5361TIP3   OH216018   3.850   6.722   2.762  0.7952  0.4769  0.1491
 5361TIP3    H116019   3.882   6.724   2.852  1.8818  0.0635 -0.2210
 5361TIP3    H216020   3.766   6.767   2.765  0.4840 -0.1712  1.5092
 5362TIP3   OH216021   2.390   5.662   4.135 -0.3406  0.0419  0.3354
 5362TIP3    H116022   2.468   5.633   4.086 -0.6950 -0.0982 -0.1469
 5362TIP3    H216023   2.389   5.605   4.213  0.5926  0.7079  0.8478
 5363TIP3   OH216024   3.781   0.331   1.754 -0.6299  0.2520 -0.0021
 5363TIP3    H116025   3.782   0.306   1.847  0.0691  0.8513  0.1601
 5363TIP3    H216026   3.850   0.278   1.714  0.2506  1.2310  0.1716
 5364TIP3   OH216027   7.056   1.248   1.288  0.0765  0.0083 -0.0619
 5364TIP3    H116028   6.969   1.250   1.328  0.4630 -1.1190  0.8678
 5364TIP3    H216029   7.041   1.212   1.200 -0.4341  0.1532 -0.0371
 5365TIP3   OH216030   6.959   1.092   1.062  0.6152  0.4857  0.2591
 5365TIP3    H116031   6.985   1.043   0.984  0.0411  0.0976  0.3102
 5365TIP3    H216032   6.928   1.176   1.028 -3.3423 -1.1055 -0.3008
 5366TIP3   OH216033   5.115   7.505   2.108 -0.3791 -0.5602 -0.1550
 5366TIP3    H116034   5.145   7.564   2.039 -0.3449  0.4251  0.6819
 5366TIP3    H216035   5.177   7.519   2.180 -2.8933  1.6899  1.6992
 5367TIP3   OH216036   4.399   7.844   2.097 -0.2362 -0.7113  0.1058
 5367TIP3    H116037   4.481   7.851   2.047  0.3821 -0.7949  1.0820
 5367TIP3    H216038   4.330   7.857   2.033  0.5694  0.0621 -0.6191
 5368TIP3   OH216039   4.464   7.390   0.986 -0.1243  0.3779 -0.1530
 5368TIP3    H116040   4.383   7.376   1.034  1.1722 -0.8519  1.7175
 5368TIP3    H216041   4.501   7.471   1.023 -0.7445  1.2346 -1.3754
 5369TIP3   OH216042   0.185   0.773   5.852 -0.1370  0.1128 -0.5133
 5369TIP3    H116043   0.163   0.852   5.901 -1.5771 -0.4367 -0.2619
 5369TIP3    H216044   0.204   0.707   5.920 -1.5384 -0.4826 -0.6862
 5370TIP3   OH216045   7.896   1.060   0.334 -0.0076  0.2538  0.8850
 5370TIP3    H116046   7.879   1.143   0.290  2.0812  0.0700 -0.3226
 5370TIP3    H216047   7.846   0.995   0.283 -1.0061  0.6429  1.3578
 5371TIP3   OH216048   2.201   7.357   1.701  0.2967 -0.5396  0.1278
 5371TIP3    H116049   2.153   7.316   1.630  0.2131  0.1117 -0.1940
 5371TIP3    H216050   2.278   7.302   1.713 -0.6681 -1.7493  0.8396
 5372TIP3   OH216051   6.353   0.611   2.383 -0.7342  0.1601  0.8221
 5372TIP3    H116052   6.433   0.584   2.428 -0.6803  0.1167  0.6998
 5372TIP3    H216053   6.302   0.657   2.450 -1.4829 -1.5222  1.4642
 5373TIP3   OH216054   6.987   0.941   1.733  0.4875  0.0163  0.3406
 5373TIP3    H116055   6.992   1.036   1.744  1.2756 -0.0554  0.6349
 5373TIP3    H216056   6.992   0.927   1.638  1.8908  0.2026  0.3649
 5374TIP3   OH216057   1.575   5.277   6.265 -0.7869 -0.4887 -0.2164
 5374TIP3    H116058   1.543   5.244   6.349 -0.1992 -0.2034  0.1224
 5374TIP3    H216059   1.497   5.304   6.218 -1.3109 -2.5223 -0.5785
 5375TIP3   OH216060   5.580   7.526   0.926  0.1218  0.8155  0.0061
 5375TIP3    H116061   5.646   7.511   0.993  1.7059  1.0921 -1.4554
 5375TIP3    H216062   5.497   7.507   0.969  1.0723  1.4275  2.1544
 5376TIP3   OH216063   6.366   1.109   2.859  0.0254 -0.6038  0.1938
 5376TIP3    H116064   6.302   1.106   2.930  0.9892 -0.1667  1.0941
 5376TIP3    H216065   6.341   1.186   2.807  0.1705 -0.0865  0.8849
 5377TIP3   OH216066   5.786   7.715   1.530  0.0562  0.2413 -0.1753
 5377TIP3    H116067   5.732   7.794   1.541  0.2249  0.4015 -0.4823
 5377TIP3    H216068   5.804   7.686   1.619 -1.5446 -0.5111 -0.0825
 5378TIP3   OH216069   5.222   5.739   3.035  0.7918  0.2378  0.3338
 5378TIP3    H116070   5.204   5.746   3.129 -0.9113  0.3653  0.0102
 5378TIP3    H216071   5.182   5.657   3.008  2.5630 -0.5381 -0.0087
 5379TIP3   OH216072   3.024   5.592   1.930 -0.2319  0.6599 -0.3532
 5379TIP3    H116073   3.079   5.519   1.901 -0.3638  0.2321  0.4426
 5379TIP3    H216074   3.085   5.651   1.975 -0.5290 -0.2198  1.2687
 5380TIP3   OH216075   5.106   0.143   3.221  0.8314  0.4296  0.1189
 5380TIP3    H116076   5.171   0.083   3.185  1.4492  0.6710  0.8188
 5380TIP3    H216077   5.157   0.216   3.255  0.0307  1.8413 -1.6420
 5381TIP3   OH216078   0.935   6.649   1.486 -0.2214 -0.2989 -0.8671
 5381TIP3    H116079   0.959   6.566   1.446  1.1706 -0.6946  0.7422
 5381TIP3    H216080   0.886   6.624   1.565  1.4033  0.3576  0.3738
 5382TIP3   OH216081   4.571   7.028   3.487 -0.2085  0.3973  0.3074
 5382TIP3    H116082   4.595   6.948   3.533  2.3038  0.7792 -0.2633
 5382TIP3    H216083   4.593   7.099   3.547 -1.0835  0.7375  0.2429
 5383TIP3   OH216084   1.853   3.404   6.713  0.4728 -0.1257 -0.0797
 5383TIP3    H116085   1.790   3.396   6.641 -1.1208  0.4988  1.2098
 5383TIP3    H216086   1.891   3.491   6.702 -0.9361  0.6163  0.7254
 5384TIP3   OH216087   3.155   7.782   0.636 -0.4661  0.3330 -0.1118
 5384TIP3    H116088   3.226   7.804   0.576 -0.0556  0.3154  0.3702
 5384TIP3    H216089   3.100   7.721   0.586 -0.2218  0.4556 -0.5348
 5385TIP3   OH216090   2.272   7.778   0.873  0.4202  0.1646  0.7018
 5385TIP3    H116091   2.226   7.746   0.796 -0.2978  2.4384  0.1702
 5385TIP3    H216092   2.243   7.720   0.944 -1.8464  0.4085  0.0127
 5386TIP3   OH216093   6.904   0.039   0.469  0.5411 -0.0122  0.1039
 5386TIP3    H116094   6.943  -0.048   0.478 -0.4794 -0.5960 -0.9014
 5386TIP3    H216095   6.960   0.097   0.521  1.8514 -1.0796 -0.1071
 5387TIP3   OH216096   2.611   7.445   1.693  0.1668  0.0634  0.2250
 5387TIP3    H116097   2.621   7.536   1.721 -2.6565  0.7633 -0.8220
 5387TIP3    H216098   2.608   7.395   1.775 -2.2765  1.4311  1.0439
 5388TIP3   OH216099   4.146   6.282   1.824 -0.3008 -0.2372  0.2251
 5388TIP3    H116100   4.129   6.375   1.808 -0.5976 -0.2275  0.5998
 5388TIP3    H216101   4.061   6.240   1.812  0.0043 -0.5839 -0.8322
 5389TIP3   OH216102   3.480   6.872   0.357 -0.0962 -1.0676 -0.0446
 5389TIP3    H116103   3.569   6.854   0.387  0.9524  1.8452 -1.2384
 5389TIP3    H216104   3.482   6.855   0.263 -0.3549  0.5064 -0.3534
 5390TIP3   OH216105   2.985   6.326   0.611  0.3884 -0.3353 -0.0052
 5390TIP3    H116106   2.916   6.366   0.664 -0.5388 -0.2654 -1.2448
 5390TIP3    H216107   2.956   6.236   0.597  1.7722 -1.0403  1.5679
 5391TIP3   OH216108   3.123   5.737   0.003 -0.1866 -0.1272 -0.1517
 5391TIP3    H116109   3.046   5.777   0.045  0.4654  0.9194  0.0701
 5391TIP3    H216110   3.131   5.651   0.045 -0.5014  0.2603  0.7253
 5392TIP3   OH216111   3.444   5.216   2.115  0.2262 -0.2448 -0.0142
 5392TIP3    H116112   3.443   5.274   2.039  0.1929 -2.3310 -1.6338
 5392TIP3    H216113   3.525   5.166   2.107  0.0910 -0.6693  1.1893
 5393TIP3   OH216114   1.255   3.532   6.658  0.4890 -0.2875  0.2232
 5393TIP3    H116115   1.263   3.497   6.747  0.0973 -0.7841  0.0626
 5393TIP3    H216116   1.182   3.594   6.664  0.1160 -0.7134  0.1278
 5394TIP3   OH216117   5.001   5.439   0.245 -0.0692 -0.8091 -0.7183
 5394TIP3    H116118   5.029   5.528   0.224 -3.6118  0.3178 -0.9071
 5394TIP3    H216119   4.907   5.438   0.229 -0.2379 -4.4078 -0.0287
 5395TIP3   OH216120   3.396   6.493   0.744  0.5476 -0.0059 -0.7615
 5395TIP3    H116121   3.385   6.480   0.838 -0.4934 -0.3172 -0.9242
 5395TIP3    H216122   3.426   6.584   0.736  2.6560 -0.6123 -0.0027
 5396TIP3   OH216123   0.318   3.955   6.513 -0.3217  0.5386 -0.3340
 5396TIP3    H116124   0.408   3.949   6.480  0.1039  0.2917  0.8638
 5396TIP3    H216125   0.307   3.878   6.568 -1.1724  0.7182 -0.2470
 5397TIP3   OH216126   1.584   6.884   2.255 -0.5108 -0.2166  0.4364
 5397TIP3    H116127   1.666   6.858   2.297 -0.5766  0.6981  1.1390
 5397TIP3    H216128   1.545   6.801   2.226  1.1677 -0.5793 -0.8699
 5398TIP3   OH216129   4.654   6.268   2.905 -0.0785  0.6781  0.1690
 5398TIP3    H116130   4.643   6.363   2.907 -0.1741  0.7358 -1.8258
 5398TIP3    H216131   4.582   6.237   2.850  0.1070 -0.5229  0.5922
 5399TIP3   OH216132   5.181   5.292   3.435 -0.3903 -0.1277  0.0362
 5399TIP3    H116133   5.130   5.320   3.359  0.2157  1.7317  0.2947
 5399TIP3    H216134   5.268   5.329   3.421  0.1169 -0.9171  0.9854
 5400TIP3   OH216135   1.541   2.702   6.228 -0.7715 -0.4856  0.0916
 5400TIP3    H116136   1.468   2.752   6.191 -0.7413 -0.1052  0.5400
 5400TIP3    H216137   1.557   2.632   6.164 -0.2638  0.5679 -0.9469
 5401TIP3   OH216138   0.703   0.945   1.734 -0.4354  0.0274  0.2067
 5401TIP3    H116139   0.692   0.926   1.641  1.4999  1.2353 -0.3029
 5401TIP3    H216140   0.725   0.860   1.773  0.8941 -0.1332 -0.8230
 5402TIP3   OH216141   1.913   5.628   1.729 -0.2501 -0.0054  0.0030
 5402TIP3    H116142   1.898   5.539   1.696 -2.3665  0.6904 -0.9628
 5402TIP3    H216143   1.957   5.615   1.813 -1.5087 -2.0062  0.3869
 5403TIP3   OH216144   1.284   0.893   0.467 -0.1388 -0.8267 -0.1087
 5403TIP3    H116145   1.284   0.798   0.467  0.6758 -0.8381  0.2552
 5403TIP3    H216146   1.341   0.917   0.541  1.1024 -0.0706 -1.2764
 5404TIP3   OH216147   4.691   7.845   0.447 -0.5887  0.0383  0.1343
 5404TIP3    H116148   4.630   7.773   0.430  0.6224 -0.7294 -1.0293
 5404TIP3    H216149   4.712   7.879   0.360  0.1050  0.7537  0.5790
 5405TIP3   OH216150   5.156   4.715   1.687 -0.2384  0.0046  0.6580
 5405TIP3    H116151   5.184   4.807   1.679  0.5453 -0.3431 -0.6358
 5405TIP3    H216152   5.078   4.708   1.634  0.1582 -0.2693  0.1081
 5406TIP3   OH216153   7.469   1.623   1.175  0.2353 -0.0952  0.0105
 5406TIP3    H116154   7.535   1.616   1.244 -0.1779  1.4733  0.5835
 5406TIP3    H216155   7.433   1.534   1.167 -1.5745  0.1824  3.7201
 5407TIP3   OH216156   4.278   6.890   2.681 -0.4197  0.1904 -0.3466
 5407TIP3    H116157   4.197   6.915   2.637  0.6778  1.1725 -1.8659
 5407TIP3    H216158   4.329   6.971   2.685 -0.2619  0.0030  2.2922
 5408TIP3   OH216159   4.198   6.975   1.535  0.1598  0.3337  0.0674
 5408TIP3    H116160   4.155   7.024   1.605  0.5794 -0.0595  0.6106
 5408TIP3    H216161   4.287   7.010   1.532 -0.4032  1.6708 -1.5656
 5409TIP3   OH216162   2.222   3.525   6.615 -0.2950  0.1793  0.2755
 5409TIP3    H116163   2.195   3.496   6.527  0.2510  1.4363 -0.3249
 5409TIP3    H216164   2.294   3.585   6.598  2.1365 -2.1964  1.7644
 5410TIP3   OH216165   6.639   1.141   1.864  0.5959 -0.0673  0.3621
 5410TIP3    H116166   6.582   1.203   1.909  0.1205  1.2159 -1.9255
 5410TIP3    H216167   6.725   1.181   1.867  0.3517  0.5720 -0.8222
 5411TIP3   OH216168   3.803   4.147   5.832 -0.3058 -0.3671 -0.0137
 5411TIP3    H116169   3.803   4.133   5.927  1.8361 -1.4836 -0.1368
 5411TIP3    H216170   3.731   4.207   5.816 -0.8852 -0.4131  2.2944
 5412TIP3   OH216171   4.031   7.449   1.947 -0.4038 -0.3264  0.1929
 5412TIP3    H116172   4.088   7.507   1.896 -3.1168  1.8605 -0.5174
 5412TIP3    H216173   4.027   7.368   1.897  1.2194 -0.1325 -0.2681
 5413TIP3   OH216174   0.510   0.224   0.471 -0.2048 -0.3315  0.0779
 5413TIP3    H116175   0.604   0.205   0.467 -0.2888 -0.5749 -0.8590
 5413TIP3    H216176   0.472   0.177   0.396 -1.1522 -0.6592  0.7523
 5414TIP3   OH216177   6.732   5.867   1.518  0.1838 -0.3896  0.5843
 5414TIP3    H116178   6.755   5.776   1.537  0.1067  0.1214  3.3168
 5414TIP3    H216179   6.780   5.918   1.584 -0.5496  1.4814 -0.2987
 5415TIP3   OH216180   0.234   0.921   1.792 -0.3234 -0.0174 -0.0477
 5415TIP3    H116181   0.261   1.008   1.762 -1.6909  0.5419  0.3178
 5415TIP3    H216182   0.310   0.888   1.840  0.2751  0.9051 -0.3488
 5416TIP3   OH216183   7.397   1.202   0.841 -0.5347 -0.4161 -0.4365
 5416TIP3    H116184   7.369   1.166   0.757 -0.4547  0.5171 -0.8770
 5416TIP3    H216185   7.342   1.279   0.853  1.0497  0.8008 -0.7752
 5417TIP3   OH216186   5.289   6.461   0.029 -0.0580 -0.2611 -0.2294
 5417TIP3    H116187   5.326   6.419  -0.049 -0.0478  0.4076 -0.5891
 5417TIP3    H216188   5.351   6.440   0.099  0.1820 -0.4598 -0.4975
 5418TIP3   OH216189   6.466   7.852   3.389 -0.0536  0.2258  0.2942
 5418TIP3    H116190   6.527   7.780   3.369  0.8595  0.9352  0.4978
 5418TIP3    H216191   6.515   7.909   3.449 -0.3857  1.5532 -0.6788
 5419TIP3   OH216192   6.807   6.219   0.226  0.7122 -0.3047 -0.0682
 5419TIP3    H116193   6.841   6.258   0.146  0.0330 -0.8473 -0.6325
 5419TIP3    H216194   6.811   6.124   0.210  0.2466 -0.4066  0.3997
 5420TIP3   OH216195   6.982   0.705   0.840  0.0807 -0.2322  0.5514
 5420TIP3    H116196   7.036   0.725   0.916 -3.2516  0.9477  2.6987
 5420TIP3    H216197   6.952   0.615   0.855 -1.8067  0.5194  1.4650
 5421TIP3   OH216198   2.901   4.935   6.087 -0.6593  0.1612  0.6537
 5421TIP3    H116199   2.996   4.940   6.083 -0.6262 -0.6958  0.3943
 5421TIP3    H216200   2.883   4.858   6.141 -1.2072 -0.0833  0.1230
 5422TIP3   OH216201   5.003   7.158   2.019 -0.2375 -0.0407  0.2198
 5422TIP3    H116202   4.995   7.240   1.969  2.0952 -0.0769 -0.2463
 5422TIP3    H216203   4.954   7.094   1.968 -0.9158  0.7485 -0.1314
 5423TIP3   OH216204   4.480   6.787   1.551  0.4492  0.3782 -0.2761
 5423TIP3    H116205   4.513   6.794   1.462  0.4138  0.6718 -0.2645
 5423TIP3    H216206   4.530   6.714   1.589  0.7798  0.5443 -0.3937
 5424TIP3   OH216207   8.174   1.326   0.761  0.0529 -0.3889 -0.5275
 5424TIP3    H116208   8.209   1.252   0.712  1.1096 -0.5974  0.5101
 5424TIP3    H216209   8.168   1.397   0.697  0.4783 -0.9380 -1.1816
 5425TIP3   OH216210   1.870   4.515   6.599  0.4794 -0.5837  0.1369
 5425TIP3    H116211   1.870   4.581   6.668  0.9132 -0.8397  0.3852
 5425TIP3    H216212   1.897   4.562   6.520  0.3056 -0.3609  0.2102
 5426TIP3   OH216213   1.783   7.014   6.938 -0.0491 -0.3330  0.2118
 5426TIP3    H116214   1.758   7.087   6.881 -2.0633  0.7964  2.4841
 5426TIP3    H216215   1.733   6.939   6.905  0.5106 -0.2457 -0.8738
 5427TIP3   OH216216   6.755   6.286   1.645 -0.5311  0.5312  0.3337
 5427TIP3    H116217   6.786   6.375   1.629  1.2025 -0.7470 -4.2088
 5427TIP3    H216218   6.661   6.291   1.631 -0.5959  1.8087  1.1017
 5428TIP3   OH216219   5.382   0.223   2.832  0.1543  0.1653  0.3568
 5428TIP3    H116220   5.305   0.198   2.883 -0.0218  0.3685  0.1916
 5428TIP3    H216221   5.385   0.318   2.839 -0.8757  0.3520 -1.4440
 5429TIP3   OH216222   5.533   7.592   0.482  0.2496 -0.0437 -0.0738
 5429TIP3    H116223   5.452   7.632   0.450  1.5157  2.6918 -0.0311
 5429TIP3    H216224   5.592   7.592   0.407  0.7873 -0.3707  0.3432
 5430TIP3   OH216225   1.024   1.032   1.728  0.2258 -0.5043  0.0865
 5430TIP3    H116226   1.039   0.949   1.773 -1.1223 -1.5922 -1.4198
 5430TIP3    H216227   0.943   1.066   1.766  0.5982 -0.0332  0.4678
 5431TIP3   OH216228  -0.015   0.435   1.821  0.0695 -0.5918  0.2535
 5431TIP3    H116229  -0.001   0.530   1.824  0.3686 -0.6521  0.9385
 5431TIP3    H216230   0.050   0.399   1.882  1.2106 -1.3902 -1.3941
 5432TIP3   OH216231   6.930   0.630   3.193 -0.5323  0.0383 -0.1206
 5432TIP3    H116232   6.943   0.668   3.280  0.4965  3.1555 -1.5573
 5432TIP3    H216233   6.845   0.662   3.166  0.2734  1.2441 -1.2836
 5433TIP3   OH216234   7.927   0.994   1.429  0.4781 -0.4020  0.4183
 5433TIP3    H116235   7.851   0.977   1.374  1.5818  1.0028 -1.5852
 5433TIP3    H216236   7.989   0.925   1.407  1.5796  1.1232 -1.3826
 5434TIP3   OH216237   6.750   0.575   1.419 -0.2915  0.0517  0.1088
 5434TIP3    H116238   6.808   0.566   1.343 -0.3763 -1.8907  0.2481
 5434TIP3    H216239   6.802   0.540   1.492 -0.7701  0.5030  0.6653
 5435TIP3   OH216240   7.849   2.307   2.421 -0.2522  0.3211  0.5077
 5435TIP3    H116241   7.814   2.262   2.498 -0.4217  1.2622  0.9815
 5435TIP3    H216242   7.864   2.236   2.358 -0.7753 -0.3746  1.1436
 5436TIP3   OH216243   5.450   7.006   1.592 -0.0690  0.3666  0.5430
 5436TIP3    H116244   5.450   7.081   1.533 -1.1667  0.7223  0.9654
 5436TIP3    H216245   5.441   6.930   1.535 -0.3457  0.6547  0.2034
 5437TIP3   OH216246   6.142   7.823   1.753  0.7326 -0.2295 -0.3685
 5437TIP3    H116247   6.222   7.796   1.799  1.0160 -0.9355 -1.2589
 5437TIP3    H216248   6.080   7.753   1.771  0.4692  0.0694 -0.1026
 5438TIP3   OH216249   7.353   1.252   6.194  0.5516  0.0469 -0.5780
 5438TIP3    H116250   7.269   1.299   6.194  0.7831  0.4675  0.2458
 5438TIP3    H216251   7.372   1.238   6.101  1.0356  2.6080 -0.9012
 5439TIP3   OH216252   7.436   0.331   1.262 -0.7714 -0.7232  0.6003
 5439TIP3    H116253   7.488   0.394   1.313 -1.1957 -1.1833  1.6145
 5439TIP3    H216254   7.459   0.246   1.298 -0.4966 -1.1283 -0.5129
 5440TIP3   OH216255   0.092   0.261   2.049  0.0017 -0.5660  0.3703
 5440TIP3    H116256   0.108   0.266   2.143  2.1579  1.7893 -0.0563
 5440TIP3    H216257   0.174   0.227   2.012 -0.2376  0.0777 -0.7796
 5441TIP3   OH216258   4.517   6.851   0.898  0.2441 -0.3965 -0.5661
 5441TIP3    H116259   4.612   6.858   0.890  0.2380  0.7057  0.1356
 5441TIP3    H216260   4.496   6.906   0.974 -1.0480  0.1197 -1.2818
 5442TIP3   OH216261   6.022   8.039   1.682  0.2598 -0.5987  0.0683
 5442TIP3    H116262   6.067   7.968   1.728  2.5265 -0.4604 -1.8287
 5442TIP3    H216263   6.037   8.021   1.589 -0.5635  1.4595 -0.4940
 5443TIP3   OH216264   6.399   6.624   0.631 -0.0914  0.5966  0.1206
 5443TIP3    H116265   6.373   6.558   0.694 -1.1369 -1.2194 -2.1425
 5443TIP3    H216266   6.322   6.679   0.619  0.1387  1.0041  0.4976
 5444TIP3   OH216267   2.568   0.432   0.270 -0.2572  0.2288  0.7457
 5444TIP3    H116268   2.535   0.355   0.222 -0.2005  0.3626  0.4882
 5444TIP3    H216269   2.549   0.506   0.212  1.1179  0.2358  0.2667
 5445TIP3   OH216270   5.605   6.617   3.881 -0.0517  0.8775 -0.1884
 5445TIP3    H116271   5.534   6.635   3.820 -0.3291 -0.9534 -0.4558
 5445TIP3    H216272   5.562   6.613   3.967  0.0649  1.7530 -0.0825
 5446TIP3   OH216273   3.113   2.334   6.834  0.2348 -0.5689  0.6279
 5446TIP3    H116274   3.055   2.366   6.903  0.7898  2.3376 -0.2114
 5446TIP3    H216275   3.165   2.266   6.876  1.8024  2.3656  3.5985
 5447TIP3   OH216276   6.375   7.591   0.147  0.1113  0.1086 -0.3240
 5447TIP3    H116277   6.375   7.497   0.132 -1.4926  0.1292 -0.5182
 5447TIP3    H216278   6.337   7.602   0.234  0.7351  0.5594 -0.1029
 5448TIP3   OH216279   4.655   6.789   3.094  0.2792 -0.1607  0.0392
 5448TIP3    H116280   4.563   6.789   3.071  0.6223 -0.4403 -1.3807
 5448TIP3    H216281   4.680   6.881   3.098 -0.5240 -0.0216  2.3885
 5449TIP3   OH216282   4.064   7.526   1.539 -0.1780  0.2558  0.4905
 5449TIP3    H116283   3.989   7.470   1.519 -0.3474  0.8230 -0.5149
 5449TIP3    H216284   4.084   7.569   1.456 -0.2927  1.9814  1.3391
 5450TIP3   OH216285   5.910   6.197   0.390  0.1657  0.2860  0.0923
 5450TIP3    H116286   5.931   6.126   0.328 -0.3966 -1.0979  1.4502
 5450TIP3    H216287   5.971   6.183   0.463 -2.5636 -1.2681  2.1967
 5451TIP3   OH216288   6.347   7.074   0.940 -0.0655 -0.5336  0.2437
 5451TIP3    H116289   6.308   7.124   0.868  0.5463 -0.3311  0.0494
 5451TIP3    H216290   6.302   7.105   1.019 -1.4635 -1.4855 -0.1581
 5452TIP3   OH216291   0.177   0.175   2.320  0.3787  0.4032  0.0556
 5452TIP3    H116292   0.250   0.188   2.381 -1.0138  2.3390  1.3726
 5452TIP3    H216293   0.109   0.133   2.373  0.2386 -0.7418 -0.9864
 5453TIP3   OH216294   4.216   6.978  -0.018  0.4857  0.0878 -0.5444
 5453TIP3    H116295   4.290   7.039  -0.014  1.1261 -0.6362 -1.1352
 5453TIP3    H216296   4.238   6.909   0.044  0.2352 -0.0525 -0.6115
 5454TIP3   OH216297   0.390   2.002  -0.013  0.2907 -0.5559 -0.2824
 5454TIP3    H116298   0.347   2.083  -0.040  0.7345 -0.9856 -2.4009
 5454TIP3    H216299   0.415   2.017   0.078 -1.1782  1.0228 -0.1120
 5455TIP3   OH216300   5.248   7.919   2.405  0.2254  0.7744  0.2219
 5455TIP3    H116301   5.210   7.867   2.334  0.9845 -0.7376  0.9019
 5455TIP3    H216302   5.174   7.943   2.461 -0.2398  1.1270 -0.5354
 5456TIP3   OH216303   8.394   4.692   5.969  0.1136 -0.6089 -0.5044
 5456TIP3    H116304   8.356   4.711   6.055  0.1700 -0.8911 -0.4135
 5456TIP3    H216305   8.320   4.695   5.909 -0.0964 -1.3898 -0.2927
 5457TIP3   OH216306   5.836   1.165   1.406 -0.5393 -0.1361  0.4277
 5457TIP3    H116307   5.839   1.071   1.391  2.4160 -0.6078  3.3825
 5457TIP3    H216308   5.754   1.179   1.454 -0.4019 -1.4049  1.0539
 5458TIP3   OH216309   5.122   5.377   1.715  0.0174 -0.5482 -0.6520
 5458TIP3    H116310   5.182   5.442   1.751 -0.5228 -0.8369  0.7956
 5458TIP3    H216311   5.179   5.315   1.669  0.9284 -1.1567  1.2095
 5459TIP3   OH216312   5.735   7.545   2.190 -0.6880  0.5878  0.4507
 5459TIP3    H116313   5.770   7.497   2.265 -1.9926  1.5810  1.7255
 5459TIP3    H216314   5.734   7.637   2.217 -0.8749  1.0052 -0.8989
 5460TIP3   OH216315   4.403   6.527   1.884 -0.1610  0.5231 -0.3460
 5460TIP3    H116316   4.498   6.518   1.894 -0.1058 -0.3267 -1.6143
 5460TIP3    H216317   4.385   6.499   1.794 -1.5244  1.3809 -0.3465
 5461TIP3   OH216318   7.506   3.086   0.585 -0.3663 -0.3958  0.5188
 5461TIP3    H116319   7.524   3.179   0.601 -0.5237 -0.0999 -0.9534
 5461TIP3    H216320   7.427   3.085   0.531 -0.2912 -1.3838  0.4107
 5462TIP3   OH216321   0.339   1.198   1.748  0.4423  0.0291  0.3221
 5462TIP3    H116322   0.304   1.264   1.808 -0.4816  0.3240 -0.5139
 5462TIP3    H216323   0.433   1.200   1.761  0.5663  2.5189 -0.6792
 5463TIP3   OH216324   5.663   1.553   1.192  0.4590  0.1254 -0.4368
 5463TIP3    H116325   5.676   1.568   1.286 -1.5700  0.1557 -0.1358
 5463TIP3    H216326   5.704   1.628   1.150 -1.1178  1.6198  0.5873
 5464TIP3   OH216327   7.217   1.273   2.315  0.4672 -0.2948 -0.0968
 5464TIP3    H116328   7.158   1.297   2.387  0.3733 -2.1750  0.4722
 5464TIP3    H216329   7.290   1.229   2.357  0.7921 -0.7012 -1.0763
 5465TIP3   OH216330   2.798   6.651   2.614 -0.0287  0.3935  1.0129
 5465TIP3    H116331   2.809   6.587   2.685  0.2475  1.6477  2.1221
 5465TIP3    H216332   2.875   6.708   2.622  0.3465  0.1471 -0.7213
 5466TIP3   OH216333   6.662   6.899   0.448 -0.5786  0.0327 -0.2982
 5466TIP3    H116334   6.746   6.943   0.442 -0.2135 -0.6154  0.0340
 5466TIP3    H216335   6.621   6.937   0.526 -1.4684  1.8255 -1.5880
 5467TIP3   OH216336   6.889   7.911   1.197  0.0191  0.2025 -0.6815
 5467TIP3    H116337   6.941   7.953   1.265  0.1663 -2.1716  0.7503
 5467TIP3    H216338   6.798   7.928   1.223  0.0787 -0.0754 -0.2745
 5468TIP3   OH216339   6.739   0.446   2.515  0.1382 -0.0387  0.2770
 5468TIP3    H116340   6.727   0.490   2.431 -0.0178 -0.2823  0.1712
 5468TIP3    H216341   6.801   0.375   2.496 -0.5552 -0.6175  0.1877
 5469TIP3   OH216342   7.283   1.189   0.543  0.5774 -0.5890  0.1177
 5469TIP3    H116343   7.375   1.163   0.536  0.8567  0.4510 -0.0348
 5469TIP3    H216344   7.254   1.203   0.453  0.3636 -0.5797  0.1858
 5470TIP3   OH216345   6.335   0.829   0.689 -0.5464 -0.0927 -0.2753
 5470TIP3    H116346   6.416   0.831   0.638 -0.4700 -0.2005 -0.1590
 5470TIP3    H216347   6.272   0.878   0.637  0.0983  1.5965  0.5153
 5471TIP3   OH216348   7.457   7.567   0.307 -0.4749  0.3968 -0.3537
 5471TIP3    H116349   7.399   7.640   0.291 -0.5526  0.5598  0.6125
 5471TIP3    H216350   7.399   7.493   0.327 -0.3585  1.1587  3.1142
 5472TIP3   OH216351   3.907   4.693   1.735 -0.2097  0.6690 -0.4270
 5472TIP3    H116352   3.814   4.674   1.719 -0.2244  1.4675 -1.3568
 5472TIP3    H216353   3.938   4.618   1.785 -0.9184 -0.5075 -1.6895
 5473TIP3   OH216354   5.744   6.823   1.883 -0.2429 -0.3296  0.4151
 5473TIP3    H116355   5.676   6.775   1.930 -0.5301  0.3001  0.6532
 5473TIP3    H216356   5.826   6.795   1.924 -0.4569 -0.1318  0.9968
 5474TIP3   OH216357   7.215   6.512   2.564 -0.1392 -0.2855  0.2087
 5474TIP3    H116358   7.253   6.428   2.587 -0.0404 -0.1369  0.5857
 5474TIP3    H216359   7.131   6.515   2.611  0.0631  0.0165  0.5524
 5475TIP3   OH216360   6.912   0.580   1.212 -0.3298  0.1699  0.7958
 5475TIP3    H116361   6.871   0.661   1.182 -1.5292 -0.2629  1.2593
 5475TIP3    H216362   6.944   0.538   1.132  3.1256  2.5843  0.7830
 5476TIP3   OH216363   1.034   0.395   0.661  0.1651  0.1614 -0.4225
 5476TIP3    H116364   1.070   0.343   0.733 -1.2324  0.9475  0.8651
 5476TIP3    H216365   1.101   0.390   0.593  1.5329 -0.5759  0.9315
 5477TIP3   OH216366   4.911   7.444   4.410 -0.4546  0.4573  0.3543
 5477TIP3    H116367   4.896   7.538   4.405 -0.9043  0.3601 -0.0911
 5477TIP3    H216368   4.826   7.404   4.392 -0.1357 -0.0434 -0.0596
 5478TIP3   OH216369   4.869   1.466   6.225 -0.4470  0.0134  0.4207
 5478TIP3    H116370   4.870   1.433   6.135 -0.0551  0.8456  0.1147
 5478TIP3    H216371   4.960   1.490   6.242 -0.5106 -0.1803  1.0637
 5479TIP3   OH216372   0.177   0.269   0.542  0.2453  0.3225  0.0909
 5479TIP3    H116373   0.171   0.363   0.562 -0.1222  0.5450 -1.0376
 5479TIP3    H216374   0.244   0.263   0.475 -0.0347 -0.1772 -0.1477
 5480TIP3   OH216375   0.136   1.839   0.861  0.5017 -0.8319 -0.0666
 5480TIP3    H116376   0.180   1.793   0.933  0.5403 -1.8402 -0.7229
 5480TIP3    H216377   0.173   1.800   0.782 -1.5761 -1.7334 -0.6275
 5481TIP3   OH216378   3.638   3.085   6.466  0.3460 -0.4267  0.5328
 5481TIP3    H116379   3.624   3.004   6.417 -1.2800  0.5794 -0.7275
 5481TIP3    H216380   3.551   3.108   6.498  1.2416 -0.5713  3.1612
 5482TIP3   OH216381   3.705   7.589   1.508  0.0178 -0.1414 -0.2228
 5482TIP3    H116382   3.739   7.527   1.443 -1.2530  0.8673 -1.8613
 5482TIP3    H216383   3.633   7.542   1.550  0.5458 -0.6218  0.1611
 5483TIP3   OH216384   3.290   5.561   1.136  0.1236  0.3427 -0.2079
 5483TIP3    H116385   3.357   5.628   1.124  1.7031 -0.7141  2.2353
 5483TIP3    H216386   3.236   5.594   1.208 -0.9492  0.3803 -1.0155
 5484TIP3   OH216387   2.680   7.185   1.561  0.3773  0.0454 -0.1528
 5484TIP3    H116388   2.769   7.170   1.532  0.4974 -3.0566  1.6932
 5484TIP3    H216389   2.686   7.197   1.656 -1.0918  0.4525 -0.0842
 5485TIP3   OH216390   7.644   1.346   5.992  0.5630  0.0518 -0.4316
 5485TIP3    H116391   7.668   1.439   5.998  0.6158  0.0241 -0.2153
 5485TIP3    H216392   7.553   1.347   5.963 -0.4171  0.2350  2.4662
 5486TIP3   OH216393   5.402   7.825   0.576  0.1531 -0.0142  0.6449
 5486TIP3    H116394   5.438   7.741   0.546  0.0339  0.2196 -0.1444
 5486TIP3    H216395   5.348   7.855   0.504  1.0085  1.2454  0.5189
 5487TIP3   OH216396   5.461   7.282   0.876  0.3308  0.0903 -0.5479
 5487TIP3    H116397   5.454   7.240   0.790  3.0157  0.1040 -0.8089
 5487TIP3    H216398   5.549   7.260   0.906  0.0121  1.4754  1.4778
 5488TIP3   OH216399   2.674   7.713   1.753 -0.3762  0.0973  0.5699
 5488TIP3    H116400   2.683   7.784   1.690 -3.4293 -0.6583 -0.8191
 5488TIP3    H216401   2.609   7.745   1.816  0.4396 -0.3166  1.6377
 5489TIP3   OH216402   8.017   0.321   0.404  0.1402 -0.0036  0.0366
 5489TIP3    H116403   8.013   0.400   0.458  3.8612 -0.0192  0.4583
 5489TIP3    H216404   8.063   0.349   0.325  2.3383 -1.9067  0.5801
 5490TIP3   OH216405   0.347   0.393   0.922  0.5061  0.1248  0.0163
 5490TIP3    H116406   0.289   0.468   0.936  0.3791  0.5963 -2.7314
 5490TIP3    H216407   0.392   0.413   0.840  0.4902 -2.7999 -0.7596
 5491TIP3   OH216408   6.626   0.353   0.732 -0.1453 -0.6726 -0.5339
 5491TIP3    H116409   6.579   0.321   0.809 -0.9555 -2.2297 -1.6620
 5491TIP3    H216410   6.560   0.359   0.664  0.9818 -1.3862 -1.7142
 5492TIP3   OH216411   5.435   5.551   0.753  0.3764 -0.8814  0.1991
 5492TIP3    H116412   5.402   5.461   0.762 -0.7101 -0.4950  0.1772
 5492TIP3    H216413   5.421   5.591   0.839  0.9351 -0.7546  0.2334
 5493TIP3   OH216414   5.888   6.646   2.431 -0.2526 -0.8019 -0.0355
 5493TIP3    H116415   5.826   6.576   2.411 -0.7584 -0.5701  0.6799
 5493TIP3    H216416   5.834   6.716   2.468  0.2433 -0.0124 -0.7745
 5494TIP3   OH216417   5.262   7.569   2.420  0.0167  0.1036  0.1164
 5494TIP3    H116418   5.295   7.499   2.476 -0.2293  1.2795  1.7333
 5494TIP3    H216419   5.184   7.602   2.465 -0.2321  1.0127 -0.9518
 5495TIP3   OH216420   5.024   6.432   0.767 -0.1475 -0.6200  0.2487
 5495TIP3    H116421   4.984   6.512   0.801  1.5472  0.1123  0.5826
 5495TIP3    H216422   4.951   6.383   0.727 -1.4457  0.3997  1.3257
 5496TIP3   OH216423   6.565   7.425   0.733  0.2493  0.1177 -0.4425
 5496TIP3    H116424   6.479   7.452   0.765  0.8619  2.3541 -0.6015
 5496TIP3    H216425   6.556   7.423   0.638  0.4565  0.6276 -0.4719
 5497TIP3   OH216426   4.203   5.421   3.010  0.4048 -0.1592  0.0837
 5497TIP3    H116427   4.210   5.393   2.918 -2.4262 -0.6763 -0.0281
 5497TIP3    H216428   4.109   5.418   3.028  0.6971  2.4204  2.2604
 5498TIP3   OH216429   7.763   5.494   0.701 -0.5680 -0.6166  0.1680
 5498TIP3    H116430   7.837   5.433   0.696 -0.4817 -0.5093  0.1366
 5498TIP3    H216431   7.783   5.561   0.636 -0.7246 -0.6237  0.1135
 5499TIP3   OH216432   5.563   7.002   2.912  0.8993  0.1836 -0.0554
 5499TIP3    H116433   5.518   6.963   2.987 -2.8671 -0.9854 -2.7423
 5499TIP3    H216434   5.619   6.932   2.878 -1.3470 -1.0517 -1.3438
 5500TIP3   OH216435   8.072   0.071   1.466 -0.4292 -0.4264  0.0442
 5500TIP3    H116436   8.128   0.036   1.396  0.5697 -1.6028  1.4145
 5500TIP3    H216437   8.114   0.153   1.492 -0.5507 -0.2202 -0.3961
 5501TIP3   OH216438   4.859   7.965   0.617 -0.3941 -0.1412 -0.0569
 5501TIP3    H116439   4.895   8.051   0.592 -1.8684  1.1616  2.1074
 5501TIP3    H216440   4.809   7.938   0.540 -1.6919  1.9660 -0.0084
 5502TIP3   OH216441   5.714   6.063   1.164 -0.5728  0.1521 -0.2364
 5502TIP3    H116442   5.766   6.002   1.217 -0.1549  0.9910  0.3214
 5502TIP3    H216443   5.701   6.017   1.081 -0.6013 -0.8664  0.3216
 5503TIP3   OH216444   5.126   6.864   2.175  0.3358  0.3264  0.0690
 5503TIP3    H116445   5.172   6.940   2.210  1.3194 -0.1982 -0.0771
 5503TIP3    H216446   5.095   6.817   2.253  0.3289  0.5066  0.1752
 5504TIP3   OH216447   0.780   0.503   1.475  0.7736  0.0534 -0.2052
 5504TIP3    H116448   0.857   0.450   1.453 -0.0477 -0.6731 -1.3523
 5504TIP3    H216449   0.817   0.584   1.509  2.0602 -0.9877  0.9759
 5505TIP3   OH216450   1.877   4.681   6.182  0.2738  0.4984  0.4199
 5505TIP3    H116451   1.819   4.753   6.157  1.1067  1.2697  0.7192
 5505TIP3    H216452   1.846   4.655   6.269  0.0938  0.6056  0.3898
 5506TIP3   OH216453   1.711   0.470   1.180 -0.3603  0.5305  0.1426
 5506TIP3    H116454   1.793   0.515   1.200 -0.7645  1.6144 -0.6232
 5506TIP3    H216455   1.686   0.502   1.094 -0.5080 -1.3859 -0.5564
 5507TIP3   OH216456   8.481   1.011   0.372  0.2916  0.2198 -0.3945
 5507TIP3    H116457   8.447   0.989   0.285  1.4344 -1.2137 -0.5071
 5507TIP3    H216458   8.540   1.084   0.358  1.7150 -1.0400 -1.0901
 5508TIP3   OH216459   8.362   0.681   0.870  0.5980  0.6851  0.0305
 5508TIP3    H116460   8.326   0.619   0.807  0.1912  0.8287  0.1181
 5508TIP3    H216461   8.350   0.639   0.955  2.4058 -0.1251 -0.0784
 5509TIP3   OH216462   7.301   3.380   2.399 -0.0342 -0.4147 -0.6379
 5509TIP3    H116463   7.234   3.368   2.467 -0.8150  2.0621 -0.9195
 5509TIP3    H216464   7.264   3.338   2.322 -1.1210  0.5912 -0.6830
 5510TIP3   OH216465   7.021   5.702   1.123 -0.1789  0.2225  0.0291
 5510TIP3    H116466   6.991   5.792   1.137  1.0880  1.0416 -2.3121
 5510TIP3    H216467   7.045   5.698   1.031  1.6777 -1.9624  0.5465
 5511TIP3   OH216468   0.472   0.782   1.907  0.1657 -0.5577  0.2555
 5511TIP3    H116469   0.526   0.706   1.885 -0.9442 -1.6955  1.3616
 5511TIP3    H216470   0.534   0.846   1.943  1.0297 -1.1602 -0.1590
 5512TIP3   OH216471   3.709   4.311   6.113  0.1284 -0.1568 -0.2460
 5512TIP3    H116472   3.793   4.350   6.092  0.4944 -0.2022  1.0703
 5512TIP3    H216473   3.730   4.224   6.145 -0.3438  0.1375  0.8987
 5513TIP3   OH216474   5.144   7.400   0.779  0.5030  0.2229  0.2020
 5513TIP3    H116475   5.123   7.489   0.805 -0.1510 -0.0588  0.6462
 5513TIP3    H216476   5.079   7.346   0.824 -0.2499 -0.3358 -1.5237
 5514TIP3   OH216477   3.956   4.849   5.481 -0.3747 -0.6836 -0.3561
 5514TIP3    H116478   4.045   4.863   5.514 -0.5311 -0.1656 -0.1538
 5514TIP3    H216479   3.968   4.789   5.407  0.3431  0.7461 -1.4277
 5515TIP3   OH216480   6.682   0.463   1.020  0.2112  0.6085  0.4267
 5515TIP3    H116481   6.763   0.413   1.028 -0.6904 -0.9313  0.0309
 5515TIP3    H216482   6.692   0.512   0.939  0.4436 -0.1412 -0.0021
 5516TIP3   OH216483   0.024   0.014   2.465 -0.1559  0.1357 -0.0758
 5516TIP3    H116484   0.082  -0.001   2.540 -1.7852 -3.0284  0.6200
 5516TIP3    H216485  -0.064   0.001   2.500 -1.0432  0.1954 -2.2166
 5517TIP3   OH216486   3.241   5.988   0.700 -0.6128 -0.2381  0.1047
 5517TIP3    H116487   3.194   5.949   0.627 -0.3956  1.5321 -1.0177
 5517TIP3    H216488   3.324   6.018   0.662 -0.7525  1.2463  0.9250
 5518TIP3   OH216489   4.469   7.728   2.356  0.7017 -0.8732  0.4496
 5518TIP3    H116490   4.484   7.817   2.387 -0.2541 -1.1640  1.8196
 5518TIP3    H216491   4.480   7.733   2.261  0.2324  0.7848  0.4694
 5519TIP3   OH216492   3.908   7.733   0.599  0.1252  0.2910  0.6805
 5519TIP3    H116493   3.851   7.801   0.633 -0.5312 -0.7857  1.7375
 5519TIP3    H216494   3.995   7.754   0.633  0.3493  1.7926 -0.7399
 5520TIP3   OH216495   3.186   3.943   6.303 -0.4339  0.0508  0.1063
 5520TIP3    H116496   3.198   4.035   6.328 -0.8645  0.3479 -0.7682
 5520TIP3    H216497   3.215   3.939   6.212 -1.2019 -0.4964 -0.1215
 5521TIP3   OH216498   0.650   0.698   1.342 -0.6147  0.0018  0.1270
 5521TIP3    H116499   0.681   0.622   1.391 -1.0004  0.0364  0.4267
 5521TIP3    H216500   0.573   0.665   1.295 -0.5826  0.1179 -0.0043
 5522TIP3   OH216501   0.787   0.736   1.887  0.3726  0.4196  0.4977
 5522TIP3    H116502   0.849   0.790   1.937 -0.5105 -0.3372  2.4526
 5522TIP3    H216503   0.812   0.646   1.907  0.4953  0.0924 -1.0717
 5523TIP3   OH216504   7.797   5.502   1.488  0.1803 -0.0056 -0.1930
 5523TIP3    H116505   7.711   5.499   1.444  0.4296 -1.6074 -0.6125
 5523TIP3    H216506   7.854   5.547   1.425  0.4197 -1.8697 -1.3623
 5524TIP3   OH216507   4.835   7.808   1.056  0.1261 -0.0435 -0.0192
 5524TIP3    H116508   4.856   7.739   1.120 -1.2755  0.0522  0.5607
 5524TIP3    H216509   4.921   7.836   1.023  0.7485 -1.9479 -0.1477
 5525TIP3   OH216510   5.651   7.136   2.462  0.0435 -0.0611  0.0506
 5525TIP3    H116511   5.612   7.224   2.460  1.8835  0.7783  0.1705
 5525TIP3    H216512   5.703   7.131   2.382  0.6843 -0.6955  0.5006
 5526TIP3   OH216513   4.649   6.126   1.365  0.1506  0.0639  0.4229
 5526TIP3    H116514   4.669   6.184   1.438  0.5370 -0.1401  0.4760
 5526TIP3    H216515   4.555   6.108   1.374  0.4287 -0.8471  1.5080
 5527TIP3   OH216516   4.171   5.949   2.368 -0.7135  0.1683  0.3789
 5527TIP3    H116517   4.139   5.932   2.457 -1.5761 -0.3788 -0.0350
 5527TIP3    H216518   4.100   5.996   2.325 -0.5319 -0.0898 -0.2079
 5528TIP3   OH216519   5.531   7.857   1.524  0.0822 -0.3469 -0.1622
 5528TIP3    H116520   5.513   7.904   1.443 -1.0471 -0.9966 -0.3006
 5528TIP3    H216521   5.556   7.925   1.586 -0.6768  0.3431 -0.6016
 5529TIP3   OH216522   3.623   5.029   2.013  0.3597 -0.2627  0.1088
 5529TIP3    H116523   3.628   4.937   2.039 -1.6659 -0.3691  0.1928
 5529TIP3    H216524   3.598   5.027   1.920  1.3334  0.1934 -0.1692
 5530TIP3   OH216525   4.498   6.703   2.708  0.0326 -0.0971  0.8531
 5530TIP3    H116526   4.465   6.668   2.625 -0.8751 -1.1289  1.6262
 5530TIP3    H216527   4.429   6.763   2.737  0.6355  0.7500  0.5683
 5531TIP3   OH216528   8.114   0.887   0.947 -0.0665  0.2920 -0.3666
 5531TIP3    H116529   8.209   0.900   0.946 -0.0697  0.5329  1.1355
 5531TIP3    H216530   8.079   0.960   0.896  0.4523  1.2151  0.5902
 5532TIP3   OH216531   2.074   4.491   6.197  0.0571  0.4638  0.2993
 5532TIP3    H116532   2.091   4.494   6.291 -0.2658 -0.0526  0.3741
 5532TIP3    H216533   2.031   4.574   6.178  0.2209  0.6159  0.5868
 5533TIP3   OH216534   3.541   5.205   2.829 -0.1568 -0.0931 -0.2925
 5533TIP3    H116535   3.552   5.226   2.737 -1.5970  0.3766 -0.3664
 5533TIP3    H216536   3.476   5.267   2.861  1.2997  0.6519  1.3842
 5534TIP3   OH216537   6.796   4.628   2.671  0.4203 -0.1941 -0.3254
 5534TIP3    H116538   6.791   4.645   2.577  0.0615  0.3284 -0.2122
 5534TIP3    H216539   6.775   4.712   2.712  0.4673 -0.4465  0.2226
 5535TIP3   OH216540   2.825   4.019   1.037 -0.3189  0.6947 -0.3789
 5535TIP3    H116541   2.834   4.113   1.052  2.1888  0.4077  0.0281
 5535TIP3    H216542   2.882   4.001   0.962  0.6833 -0.8041  0.7216
 5536TIP3   OH216543   3.753   6.810   1.587  0.3952 -0.1677  0.2129
 5536TIP3    H116544   3.664   6.782   1.564  0.6206 -0.8202  0.1494
 5536TIP3    H216545   3.800   6.812   1.504  0.4569  0.1295  0.2538
 5537TIP3   OH216546   7.166   0.040   2.259  0.4520  0.1372  0.1616
 5537TIP3    H116547   7.246   0.024   2.310  1.0008 -0.5816 -0.9086
 5537TIP3    H216548   7.139  -0.047   2.229 -0.5831  0.4128  0.2687
 5538TIP3   OH216549   3.653   0.229   6.478 -0.4569  0.3443  0.2566
 5538TIP3    H116550   3.624   0.273   6.558  0.0962 -0.3016  0.8181
 5538TIP3    H216551   3.589   0.159   6.465 -0.2406  0.1170  0.4258
 5539TIP3   OH216552   2.728   2.271   6.777 -0.3877 -0.0237 -0.3342
 5539TIP3    H116553   2.758   2.183   6.799 -0.2215  0.4911  1.6409
 5539TIP3    H216554   2.634   2.261   6.762 -0.8203 -0.1691  2.2501
 5540TIP3   OH216555   5.479   6.274   1.376 -0.9838  0.3297  0.3263
 5540TIP3    H116556   5.470   6.181   1.397 -1.2100  0.2985  0.0879
 5540TIP3    H216557   5.391   6.309   1.382 -1.0556  0.3211 -0.5570
 5541TIP3   OH216558   5.748   7.522   1.125 -0.4139 -0.3970 -0.2478
 5541TIP3    H116559   5.771   7.614   1.134 -0.8048 -0.3942  0.8578
 5541TIP3    H216560   5.832   7.478   1.111  0.0386 -0.1129  1.4267
 5542TIP3   OH216561   6.493   7.421   0.483 -0.3073  0.4544 -0.5513
 5542TIP3    H116562   6.400   7.408   0.464 -0.7491 -1.5236  2.5004
 5542TIP3    H216563   6.538   7.397   0.402 -2.3470 -1.0985 -1.2662
 5543TIP3   OH216564   7.169   7.859   1.298 -0.2317 -0.6406 -0.5184
 5543TIP3    H116565   7.216   7.924   1.246 -1.8397  0.6478 -0.3994
 5543TIP3    H216566   7.092   7.838   1.246  0.9993 -3.5893 -1.2359
 5544TIP3   OH216567   8.182   0.106   0.415  0.3112  0.2739  0.3513
 5544TIP3    H116568   8.123   0.179   0.434 -1.5740 -1.5270  1.6955
 5544TIP3    H216569   8.262   0.126   0.462 -0.2300  1.4011  0.8059
 5545TIP3   OH216570   8.092   5.739   0.284  0.0019 -0.0143  0.6910
 5545TIP3    H116571   8.002   5.769   0.268  0.1576  0.6740  1.0862
 5545TIP3    H216572   8.084   5.644   0.295 -0.4611 -0.1543 -0.8161
 5546TIP3   OH216573   6.593   6.657   1.406 -0.6122 -0.1045  0.3920
 5546TIP3    H116574   6.582   6.570   1.446  2.4445 -0.1456  1.3199
 5546TIP3    H216575   6.587   6.718   1.479 -0.5623  0.2807  0.0768
 5547TIP3   OH216576   7.155   7.114   0.518 -0.1499  0.9513  0.0333
 5547TIP3    H116577   7.235   7.084   0.561 -0.5200 -0.2297 -0.0670
 5547TIP3    H216578   7.181   7.128   0.427 -0.5753 -1.7871 -0.5636
 5548TIP3   OH216579   8.263   0.532   0.651 -0.2021  0.4502 -0.1562
 5548TIP3    H116580   8.230   0.559   0.566  0.1054  2.1219  0.2353
 5548TIP3    H216581   8.196   0.473   0.686 -2.3471  3.0110  0.2031
 5549TIP3   OH216582   8.090   0.597   0.975  0.2900 -0.1157  0.1351
 5549TIP3    H116583   8.093   0.692   0.961  1.4394 -0.3483 -1.3302
 5549TIP3    H216584   8.011   0.569   0.929 -1.2098  0.3671  2.3096
 5550TIP3   OH216585   8.208   7.312   1.756 -0.3930 -0.5561  0.0415
 5550TIP3    H116586   8.248   7.363   1.826 -1.3150 -1.0432  0.9361
 5550TIP3    H216587   8.279   7.257   1.724  0.5383  1.0828 -0.7600
 5551TIP3   OH216588   4.444   2.675   6.697 -0.3091 -0.2871  0.0719
 5551TIP3    H116589   4.397   2.593   6.713  0.3418 -0.5040  0.9152
 5551TIP3    H216590   4.524   2.648   6.652 -0.3980 -0.0460 -0.2322
 5552TIP3   OH216591   5.755   7.800   2.265 -0.3882 -0.0575  0.2340
 5552TIP3    H116592   5.690   7.871   2.259 -0.9128 -0.4336  1.3783
 5552TIP3    H216593   5.802   7.818   2.346 -0.1202 -0.6894  0.2192
 5553TIP3   OH216594   5.408   7.380   2.550  0.0098 -0.4270  0.0476
 5553TIP3    H116595   5.398   7.301   2.602 -2.6127  0.4183  0.9074
 5553TIP3    H216596   5.466   7.436   2.601  1.7831 -1.7005 -0.5127
 5554TIP3   OH216597   6.661   7.497   1.581  0.4453 -0.6047  0.5320
 5554TIP3    H116598   6.626   7.422   1.630  1.2616  0.4475  2.7710
 5554TIP3    H216599   6.750   7.507   1.613  0.8282  0.4616 -0.8080
 5555TIP3   OH216600   8.155   7.288   1.222  0.5895 -0.1162  0.2305
 5555TIP3    H116601   8.124   7.294   1.313 -1.3836  1.6577 -0.5082
 5555TIP3    H216602   8.237   7.240   1.228  0.7853  0.4535  3.0261
 5556TIP3   OH216603   8.024   6.482   2.087  0.3559  0.1253 -0.7135
 5556TIP3    H116604   7.956   6.428   2.046  0.2618  0.0621 -0.4754
 5556TIP3    H216605   8.058   6.535   2.015 -0.1051  0.3223 -0.7872
 5557TIP3   OH216606   2.816   1.788   6.450 -0.1742 -0.6402  0.1842
 5557TIP3    H116607   2.783   1.865   6.402  0.9799 -1.0737 -1.3559
 5557TIP3    H216608   2.908   1.783   6.425 -0.6815 -3.6239 -1.1805
 5558TIP3   OH216609   0.879   0.814   2.345  0.6322 -0.7589 -0.1390
 5558TIP3    H116610   0.792   0.851   2.355  1.3434  0.6227  1.0948
 5558TIP3    H216611   0.864   0.719   2.338 -1.0346 -0.4389 -1.1170
 5559TIP3   OH216612   1.777   0.216   1.221  0.7612  0.5773  0.0787
 5559TIP3    H116613   1.779   0.295   1.167 -2.6754 -0.0623 -1.1391
 5559TIP3    H216614   1.779   0.248   1.311  1.5376  1.9263 -0.4078
 5560TIP3   OH216615   1.201   0.551   1.611  0.0736  0.8700  0.4297
 5560TIP3    H116616   1.132   0.540   1.676  1.7900 -2.2922  1.8550
 5560TIP3    H216617   1.283   0.548   1.661  1.4037 -0.7550 -1.6934
 5561TIP3   OH216618   1.891   0.907   0.838 -0.0139  0.3628  0.1871
 5561TIP3    H116619   1.902   0.950   0.753 -0.7231 -0.4422 -0.3189
 5561TIP3    H216620   1.913   0.975   0.902 -2.7700  2.0522 -0.5414
 5562TIP3   OH216621   6.801   4.713   0.132  0.3156 -0.4829  0.0774
 5562TIP3    H116622   6.737   4.732   0.200 -0.2092 -0.6773 -0.3599
 5562TIP3    H216623   6.860   4.788   0.132 -1.2556  0.7791 -1.0738
 5563TIP3   OH216624   6.218   7.915   0.523  0.0488  0.3688  0.3969
 5563TIP3    H116625   6.174   7.841   0.481 -0.0647  0.3861  0.4846
 5563TIP3    H216626   6.164   7.990   0.501  1.4440  0.8102 -1.6921
 5564TIP3   OH216627   3.282   4.165   6.065 -0.2108 -0.2126 -0.0389
 5564TIP3    H116628   3.200   4.135   6.027 -0.1647 -1.4485  0.8121
 5564TIP3    H216629   3.348   4.107   6.026  0.1915  0.3721 -0.2410
 5565TIP3   OH216630   4.030   2.913   6.518 -0.1246 -0.2059  0.1436
 5565TIP3    H116631   4.102   2.851   6.502 -1.2608 -1.0216 -1.9549
 5565TIP3    H216632   3.969   2.866   6.574  0.1672 -0.1044  0.5504
 5566TIP3   OH216633   7.366   7.336   0.092  0.3175 -0.4263  0.0838
 5566TIP3    H116634   7.338   7.374   0.009  0.7877  1.7991  0.9113
 5566TIP3    H216635   7.459   7.317   0.080  0.3442 -0.2663  0.0290
 5567TIP3   OH216636   8.037   6.063   2.493 -0.1464  0.1830 -0.1361
 5567TIP3    H116637   8.008   6.154   2.488  0.9307  0.5410  0.0613
 5567TIP3    H216638   8.118   6.061   2.443  0.3343 -0.4718  0.6706
 5568TIP3   OH216639   6.945   7.429   0.664 -0.2978  1.4553  0.2964
 5568TIP3    H116640   6.983   7.514   0.640  2.3301 -0.1019 -1.3257
 5568TIP3    H216641   6.892   7.404   0.589 -0.5661  1.3502  0.5183
 5569TIP3   OH216642   0.671   0.428   6.883 -0.6028 -0.0803  0.1692
 5569TIP3    H116643   0.623   0.469   6.955 -1.1035 -0.3610  0.0012
 5569TIP3    H216644   0.637   0.338   6.879 -1.1519  0.1582 -0.9125
 5570TIP3   OH216645   2.549   1.751   6.806 -0.0825  0.1221  0.0610
 5570TIP3    H116646   2.543   1.771   6.899  0.9743 -0.4444  0.2673
 5570TIP3    H216647   2.492   1.675   6.793  0.6845 -0.5371  0.4890
 5571TIP3   OH216648   0.076   6.442   5.654 -0.3396 -1.0226 -0.6006
 5571TIP3    H116649   0.037   6.427   5.568 -1.7869  0.9849 -0.3295
 5571TIP3    H216650   0.004   6.476   5.707  1.0096 -0.3648  0.8423
 5572TIP3   OH216651   6.724   7.446   3.667  0.1284 -0.3156  0.2939
 5572TIP3    H116652   6.684   7.360   3.664 -2.9449  1.0694  0.2007
 5572TIP3    H216653   6.676   7.493   3.735  1.6770  1.3958  0.2577
 5573TIP3   OH216654   1.565   3.568   4.606 -0.2968  0.1832 -0.1132
 5573TIP3    H116655   1.527   3.497   4.656 -0.0088 -1.3462 -2.0243
 5573TIP3    H216656   1.658   3.567   4.629 -0.1943 -0.4234 -0.5272
 5574TIP3   OH216657   2.008   0.860   3.097 -0.3204  0.5786  0.1165
 5574TIP3    H116658   2.097   0.827   3.108 -0.0363  1.0991 -0.5869
 5574TIP3    H216659   1.963   0.834   3.178  0.5136  0.4751  0.5587
 5575TIP3   OH216660   0.105   1.312   5.366  0.1359 -0.3978  0.0816
 5575TIP3    H116661   0.143   1.353   5.288  2.4341 -1.8735  0.3933
 5575TIP3    H216662   0.149   1.354   5.440 -2.1797  1.1402  0.6610
 5576TIP3   OH216663   1.432   0.820   5.164 -0.1708  0.3353 -0.3266
 5576TIP3    H116664   1.344   0.804   5.198 -0.0911  0.7522  0.0878
 5576TIP3    H216665   1.481   0.741   5.186  0.1323  0.9759  1.3960
 5577TIP3   OH216666   1.754   1.245   4.348 -0.3583 -0.0583  0.2972
 5577TIP3    H116667   1.819   1.251   4.418 -0.7975  0.7109  0.6313
 5577TIP3    H216668   1.730   1.152   4.346 -0.3052 -0.0914  1.1235
 5578TIP3   OH216669   2.202   0.336   5.931  0.1695 -0.5130  0.0060
 5578TIP3    H116670   2.158   0.335   6.016 -0.6706  0.7160 -0.3893
 5578TIP3    H216671   2.170   0.257   5.887 -0.9071 -0.1372  0.0962
 5579TIP3   OH216672   2.949   0.256   3.998  0.2344  0.4835 -0.3760
 5579TIP3    H116673   3.028   0.230   3.952 -0.9003 -1.0605 -1.5060
 5579TIP3    H216674   2.896   0.177   4.003 -1.9068  1.8193 -1.0365
 5580TIP3   OH216675   0.240   7.840   5.149  0.0833  0.4399  0.1785
 5580TIP3    H116676   0.276   7.753   5.128  1.0703  0.6934  0.7677
 5580TIP3    H216677   0.310   7.900   5.122 -0.6983  1.0653 -0.4480
 5581TIP3   OH216678   1.511   0.699   6.862  0.3178 -0.0693 -0.8088
 5581TIP3    H116679   1.478   0.615   6.893  0.5946  0.3200  0.6218
 5581TIP3    H216680   1.441   0.761   6.881  0.7054  0.2671 -0.4550
 5582TIP3   OH216681   2.064   0.572   4.827 -0.2505 -0.2320 -0.0127
 5582TIP3    H116682   2.017   0.494   4.798 -0.2378 -0.8259  1.5048
 5582TIP3    H216683   2.070   0.627   4.749 -0.4360 -1.6546 -1.0573
 5583TIP3   OH216684   4.089   4.831   0.257 -0.7474 -0.4180 -0.0180
 5583TIP3    H116685   4.142   4.883   0.197  0.4678  0.0725  1.4584
 5583TIP3    H216686   4.035   4.776   0.200  0.2436  0.1703 -1.5494
 5584TIP3   OH216687   3.151   4.672   0.881 -0.2202  0.0144  0.1235
 5584TIP3    H116688   3.121   4.661   0.790  1.6754  0.6203 -0.5950
 5584TIP3    H216689   3.108   4.752   0.911 -1.5041 -0.6281  0.0636
 5585TIP3   OH216690   7.612   7.882   2.903  0.7021  0.1452 -0.1657
 5585TIP3    H116691   7.662   7.801   2.891  1.4385  0.6271 -0.3891
 5585TIP3    H216692   7.596   7.887   2.997  1.0313 -0.0455 -0.0991
 5586TIP3   OH216693   4.050   5.131   0.149 -0.5340 -0.2790  0.1548
 5586TIP3    H116694   4.009   5.131   0.062  0.5009 -0.8314 -0.3413
 5586TIP3    H216695   4.132   5.083   0.137 -0.8915 -1.3089  1.6831
 5587TIP3   OH216696   7.754   7.302   4.560  0.0976  0.0833 -0.2197
 5587TIP3    H116697   7.843   7.286   4.531  0.0583 -0.9912  0.2019
 5587TIP3    H216698   7.763   7.342   4.646  0.1772 -0.4486  0.0235
 5588TIP3   OH216699   2.952   3.940   0.109  0.0031 -0.2278 -0.2546
 5588TIP3    H116700   2.861   3.913   0.104 -0.2704  0.5692  0.5291
 5588TIP3    H216701   2.991   3.906   0.028 -1.3231  0.7192 -1.3009
 5589TIP3   OH216702   1.573   0.799   4.862 -0.0375 -0.4038  0.3289
 5589TIP3    H116703   1.511   0.758   4.923 -1.3452  1.1333  0.0543
 5589TIP3    H216704   1.563   0.749   4.781 -0.9358 -0.1634  0.2851
 5590TIP3   OH216705   4.398   5.933   0.823 -0.3432  0.2785 -0.1901
 5590TIP3    H116706   4.337   5.956   0.752 -1.6299  1.9526  1.4164
 5590TIP3    H216707   4.417   6.016   0.866 -0.5071 -0.8526  2.1389
 5591TIP3   OH216708   4.497   4.598   0.745  0.0050  0.1699 -0.1782
 5591TIP3    H116709   4.535   4.563   0.664  0.3827 -0.7731  0.4017
 5591TIP3    H216710   4.454   4.679   0.717 -2.7150 -1.7731 -1.9693
 5592TIP3   OH216711   8.210   5.650   4.908 -0.0424  0.5922 -0.7691
 5592TIP3    H116712   8.141   5.665   4.972  0.9215  0.2842  0.3622
 5592TIP3    H216713   8.165   5.615   4.831 -1.1428  0.4098 -0.0479
 5593TIP3   OH216714   3.842   3.907   0.769 -0.1215  0.6158  0.0823
 5593TIP3    H116715   3.889   3.845   0.713 -0.6301 -0.0368  0.3651
 5593TIP3    H216716   3.885   3.991   0.754  1.4407 -0.0631  0.6924
 5594TIP3   OH216717   3.969   3.689   0.012  0.0669 -0.0609 -0.4238
 5594TIP3    H116718   4.010   3.604   0.025 -1.2430 -0.5403  0.7050
 5594TIP3    H216719   4.021   3.750   0.064 -0.0510 -0.4825  0.1848
 5595TIP3   OH216720   2.604   0.392   5.787  0.2047 -0.2240  0.2540
 5595TIP3    H116721   2.680   0.337   5.768  0.7362  0.7051 -0.3341
 5595TIP3    H216722   2.639   0.482   5.788 -0.6548  0.1040  1.1771
 5596TIP3   OH216723   1.299   2.099   4.895  0.1420 -0.0543 -0.0463
 5596TIP3    H116724   1.282   2.124   4.986  2.2228 -0.3197  0.4455
 5596TIP3    H216725   1.391   2.123   4.881 -0.2494  0.2956 -2.1889
 5597TIP3   OH216726   2.099   0.441   2.614 -0.2536 -0.0952 -0.1539
 5597TIP3    H116727   2.013   0.432   2.572  0.2754  0.3979 -1.3539
 5597TIP3    H216728   2.085   0.507   2.682 -0.5666  0.7842 -1.0628
 5598TIP3   OH216729   7.880   6.911   5.626 -0.1914 -0.4200 -0.1033
 5598TIP3    H116730   7.820   6.977   5.662  1.0488 -0.5380  2.3282
 5598TIP3    H216731   7.854   6.829   5.667  1.7300 -0.4308  1.1931
 5599TIP3   OH216732   2.174   1.520   3.454  0.4063  0.1982  0.1811
 5599TIP3    H116733   2.259   1.565   3.447 -0.2800  1.3500 -0.9772
 5599TIP3    H216734   2.113   1.577   3.408 -0.8810 -0.9654  0.4178
 5600TIP3   OH216735   4.293   0.032   5.425 -0.5740 -0.0212  0.5081
 5600TIP3    H116736   4.293   0.119   5.385 -0.4004  0.0671  0.6992
 5600TIP3    H216737   4.377   0.027   5.472 -0.0129 -0.7803 -0.5579
 5601TIP3   OH216738   5.453   2.571   0.894 -0.2778  0.6913  0.0843
 5601TIP3    H116739   5.439   2.657   0.933  1.7900  0.8993  0.4609
 5601TIP3    H216740   5.478   2.591   0.803  1.7654  0.6193  0.5965
 5602TIP3   OH216741   0.818   1.376   5.589 -0.0655  0.2606 -0.2806
 5602TIP3    H116742   0.888   1.340   5.643  0.8242  0.2518 -1.4118
 5602TIP3    H216743   0.753   1.407   5.652  1.9653  2.3613  0.9006
 5603TIP3   OH216744   1.409   1.052   5.649  0.2360 -0.6503  0.3132
 5603TIP3    H116745   1.410   1.142   5.681 -0.7570 -0.0299 -1.2873
 5603TIP3    H216746   1.358   1.057   5.568 -2.6638 -3.2053  1.8533
 5604TIP3   OH216747   1.766   6.369   6.781 -0.4147  0.9051 -0.2028
 5604TIP3    H116748   1.793   6.289   6.735 -3.9303 -0.4231 -0.1376
 5604TIP3    H216749   1.744   6.430   6.710  1.2097  1.4737 -0.2452
 5605TIP3   OH216750   8.509   6.821   5.550 -0.1388  0.4226  0.1685
 5605TIP3    H116751   8.420   6.788   5.538  0.4488 -1.2739  0.3556
 5605TIP3    H216752   8.563   6.767   5.492  0.9322  0.6186  0.9603
 5606TIP3   OH216753   4.465   6.916   0.163  0.0323 -0.0325 -0.5812
 5606TIP3    H116754   4.538   6.875   0.209 -0.3265  1.3462  1.2462
 5606TIP3    H216755   4.497   7.003   0.139 -0.1602 -0.3366 -1.9892
 5607TIP3   OH216756   2.415   0.013   4.919  0.0317  0.2199 -0.0325
 5607TIP3    H116757   2.326   0.035   4.891 -0.3046  1.0929  1.6370
 5607TIP3    H216758   2.406  -0.003   5.013  1.3949 -1.0895 -0.1111
 5608TIP3   OH216759   4.580   0.459   6.300 -0.3675  0.5205 -0.4625
 5608TIP3    H116760   4.667   0.419   6.293 -1.5998 -2.1268 -0.9474
 5608TIP3    H216761   4.597   0.553   6.289  2.4223  0.0562 -0.6033
 5609TIP3   OH216762   0.216   1.417   6.723  0.0789 -0.0690 -0.4866
 5609TIP3    H116763   0.201   1.363   6.646 -1.3191 -0.1233 -0.1871
 5609TIP3    H216764   0.162   1.377   6.791  0.9898  0.2149  0.4175
 5610TIP3   OH216765   3.201   2.100   6.275 -0.0851 -0.0823  0.0294
 5610TIP3    H116766   3.288   2.086   6.239 -0.6088  0.8632 -1.6425
 5610TIP3    H216767   3.147   2.032   6.236 -0.6061  0.7963 -0.7916
 5611TIP3   OH216768   6.273   7.795   2.850  0.3908 -0.0439 -0.8937
 5611TIP3    H116769   6.300   7.767   2.938  0.4838  0.6525 -0.7010
 5611TIP3    H216770   6.338   7.757   2.792  0.1671 -0.7511 -0.6858
 5612TIP3   OH216771   7.396   7.458   5.149 -0.0703  0.1561 -0.1997
 5612TIP3    H116772   7.486   7.427   5.166 -0.4235 -0.6036  0.3128
 5612TIP3    H216773   7.356   7.389   5.098 -0.1058  0.8922 -1.1783
 5613TIP3   OH216774   7.938   7.711   3.181 -0.2600  0.1143  0.2793
 5613TIP3    H116775   7.961   7.751   3.265 -1.4306  0.3705  0.4873
 5613TIP3    H216776   7.997   7.636   3.173  0.8042  0.8963  0.6745
 5614TIP3   OH216777   7.653   7.843   6.050  0.0938 -0.4937  0.2347
 5614TIP3    H116778   7.602   7.870   6.126  0.9550  0.9930  0.3197
 5614TIP3    H216779   7.724   7.791   6.086 -0.9389 -1.9538  0.1871
 5615TIP3   OH216780   6.288   6.848   5.487  0.2432  0.4048  0.1458
 5615TIP3    H116781   6.303   6.759   5.456 -0.4911  0.3168  0.0392
 5615TIP3    H216782   6.357   6.863   5.552  0.6280 -0.0811 -0.1483
 5616TIP3   OH216783   7.658   7.788   5.493 -0.3054 -0.2226  0.1690
 5616TIP3    H116784   7.632   7.769   5.584 -1.2417 -0.5470 -0.1607
 5616TIP3    H216785   7.596   7.855   5.464 -0.1548 -0.2886 -0.3010
 5617TIP3   OH216786   2.668   1.178   6.606  0.2821  0.2012 -0.3302
 5617TIP3    H116787   2.710   1.206   6.687 -0.4538 -0.0578  0.1485
 5617TIP3    H216788   2.721   1.104   6.575  0.3679  0.0868  0.0911
 5618TIP3   OH216789   7.268   7.558   6.426  0.3913  0.2005  0.1410
 5618TIP3    H116790   7.247   7.607   6.505 -0.7610 -2.2920  1.4551
 5618TIP3    H216791   7.189   7.564   6.372  0.1934 -0.2683  0.3676
 5619TIP3   OH216792   1.689   0.545   3.693  0.1327  0.2099 -0.5489
 5619TIP3    H116793   1.694   0.508   3.781 -1.4709  0.6176 -0.2557
 5619TIP3    H216794   1.777   0.536   3.657  0.1922 -2.3452  0.1275
 5620TIP3   OH216795   5.830   7.655   5.069 -0.6393  0.0008 -0.0249
 5620TIP3    H116796   5.806   7.715   5.139 -0.1618  2.0612 -1.5674
 5620TIP3    H216797   5.748   7.633   5.026 -1.0639 -2.0409  1.7013
 5621TIP3   OH216798   1.108   1.711   6.781 -0.2329  0.0544  0.1581
 5621TIP3    H116799   1.127   1.800   6.810  0.0823  0.5913 -1.6493
 5621TIP3    H216800   1.017   1.714   6.750 -0.5541 -0.5072  1.0112
 5622TIP3   OH216801   0.112   0.198   5.172 -0.1347 -0.1990 -0.5168
 5622TIP3    H116802   0.142   0.180   5.261 -1.1990 -0.2674 -0.1666
 5622TIP3    H216803   0.108   0.111   5.131  1.2724 -0.0781 -0.9362
 5623TIP3   OH216804   2.651   2.267   6.152  0.0140 -0.5817  0.1869
 5623TIP3    H116805   2.683   2.187   6.192 -0.6432 -0.4240  1.0342
 5623TIP3    H216806   2.590   2.304   6.216 -0.0294  0.3629 -0.3812
 5624TIP3   OH216807   5.155   3.886   1.051  0.1787 -0.1198  0.1993
 5624TIP3    H116808   5.163   3.957   0.987  0.8106 -0.2735  0.1149
 5624TIP3    H216809   5.075   3.908   1.099 -0.3538 -0.0493 -0.6931
 5625TIP3   OH216810   2.477   0.705   6.166 -0.2967  0.0616 -0.6144
 5625TIP3    H116811   2.551   0.747   6.207 -2.1140  0.1660  2.7057
 5625TIP3    H216812   2.469   0.620   6.210 -3.7401  1.1644  1.0620
 5626TIP3   OH216813   6.479   7.478   2.600  0.0640 -0.3693 -0.0091
 5626TIP3    H116814   6.563   7.472   2.554 -0.0039  0.3889 -0.2406
 5626TIP3    H216815   6.478   7.567   2.636 -0.4202 -0.5486  0.4209
 5627TIP3   OH216816   2.277   0.368   4.081  0.4563  0.5435 -0.2555
 5627TIP3    H116817   2.367   0.399   4.090  0.0933  0.9839  2.0182
 5627TIP3    H216818   2.286   0.272   4.080  0.9305  0.5777  0.2255
 5628TIP3   OH216819   7.064   7.509   6.243 -0.3114  0.1071 -0.0121
 5628TIP3    H116820   7.013   7.559   6.307 -0.3096  0.3348 -0.1904
 5628TIP3    H216821   7.010   7.509   6.164 -0.6902 -0.8732  0.2341
 5629TIP3   OH216822   2.729   0.607   6.064  0.2350 -0.1755  0.0717
 5629TIP3    H116823   2.634   0.614   6.054  0.0665  0.6374  1.9793
 5629TIP3    H216824   2.760   0.698   6.058  0.7061 -0.2714  1.0103
 5630TIP3   OH216825   3.876   1.454   6.789 -0.0012  0.5186  0.0066
 5630TIP3    H116826   3.967   1.423   6.785 -0.0404  0.4345 -0.2032
 5630TIP3    H216827   3.827   1.380   6.822  0.0295  0.6117  0.2615
 5631TIP3   OH216828   6.621   6.030   6.577 -0.1943  0.2339  0.8496
 5631TIP3    H116829   6.671   6.111   6.579 -0.0256  0.1215  1.1662
 5631TIP3    H216830   6.643   5.990   6.493 -0.0865  0.3954  0.8028
 5632TIP3   OH216831   2.753   0.321   3.569 -0.3466  0.3795 -0.2219
 5632TIP3    H116832   2.815   0.364   3.628 -1.0303  0.0384  0.7564
 5632TIP3    H216833   2.792   0.236   3.550  0.4346  0.9523 -1.1996
 5633TIP3   OH216834   2.990   1.114   5.012 -0.0690 -0.7071  0.0820
 5633TIP3    H116835   3.038   1.031   5.016 -0.3992 -0.9002  0.0977
 5633TIP3    H216836   2.946   1.112   4.927 -1.7847 -1.5147  0.9504
 5634TIP3   OH216837   1.424   0.012   5.512  0.4757 -0.3640 -0.5466
 5634TIP3    H116838   1.472  -0.035   5.580  1.5711 -0.4634 -1.3855
 5634TIP3    H216839   1.375   0.080   5.559  0.3392 -1.1466  0.4577
 5635TIP3   OH216840   5.855   3.590   0.137  0.2683 -0.6887 -0.0265
 5635TIP3    H116841   5.856   3.620   0.046 -0.7082  0.2106  0.2572
 5635TIP3    H216842   5.798   3.651   0.183  1.4336 -0.6226  1.3849
 5636TIP3   OH216843   2.558   3.767   5.987 -0.2013  0.1604 -0.1447
 5636TIP3    H116844   2.633   3.776   5.929 -0.6571  0.3245 -0.7084
 5636TIP3    H216845   2.503   3.701   5.946  0.1413 -0.7287  0.8116
 5637TIP3   OH216846   4.199  -0.003   6.714  0.0600  0.4607  0.1344
 5637TIP3    H116847   4.106   0.014   6.697 -0.3842  0.0756  2.0204
 5637TIP3    H216848   4.220   0.053   6.789  0.7689 -1.0787  1.1141
 5638TIP3   OH216849   2.799   0.660   4.846 -0.2300  0.6686  0.4771
 5638TIP3    H116850   2.762   0.597   4.909 -0.1134 -1.0971 -1.1882
 5638TIP3    H216851   2.736   0.732   4.845 -1.7721 -0.6601  0.3858
 5639TIP3   OH216852   0.514   6.516   3.832  0.2226  0.1485  0.2723
 5639TIP3    H116853   0.496   6.588   3.772 -1.3040  0.8964  1.6026
 5639TIP3    H216854   0.582   6.464   3.788 -1.9816 -0.2208 -2.8338
 5640TIP3   OH216855   0.962   7.754   3.643 -0.3051 -0.1071 -0.1368
 5640TIP3    H116856   0.973   7.849   3.635 -1.6178  0.0523 -0.1161
 5640TIP3    H216857   0.885   7.743   3.699 -1.3251 -1.1845 -1.7124
 5641TIP3   OH216858   0.849   6.578   6.877 -0.2811 -0.2990 -0.1815
 5641TIP3    H116859   0.802   6.596   6.958 -1.7901 -0.7398 -0.9332
 5641TIP3    H216860   0.855   6.483   6.873  1.0959 -0.2380  0.1270
 5642TIP3   OH216861   5.723   1.418   5.681  0.2050  0.1723 -0.5755
 5642TIP3    H116862   5.661   1.450   5.746  0.2807  0.9382 -0.8692
 5642TIP3    H216863   5.808   1.428   5.723  0.4112  2.3386 -1.4211
 5643TIP3   OH216864   3.992   1.867   4.281  0.0165  0.3554  0.0321
 5643TIP3    H116865   3.897   1.866   4.294 -0.0312 -1.5773 -0.3631
 5643TIP3    H216866   4.005   1.924   4.206 -1.1721 -2.1060 -2.1501
 5644TIP3   OH216867   8.369   6.690   4.825 -0.0195  0.0440 -0.5766
 5644TIP3    H116868   8.359   6.618   4.763  1.2811  0.3186 -1.1138
 5644TIP3    H216869   8.280   6.706   4.858 -0.5783 -0.6588 -1.7250
 5645TIP3   OH216870   7.967   7.955   3.657 -0.0434  0.5224  0.2921
 5645TIP3    H116871   7.892   7.896   3.660  1.2794 -1.3611 -1.9558
 5645TIP3    H216872   8.027   7.920   3.723  1.2242 -1.3884 -1.8268
 5646TIP3   OH216873   2.232   0.972   6.358  0.2513  0.3300 -0.0557
 5646TIP3    H116874   2.162   0.968   6.423 -1.2947  1.7028 -1.5840
 5646TIP3    H216875   2.257   0.881   6.344 -1.4799 -0.2067  0.2652
 5647TIP3   OH216876   3.265   0.675   3.918  0.1201 -0.6817  0.0192
 5647TIP3    H116877   3.314   0.757   3.919  0.6569 -1.0049  1.5087
 5647TIP3    H216878   3.271   0.645   3.827  1.0475  0.2523 -0.2419
 5648TIP3   OH216879   2.152   0.020   5.635 -0.0448  0.3121  0.0011
 5648TIP3    H116880   2.093   0.001   5.708 -2.2989  0.6253 -1.6779
 5648TIP3    H216881   2.094   0.049   5.564  2.0506 -0.2407 -2.0095
 5649TIP3   OH216882   1.837   0.422   5.586  0.3687 -0.5142 -0.4896
 5649TIP3    H116883   1.931   0.424   5.567  0.1678 -0.1972 -1.5016
 5649TIP3    H216884   1.830   0.447   5.678  1.3702 -1.9426 -0.0121
 5650TIP3   OH216885   2.249   0.646   5.539  0.2237  0.1723  0.4203
 5650TIP3    H116886   2.272   0.724   5.590 -0.3543  0.3500  0.4063
 5650TIP3    H216887   2.277   0.573   5.594 -0.6833  0.3548  1.1428
 5651TIP3   OH216888   4.836   1.253   5.286 -0.0366 -0.1622  0.2451
 5651TIP3    H116889   4.806   1.322   5.227  0.8503  0.3684  0.4118
 5651TIP3    H216890   4.932   1.255   5.279  0.1226  0.3215  2.1587
 5652TIP3   OH216891   3.805   0.571   6.115  0.1522 -0.0309 -0.4760
 5652TIP3    H116892   3.773   0.603   6.199 -1.4263 -0.4031 -0.9219
 5652TIP3    H216893   3.758   0.623   6.050  0.5782 -0.4700 -1.1431
 5653TIP3   OH216894   3.109   0.825   4.200  0.7387  0.3909 -0.2982
 5653TIP3    H116895   3.137   0.792   4.285 -0.1272 -0.6836 -0.4180
 5653TIP3    H216896   3.191   0.843   4.153  1.2194  1.7560  1.0292
 5654TIP3   OH216897   4.297   0.363   6.134 -0.1155  0.4806 -0.0624
 5654TIP3    H116898   4.204   0.376   6.152 -0.0658 -0.0082  0.5462
 5654TIP3    H216899   4.337   0.447   6.153 -0.0834  0.0200  1.9942
 5655TIP3   OH216900   5.576   3.678   5.088  0.5456  0.2903  0.7594
 5655TIP3    H116901   5.585   3.761   5.042  1.0425  0.5579  1.3244
 5655TIP3    H216902   5.658   3.669   5.137 -0.0275  0.0941  1.7094
 5656TIP3   OH216903   0.419   7.573   3.761 -0.6376  0.0287 -0.3939
 5656TIP3    H116904   0.426   7.512   3.688  0.3920  0.9312 -1.0513
 5656TIP3    H216905   0.347   7.631   3.738 -0.2446  0.3784 -0.7269
 5657TIP3   OH216906   3.605   0.091   5.292  0.1983 -0.3308 -0.1533
 5657TIP3    H116907   3.599   0.165   5.354  0.6211  0.2082 -0.7544
 5657TIP3    H216908   3.645   0.128   5.214  2.1587 -1.6229  0.1987
 5658TIP3   OH216909   6.792   3.427   1.053 -0.0955 -0.0867 -0.1311
 5658TIP3    H116910   6.755   3.469   0.975  1.8309  1.0370 -0.4811
 5658TIP3    H216911   6.842   3.353   1.018  0.2913  0.0740  0.0810
 5659TIP3   OH216912   0.752   6.876   3.331 -0.2903 -0.4051 -0.2457
 5659TIP3    H116913   0.671   6.837   3.299  0.6180 -0.4309 -2.6057
 5659TIP3    H216914   0.758   6.848   3.422 -1.6078 -2.5448 -0.7941
 5660TIP3   OH216915   4.523   0.245   4.746  0.5067 -0.3361 -0.2436
 5660TIP3    H116916   4.434   0.276   4.732 -0.2248 -1.9457  0.7304
 5660TIP3    H216917   4.551   0.215   4.660 -0.2465 -0.7312 -0.3552
 5661TIP3   OH216918   3.390   1.421   6.862  0.5070  0.7447  0.1484
 5661TIP3    H116919   3.314   1.380   6.904 -0.2152  0.9886 -0.9102
 5661TIP3    H216920   3.454   1.351   6.855  0.4442  0.5750  1.1944
 5662TIP3   OH216921   4.203   0.962   6.286 -0.3368 -0.2150 -0.1840
 5662TIP3    H116922   4.146   1.021   6.236  0.3213 -0.0313 -0.7110
 5662TIP3    H216923   4.291   0.985   6.259  0.0196 -0.2422  0.9149
 5663TIP3   OH216924   1.592   7.541   3.524 -0.4116  0.7860  0.4796
 5663TIP3    H116925   1.625   7.624   3.559  3.8021 -0.6234  0.1384
 5663TIP3    H216926   1.553   7.497   3.600  1.2949  1.2521  1.6696
 5664TIP3   OH216927   0.681   7.647   5.068  0.7650  0.0253  0.2565
 5664TIP3    H116928   0.755   7.659   5.127  0.4107  1.0239  0.5106
 5664TIP3    H216929   0.606   7.680   5.117  0.0497 -1.4788  0.2183
 5665TIP3   OH216930   2.590   0.690   4.145  0.6118  0.1692  0.1066
 5665TIP3    H116931   2.555   0.603   4.166 -0.7263  0.6337 -0.0988
 5665TIP3    H216932   2.683   0.676   4.128  0.5305 -1.1220  0.6862
 5666TIP3   OH216933   7.899   3.443   0.573 -0.3045  0.0091  0.6242
 5666TIP3    H116934   7.887   3.349   0.585 -0.2486 -0.0659  0.0785
 5666TIP3    H216935   7.855   3.463   0.491 -2.2648  0.8552  1.8392
 5667TIP3   OH216936   1.695   2.543   6.425  0.7208 -0.2707  0.5436
 5667TIP3    H116937   1.682   2.461   6.377  2.6521 -1.3735  1.8466
 5667TIP3    H216938   1.652   2.609   6.371  0.8692 -1.8319 -1.5608
 5668TIP3   OH216939   4.537   1.679   1.723 -0.2423  0.2793 -0.1017
 5668TIP3    H116940   4.500   1.764   1.747  0.7756  0.6775  0.0729
 5668TIP3    H216941   4.582   1.649   1.801  1.1827  0.5408 -0.8150
 5669TIP3   OH216942   2.011   1.067   4.950  0.4448  0.2237  0.2778
 5669TIP3    H116943   2.027   1.008   5.024 -0.2142  0.6280  0.7434
 5669TIP3    H216944   2.069   1.142   4.966  1.2520 -0.2715 -0.2917
 5670TIP3   OH216945   4.044   0.099   5.858  0.3644  0.3546 -0.2766
 5670TIP3    H116946   4.067   0.090   5.950 -1.1827  1.3890  0.2393
 5670TIP3    H216947   4.086   0.180   5.830  0.3225  0.3661 -0.3072
 5671TIP3   OH216948   4.271   0.123   3.835  0.0471 -0.5295  0.2914
 5671TIP3    H116949   4.204   0.057   3.855 -1.0456  0.5073  0.0992
 5671TIP3    H216950   4.247   0.198   3.889  2.4344 -0.9497  2.0357
 5672TIP3   OH216951   1.484   1.317   5.262  0.5277 -0.0817 -0.1524
 5672TIP3    H116952   1.448   1.406   5.264  1.3393  0.3524 -2.5117
 5672TIP3    H216953   1.569   1.324   5.305  1.4971  0.7819 -2.1168
 5673TIP3   OH216954   5.598   0.819   4.499  0.2110  0.3290  0.0037
 5673TIP3    H116955   5.631   0.813   4.589  1.3917 -0.2876 -0.4688
 5673TIP3    H216956   5.528   0.754   4.495  0.7311 -0.2473  0.2244
 5674TIP3   OH216957   6.389   7.895   5.442 -0.1863  0.3704 -0.8153
 5674TIP3    H116958   6.408   7.974   5.493  2.8583 -0.8342  0.0727
 5674TIP3    H216959   6.394   7.923   5.351  0.3163  1.3242 -0.4987
 5675TIP3   OH216960   1.841   7.710   4.948 -0.3111 -0.8597  0.1129
 5675TIP3    H116961   1.759   7.754   4.969  0.3348  1.8341 -2.6440
 5675TIP3    H216962   1.865   7.744   4.861  4.3604 -0.5763  1.3894
 5676TIP3   OH216963   3.478   1.418   5.244 -0.9624 -0.0722  0.0697
 5676TIP3    H116964   3.507   1.506   5.269 -0.5089 -0.2708  0.2546
 5676TIP3    H216965   3.384   1.426   5.232 -0.7787  0.6862 -0.9537
 5677TIP3   OH216966   4.197   0.620   4.782 -0.4677 -0.2560 -0.1352
 5677TIP3    H116967   4.172   0.700   4.736  0.3791 -0.2725 -0.6391
 5677TIP3    H216968   4.116   0.568   4.787 -1.5410  1.5526  2.1554
 5678TIP3   OH216969   7.592   6.765   5.429 -0.3882  0.1402 -0.2209
 5678TIP3    H116970   7.609   6.749   5.336 -1.7714 -1.9914 -0.1361
 5678TIP3    H216971   7.639   6.695   5.475 -1.7513 -0.2964  0.5249
 5679TIP3   OH216972   7.301   5.267   0.075  0.3756  0.7454 -0.3467
 5679TIP3    H116973   7.339   5.319   0.146  1.0294  0.7764 -0.7115
 5679TIP3    H216974   7.344   5.300  -0.004 -0.9121  1.2396 -0.8572
 5680TIP3   OH216975   1.151   7.720   5.408  0.1614 -0.5357 -0.6501
 5680TIP3    H116976   1.121   7.809   5.393 -1.4422 -0.6712  1.5509
 5680TIP3    H216977   1.236   7.731   5.452 -0.6695 -0.0703  0.8598
 5681TIP3   OH216978   3.735   1.319   6.541  0.0931 -0.4953 -0.0632
 5681TIP3    H116979   3.650   1.360   6.524  1.1336  1.9452  0.4035
 5681TIP3    H216980   3.782   1.383   6.595  2.5247 -1.4488 -0.9880
 5682TIP3   OH216981   1.966   6.563   5.681  0.3925  0.3109  0.0734
 5682TIP3    H116982   1.927   6.615   5.610  1.9897  0.3781 -0.7891
 5682TIP3    H216983   2.050   6.534   5.645  0.6064 -0.8117  1.4575
 5683TIP3   OH216984   2.529   0.416   4.101  0.3703  0.2601  0.2735
 5683TIP3    H116985   2.577   0.394   4.021 -2.8082 -0.4055 -1.5520
 5683TIP3    H216986   2.553   0.348   4.163  1.6015 -0.1739 -0.6589
 5684TIP3   OH216987   2.613   0.056   5.645  0.3315 -1.1447  0.3642
 5684TIP3    H116988   2.642   0.069   5.736 -0.0272 -0.6537  0.4101
 5684TIP3    H216989   2.641  -0.033   5.624  2.9284 -0.3041 -0.0020
 5685TIP3   OH216990   1.778   7.866   4.721 -0.6181 -0.3242  0.6038
 5685TIP3    H116991   1.736   7.946   4.689 -0.2326  0.3514  1.7539
 5685TIP3    H216992   1.710   7.800   4.718 -0.8316 -0.0535 -0.7565
 5686TIP3   OH216993   6.740   4.898   0.865  0.3022 -0.3611 -0.1852
 5686TIP3    H116994   6.794   4.975   0.847  0.8097 -0.6587  0.0487
 5686TIP3    H216995   6.803   4.825   0.868 -0.3721 -1.0601 -2.2272
 5687TIP3   OH216996   7.266   7.152   5.798 -0.2862 -0.1102 -0.2185
 5687TIP3    H116997   7.277   7.057   5.806 -0.9081 -0.2980 -1.5358
 5687TIP3    H216998   7.235   7.166   5.709  0.3554  1.3938 -0.2246
 5688TIP3   OH216999   1.303   7.712   5.979 -0.2791  0.3465 -0.0001
 5688TIP3    H117000   1.355   7.675   6.049 -0.2098 -2.9383 -1.6850
 5688TIP3    H217001   1.214   7.681   5.996 -0.4416  0.3449 -0.8215
 5689TIP3   OH217002   7.564   7.724   4.474 -0.1974  0.0211  0.2723
 5689TIP3    H117003   7.618   7.799   4.450 -0.7288  0.1291 -0.5879
 5689TIP3    H217004   7.602   7.650   4.426 -1.8119  0.4077 -1.6646
 5690TIP3   OH217005   8.089   6.201   4.487 -0.1330 -0.4117 -0.1263
 5690TIP3    H117006   8.175   6.173   4.520 -0.0732 -1.4220 -1.0929
 5690TIP3    H217007   8.102   6.292   4.460  0.2014 -0.0486  1.2279
 5691TIP3   OH217008   2.314   7.173   6.518  0.2890 -0.4551  0.1071
 5691TIP3    H117009   2.229   7.149   6.554  1.7678 -3.1902  2.0169
 5691TIP3    H217010   2.302   7.261   6.482 -2.8884 -0.1527  1.7785
 5692TIP3   OH217011   4.050   2.982   5.469 -0.0660 -0.2972  0.2709
 5692TIP3    H117012   3.992   3.057   5.482 -0.5127 -0.3191 -1.4809
 5692TIP3    H217013   4.028   2.923   5.541 -0.6975  0.6430  0.8625
 5693TIP3   OH217014   6.327   4.169   0.444 -0.5091 -0.0614 -0.5629
 5693TIP3    H117015   6.309   4.232   0.375 -0.6344  0.2341 -0.2630
 5693TIP3    H217016   6.384   4.103   0.403 -0.1761  0.3763 -0.8086
 5694TIP3   OH217017   7.424   5.952   6.815  0.0491 -0.2449  0.6969
 5694TIP3    H117018   7.332   5.979   6.819  0.2059  0.3013  0.6402
 5694TIP3    H217019   7.422   5.859   6.839 -0.4899 -0.1747  0.9468
 5695TIP3   OH217020   0.424   5.817   0.279 -0.5084  1.3550 -0.0328
 5695TIP3    H117021   0.369   5.743   0.251  2.4600 -0.8702 -0.2211
 5695TIP3    H217022   0.457   5.792   0.365  2.1199  1.5353 -0.9486
 5696TIP3   OH217023   4.930   0.689   4.475  0.3246  0.2490  0.7043
 5696TIP3    H117024   4.908   0.780   4.498 -0.3211 -0.1912  1.9045
 5696TIP3    H217025   4.848   0.641   4.486  0.9586 -0.7054  1.3439
 5697TIP3   OH217026   3.488   7.688   6.893 -0.2289  0.4114 -0.3335
 5697TIP3    H117027   3.470   7.761   6.835  1.8169  1.0507 -0.2300
 5697TIP3    H217028   3.478   7.724   6.981  0.4494  0.4898 -0.2843
 5698TIP3   OH217029   2.767   1.840   3.470 -0.6392 -0.5809  0.6266
 5698TIP3    H117030   2.829   1.839   3.543  0.2354  0.2285 -0.0931
 5698TIP3    H217031   2.803   1.778   3.407 -1.1806 -0.9780  0.7049
 5699TIP3   OH217032   1.843   0.012   2.484 -0.1199  0.3497 -0.0937
 5699TIP3    H117033   1.826   0.084   2.546  2.0430  1.8846 -1.1905
 5699TIP3    H217034   1.919  -0.033   2.521  1.1079  1.2001 -1.4891
 5700TIP3   OH217035   0.685   1.261   6.009 -0.5695  0.0819  0.4631
 5700TIP3    H117036   0.744   1.335   6.022 -0.7117  0.6089 -1.8085
 5700TIP3    H217037   0.731   1.204   5.947 -0.9373 -1.2116  1.3574
 5701TIP3   OH217038   0.198   7.993   5.864  0.1643  0.0753  0.1807
 5701TIP3    H117039   0.254   8.071   5.856  0.7980 -0.1737  1.8760
 5701TIP3    H217040   0.243   7.926   5.812 -0.2206  0.7442 -1.0333
 5702TIP3   OH217041   6.155   5.702   0.273  0.0169 -0.3051  0.0199
 5702TIP3    H117042   6.126   5.697   0.182  1.5885  1.1868 -0.5822
 5702TIP3    H217043   6.235   5.754   0.270  0.7928 -1.3384  2.0998
 5703TIP3   OH217044   0.350   6.851   4.677  0.7659 -0.2377 -0.2673
 5703TIP3    H117045   0.261   6.877   4.655  0.7017  0.2878  0.5778
 5703TIP3    H217046   0.362   6.765   4.636 -0.2008 -0.4112 -0.1763
 5704TIP3   OH217047   3.591   2.698   5.724  0.6870 -0.2184  0.4245
 5704TIP3    H117048   3.523   2.747   5.677  1.0544  0.2269  0.3539
 5704TIP3    H217049   3.600   2.617   5.675 -0.3182 -0.6060  0.8575
 5705TIP3   OH217050   1.469   7.105   3.975 -0.0882  0.2446  0.1343
 5705TIP3    H117051   1.380   7.139   3.982 -0.4047 -0.5005 -0.3152
 5705TIP3    H217052   1.521   7.182   3.949 -0.5700  0.7031  0.5008
 5706TIP3   OH217053   3.789   1.386   4.133 -0.4961  0.4219  0.0836
 5706TIP3    H117054   3.753   1.471   4.106 -1.3354 -0.7510 -2.6230
 5706TIP3    H217055   3.871   1.379   4.084  0.5746  0.5304  1.8362
 5707TIP3   OH217056   5.037   0.187   5.331  0.2408 -0.6733  0.0092
 5707TIP3    H117057   4.976   0.173   5.403  0.4050  1.4957  0.6173
 5707TIP3    H217058   5.020   0.116   5.270 -2.6901 -0.2663  0.3161
 5708TIP3   OH217059   1.588   1.766   6.681 -0.2706  0.3490 -0.0916
 5708TIP3    H117060   1.580   1.688   6.736 -0.0292 -0.2324 -0.8667
 5708TIP3    H217061   1.652   1.821   6.727  0.2950 -0.3475 -0.0391
 5709TIP3   OH217062   0.728   6.795   4.311 -0.5288 -0.0169  0.2386
 5709TIP3    H117063   0.636   6.814   4.294 -1.2033 -1.8395  1.6040
 5709TIP3    H217064   0.745   6.834   4.397  0.0599  0.5246 -0.1163
 5710TIP3   OH217065   3.822   0.864   2.810 -0.6018  0.0878  0.1528
 5710TIP3    H117066   3.859   0.930   2.869  0.0772 -1.6149  1.6459
 5710TIP3    H217067   3.822   0.783   2.861  0.4509 -1.5270 -2.3443
 5711TIP3   OH217068   1.631   6.889   4.038  0.8042 -0.3623 -0.6378
 5711TIP3    H117069   1.692   6.940   4.091 -0.4305 -0.4285  0.8841
 5711TIP3    H217070   1.567   6.954   4.006  0.4039 -0.6191 -0.3731
 5712TIP3   OH217071   2.405   0.822   5.174  0.5986 -0.0859 -0.1448
 5712TIP3    H117072   2.427   0.872   5.096  0.1190 -0.4981 -0.5438
 5712TIP3    H217073   2.460   0.745   5.170  0.4883 -0.1648 -0.1358
 5713TIP3   OH217074   1.124   1.100   6.842 -0.3051  0.0385 -0.8902
 5713TIP3    H117075   1.091   1.188   6.822 -0.9513  0.0803  0.2641
 5713TIP3    H217076   1.171   1.073   6.764  1.7253  2.2744 -0.4897
 5714TIP3   OH217077   1.389   0.381   4.839  0.4892 -0.2937  0.1974
 5714TIP3    H117078   1.393   0.472   4.809  0.3840 -0.5029 -0.4683
 5714TIP3    H217079   1.480   0.357   4.855  0.4626  0.1326  1.0028
 5715TIP3   OH217080   1.304   7.925   5.611  0.3081  0.0249  0.0944
 5715TIP3    H117081   1.366   7.978   5.562 -1.0545  0.8117 -0.8025
 5715TIP3    H217082   1.330   7.834   5.593  0.2719  0.3222 -1.5021
 5716TIP3   OH217083   1.995   0.712   5.573 -0.0151 -0.5082  0.2979
 5716TIP3    H117084   1.965   0.659   5.647 -0.0584 -1.4680 -0.3879
 5716TIP3    H217085   2.080   0.675   5.549 -1.3728 -2.2530 -2.0785
 5717TIP3   OH217086   0.616   6.729   6.182  0.4933  0.0928 -0.3910
 5717TIP3    H117087   0.528   6.744   6.216  1.5957  1.6447  1.9873
 5717TIP3    H217088   0.604   6.713   6.088 -2.3786 -0.7586  0.0879
 5718TIP3   OH217089   8.119   7.420   6.288  0.3301 -0.0190  0.1799
 5718TIP3    H117090   8.205   7.379   6.279 -0.1235 -1.1509  0.9284
 5718TIP3    H217091   8.058   7.357   6.251  0.0419  1.8421 -2.6740
 5719TIP3   OH217092   8.156   7.683   6.325  0.0196 -0.5521 -0.0413
 5719TIP3    H117093   8.099   7.704   6.399 -0.2519 -2.1755  0.2465
 5719TIP3    H217094   8.135   7.591   6.305  2.3909 -1.1217 -0.0501
 5720TIP3   OH217095   0.169   7.340   5.571 -0.0198 -0.1079 -0.4341
 5720TIP3    H117096   0.125   7.356   5.488  0.1745 -0.7974 -0.6731
 5720TIP3    H217097   0.246   7.397   5.569 -0.3972  0.3994 -0.4212
 5721TIP3   OH217098   7.787   7.367   3.308 -0.5826 -0.4616 -0.7316
 5721TIP3    H117099   7.863   7.382   3.251  0.7597  1.6781  1.5249
 5721TIP3    H217100   7.804   7.283   3.350 -0.6761 -1.1565 -2.0683
 5722TIP3   OH217101   7.659   7.626   3.158  0.4529  0.3990  0.0447
 5722TIP3    H117102   7.711   7.558   3.115  1.8175 -1.0184  3.6944
 5722TIP3    H217103   7.722   7.696   3.176  0.3552  0.1239  1.4784
 5723TIP3   OH217104   3.799   0.889   3.303  0.2145  0.0256 -0.0138
 5723TIP3    H117105   3.764   0.876   3.215 -0.1833 -1.9257  0.3927
 5723TIP3    H217106   3.877   0.943   3.291  1.0537 -1.5349 -1.7490
 5724TIP3   OH217107   2.100   6.095   4.766  0.3643  0.7333 -0.3834
 5724TIP3    H117108   2.115   6.173   4.820 -0.3995 -1.3886  3.0150
 5724TIP3    H217109   2.186   6.052   4.763 -0.1375 -0.4016  1.2052
 5725TIP3   OH217110   3.649   0.710   5.784 -0.3230  0.1526 -0.0254
 5725TIP3    H117111   3.593   0.697   5.861  0.5763 -1.5797  0.3702
 5725TIP3    H217112   3.658   0.623   5.746  2.8592  0.1820  0.4711
 5726TIP3   OH217113   1.090   0.016   5.231  0.3617  0.4995 -0.2914
 5726TIP3    H117114   1.138   0.099   5.234 -1.5651  1.5947  1.9544
 5726TIP3    H217115   0.998   0.040   5.242 -0.3595 -1.8502 -0.7415
 5727TIP3   OH217116   0.337   7.024   6.530  0.1616  0.1014  0.1009
 5727TIP3    H117117   0.361   7.000   6.440  2.0772 -0.1548  0.6486
 5727TIP3    H217118   0.403   7.087   6.556 -0.6432  0.5100  1.1861
 5728TIP3   OH217119   0.739   7.000   4.845 -0.1801 -0.4746 -0.0243
 5728TIP3    H117120   0.713   7.073   4.788  0.0957 -0.4325 -0.0999
 5728TIP3    H217121   0.821   7.030   4.885 -0.1466 -0.6821  0.0625
 5729TIP3   OH217122   1.296   7.579   6.467 -0.3203 -0.0911  0.3909
 5729TIP3    H117123   1.264   7.638   6.399  0.1348  0.1706  0.4032
 5729TIP3    H217124   1.293   7.492   6.426 -2.3311 -0.2691  0.8352
 5730TIP3   OH217125   3.576   2.577   3.664 -0.6451  0.1852  0.4231
 5730TIP3    H117126   3.530   2.647   3.616 -0.8184 -1.9016 -2.5791
 5730TIP3    H217127   3.506   2.515   3.687  0.2076 -1.6367 -1.7322
 5731TIP3   OH217128   2.573   1.192   2.226 -0.2603 -0.7046  0.0443
 5731TIP3    H117129   2.564   1.257   2.156 -0.1741 -0.2099  0.4871
 5731TIP3    H217130   2.649   1.221   2.276  0.7095 -2.0084 -0.6523
 5732TIP3   OH217131   0.927   0.462   4.743 -0.2672  0.4493  0.0037
 5732TIP3    H117132   0.951   0.387   4.798 -0.0860  0.4660 -0.0515
 5732TIP3    H217133   0.857   0.429   4.686  0.2420  0.1460 -0.4460
 5733TIP3   OH217134   4.294   5.009   0.162  0.0111  0.0113 -0.5201
 5733TIP3    H117135   4.362   5.055   0.212  0.1517  0.4852 -1.1447
 5733TIP3    H217136   4.329   5.004   0.073 -0.0961 -1.1294 -0.5019
 5734TIP3   OH217137   2.660   1.529   2.528 -0.2648  0.5194  0.2244
 5734TIP3    H117138   2.642   1.505   2.619 -1.1699  1.3334  0.2720
 5734TIP3    H217139   2.739   1.584   2.532  2.2496 -2.9070  0.0410
 5735TIP3   OH217140   3.138   2.487   5.161  0.3226 -0.2168 -0.4669
 5735TIP3    H117141   3.133   2.391   5.153 -1.2547 -0.3199  1.3491
 5735TIP3    H217142   3.163   2.502   5.252  2.3428  1.0989 -1.2089
 5736TIP3   OH217143   0.840   7.367   4.330  0.0021  0.1326  0.4268
 5736TIP3    H117144   0.759   7.414   4.311 -2.5623 -4.1378  0.3152
 5736TIP3    H217145   0.899   7.392   4.259 -2.4980  0.3703 -1.6449
 5737TIP3   OH217146   7.704   5.538   0.334 -0.5042 -0.5255  0.0267
 5737TIP3    H117147   7.680   5.574   0.419  0.2730  0.2438 -0.0702
 5737TIP3    H217148   7.770   5.472   0.354 -1.9411 -1.9164  0.2060
 5738TIP3   OH217149   8.246   5.789   3.682 -0.0455 -0.4992 -1.0978
 5738TIP3    H117150   8.151   5.802   3.675 -0.3786 -2.2581 -0.1959
 5738TIP3    H217151   8.282   5.835   3.606 -1.6112  0.2520 -1.4125
 5739TIP3   OH217152   1.554   7.318   6.149 -0.4317  0.5656 -0.2820
 5739TIP3    H117153   1.594   7.291   6.066  1.4560  0.3813  0.6469
 5739TIP3    H217154   1.470   7.273   6.152 -0.2073  0.0314 -1.7714
 5740TIP3   OH217155   4.618   0.917   4.352 -0.0963 -0.5662 -0.7164
 5740TIP3    H117156   4.571   0.842   4.387  0.5001  0.1545  1.7256
 5740TIP3    H217157   4.562   0.992   4.371 -0.1791 -0.2542 -2.1407
 5741TIP3   OH217158   4.229   3.381   4.097  0.4442  0.0958  0.5955
 5741TIP3    H117159   4.220   3.473   4.072  0.6128  0.3578  1.5133
 5741TIP3    H217160   4.152   3.363   4.151  0.6127 -0.1995  0.7356
 5742TIP3   OH217161   1.980   6.879   6.094  0.3047 -0.2508 -0.1664
 5742TIP3    H117162   1.971   6.960   6.044 -0.7992  0.1200  0.6113
 5742TIP3    H217163   2.074   6.864   6.099  0.4738  0.5036 -1.0844
 5743TIP3   OH217164   1.753   1.037   5.283 -0.0077 -0.0223 -0.4085
 5743TIP3    H117165   1.734   0.973   5.214  0.8041 -0.3287 -0.3483
 5743TIP3    H217166   1.743   0.989   5.365  0.2349  0.0226 -0.3516
 5744TIP3   OH217167   7.964   7.198   6.612  0.0373  0.4497 -0.5121
 5744TIP3    H117168   8.016   7.121   6.589  0.4728  1.1001 -1.7805
 5744TIP3    H217169   7.995   7.224   6.699  1.4211  0.4698 -0.9999
 5745TIP3   OH217170   1.227   7.240   4.001 -0.4250  0.6159 -0.1035
 5745TIP3    H117171   1.244   7.306   4.068 -0.3558 -0.9768  1.4678
 5745TIP3    H217172   1.167   7.179   4.042 -0.7074 -0.1573 -1.6433
 5746TIP3   OH217173   2.745   7.548   5.023  0.5472  0.0130 -0.1529
 5746TIP3    H117174   2.689   7.538   4.947 -0.0988 -2.5622  0.6279
 5746TIP3    H217175   2.832   7.522   4.993  0.3811 -0.5527 -0.1564
 5747TIP3   OH217176   0.929   7.346   3.304  0.6013 -0.1088 -0.6055
 5747TIP3    H117177   1.023   7.334   3.296  0.2205 -2.7661 -1.6363
 5747TIP3    H217178   0.918   7.408   3.376  3.0753 -0.9925  0.5559
 5748TIP3   OH217179   7.958   7.187   5.527 -0.0013  0.8506 -0.0090
 5748TIP3    H117180   7.955   7.100   5.568  3.6200  0.4773 -0.3466
 5748TIP3    H217181   7.975   7.247   5.600 -2.0517  1.2705  0.1591
 5749TIP3   OH217182   1.458   7.951   6.446  0.4111 -0.3219 -0.4190
 5749TIP3    H117183   1.429   7.986   6.530 -0.5470 -0.3813 -0.7206
 5749TIP3    H217184   1.499   8.026   6.402 -2.2662  0.6685 -1.3581
 5750TIP3   OH217185   8.144   5.015   2.405 -0.3247 -0.2875  0.0502
 5750TIP3    H117186   8.227   5.012   2.356 -0.6968  0.6971 -0.6456
 5750TIP3    H217187   8.082   4.966   2.350  0.3172 -3.0011  1.6320
 5751TIP3   OH217188   3.967   0.809   3.625 -0.2175 -0.5268 -0.3580
 5751TIP3    H117189   3.946   0.756   3.702  0.1662  0.1465  0.2123
 5751TIP3    H217190   3.881   0.826   3.585 -0.3269 -1.7022 -0.6333
 5752TIP3   OH217191   2.178   0.035   6.151 -0.9410  0.2603 -0.5723
 5752TIP3    H117192   2.117  -0.007   6.212 -0.8759 -1.0419 -1.3861
 5752TIP3    H217193   2.264   0.001   6.175 -0.8320  0.2502 -0.9696
 5753TIP3   OH217194   7.858   7.685   6.164  0.6140 -0.7110  0.1899
 5753TIP3    H117195   7.903   7.618   6.112  1.8437 -0.1199  0.4695
 5753TIP3    H217196   7.908   7.765   6.148 -2.6760  0.9243 -2.6537
 5754TIP3   OH217197   4.276   0.292   5.355 -0.0191 -1.0898 -0.2518
 5754TIP3    H117198   4.240   0.255   5.274 -1.6609 -1.4722  0.6351
 5754TIP3    H217199   4.202   0.295   5.415  0.7895  0.7876  0.7025
 5755TIP3   OH217200   4.219   1.169   6.885  0.3875 -0.4412  0.3233
 5755TIP3    H117201   4.291   1.209   6.932  0.4482 -0.6900  0.4438
 5755TIP3    H217202   4.259   1.101   6.831  0.7703  2.1088 -2.7637
 5756TIP3   OH217203   6.265   4.883   0.254 -0.2465  0.1654  0.7623
 5756TIP3    H117204   6.237   4.852   0.341  0.5007 -2.4599  0.0972
 5756TIP3    H217205   6.183   4.901   0.208 -0.7721 -2.4835  0.5988
 5757TIP3   OH217206   0.599   7.526   3.959 -0.0779 -0.0447 -0.3892
 5757TIP3    H117207   0.617   7.441   3.919 -1.0266 -0.0118 -0.9058
 5757TIP3    H217208   0.518   7.556   3.917  0.7298  1.5339 -0.8540
 5758TIP3   OH217209   2.816   0.875   6.025  0.6348  0.2711  0.1516
 5758TIP3    H117210   2.836   0.897   5.935  2.4500  1.8363  0.9169
 5758TIP3    H217211   2.804   0.959   6.069 -0.7089 -0.4816  1.2807
 5759TIP3   OH217212   2.225   7.940   5.205 -0.3371 -0.4164  0.4364
 5759TIP3    H117213   2.309   7.955   5.247  1.4645 -1.7071 -2.4921
 5759TIP3    H217214   2.178   7.882   5.264  1.3838 -0.7491  1.5021
 5760TIP3   OH217215   3.223   1.837   5.827 -0.6532  0.0409  0.3933
 5760TIP3    H117216   3.299   1.889   5.854 -0.5416 -0.1723  0.4924
 5760TIP3    H217217   3.172   1.896   5.771  0.1086 -0.1439 -0.5178
 5761TIP3   OH217218   4.476   1.146   4.390  0.3601 -0.5543 -0.3357
 5761TIP3    H117219   4.519   1.217   4.342  0.0012 -1.1058 -1.5020
 5761TIP3    H217220   4.386   1.145   4.356 -0.0146 -0.7026  0.6391
 5762TIP3   OH217221   3.873   2.253   5.230  0.2654  0.4459 -0.1501
 5762TIP3    H117222   3.872   2.276   5.323  0.4081 -3.7865  0.9935
 5762TIP3    H217223   3.966   2.247   5.209  0.2325 -0.8708  0.0621
 5763TIP3   OH217224   3.368   2.302   4.935 -0.1225 -0.0616  0.4607
 5763TIP3    H117225   3.287   2.285   4.984 -0.0845 -0.1240  0.5020
 5763TIP3    H217226   3.343   2.368   4.870 -0.7057 -1.5288 -0.8521
 5764TIP3   OH217227   4.186   0.160   5.092 -0.1225  0.5143 -0.4756
 5764TIP3    H117228   4.147   0.080   5.128  1.1092  0.8590  1.7370
 5764TIP3    H217229   4.272   0.133   5.061  0.0774  0.8466 -0.2218
 5765TIP3   OH217230   1.810   7.665   4.494 -0.4556 -0.3649  0.1791
 5765TIP3    H117231   1.729   7.650   4.544 -0.0280  0.4101  1.1174
 5765TIP3    H217232   1.876   7.686   4.561  0.2977 -0.0597 -0.6544
 5766TIP3   OH217233   8.154   7.779   4.348 -0.0918  0.3039 -0.1381
 5766TIP3    H117234   8.208   7.810   4.421 -0.3613  0.5285 -0.0372
 5766TIP3    H217235   8.183   7.830   4.273  0.8268 -0.5610 -0.3892
 5767TIP3   OH217236   6.923   6.427   0.049  0.2498 -0.3349  0.4234
 5767TIP3    H117237   6.871   6.436  -0.031  0.6465  0.5879  0.2738
 5767TIP3    H217238   6.901   6.503   0.102  1.3052 -0.0370  0.4469
 5768TIP3   OH217239   0.511   0.579   5.594 -0.0801  0.2318  0.5795
 5768TIP3    H117240   0.528   0.506   5.654 -1.7666 -0.7639 -0.1316
 5768TIP3    H217241   0.426   0.612   5.620 -0.1153  0.8088 -0.2575
 5769TIP3   OH217242   8.337   4.043   1.578  0.0889 -0.3396 -0.2707
 5769TIP3    H117243   8.364   4.118   1.631 -1.1562 -0.0062 -0.0865
 5769TIP3    H217244   8.409   3.981   1.585  1.0633  0.7705 -0.2857
 5770TIP3   OH217245   0.320   3.268   1.909  0.3046  0.0073  0.0693
 5770TIP3    H117246   0.411   3.261   1.940  1.3994  1.7616 -2.6093
 5770TIP3    H217247   0.289   3.350   1.948  0.7916  0.8110 -1.2011
 5771TIP3   OH217248   5.803   2.577   4.375 -0.0028  0.1456 -0.1954
 5771TIP3    H117249   5.718   2.620   4.384  0.3691  1.0441 -0.8343
 5771TIP3    H217250   5.867   2.645   4.396  0.5858 -0.2201 -0.7532
 5772TIP3   OH217251   3.432   1.493   5.987 -0.4444  0.3318  0.0520
 5772TIP3    H117252   3.392   1.564   6.038  0.5181  0.1873  1.0221
 5772TIP3    H217253   3.416   1.414   6.039  1.3371  0.3169  0.5839
 5773TIP3   OH217254   7.593   4.085   0.258  0.2505  0.7446  0.0973
 5773TIP3    H117255   7.682   4.120   0.262  0.7885 -0.5050 -0.6934
 5773TIP3    H217256   7.584   4.033   0.339  1.3784 -1.7323 -1.3161
 5774TIP3   OH217257   5.586   4.899   0.340 -0.2306 -0.1245 -0.2212
 5774TIP3    H117258   5.496   4.933   0.343 -0.4358 -0.7745  1.1108
 5774TIP3    H217259   5.619   4.930   0.256 -1.5564  0.4895 -0.5455
 5775TIP3   OH217260   5.458   2.110   0.014  0.4490 -0.3769  0.0874
 5775TIP3    H117261   5.412   2.058   0.080  0.2371  3.2390  2.9378
 5775TIP3    H217262   5.389   2.145  -0.042  0.1741  0.6243  1.0424
 5776TIP3   OH217263   2.348   0.927   5.652 -0.0339 -0.2989 -0.0938
 5776TIP3    H117264   2.375   0.918   5.560 -0.1701 -1.8459 -0.0050
 5776TIP3    H217265   2.421   0.891   5.702 -0.5674 -0.8340  0.3208
 5777TIP3   OH217266   6.023   5.177   1.005  0.2860 -0.1215 -0.6171
 5777TIP3    H117267   6.064   5.184   0.919  2.1349 -2.3702  0.0273
 5777TIP3    H217268   6.084   5.220   1.065  1.0673 -2.1976  0.1321
 5778TIP3   OH217269   2.925   1.722   6.961 -0.3423 -0.6943  0.4005
 5778TIP3    H117270   2.843   1.682   6.992 -1.3368  1.0041 -0.0007
 5778TIP3    H217271   2.926   1.703   6.867 -0.1763 -0.8729  0.4377
 5779TIP3   OH217272   6.536   4.990   0.173  0.2847 -0.5066  1.0544
 5779TIP3    H117273   6.441   4.992   0.187  0.1322  0.6080 -0.0199
 5779TIP3    H217274   6.545   4.978   0.078  1.2297 -1.3935  1.2461
 5780TIP3   OH217275   1.950   1.338   6.019  0.5634  0.2492 -0.2270
 5780TIP3    H117276   1.941   1.371   5.929 -0.4747  1.9471  0.4792
 5780TIP3    H217277   1.861   1.327   6.050  0.9162 -0.7101  0.4730
 5781TIP3   OH217278   2.751   2.442   5.971  0.4936 -0.4483 -0.1146
 5781TIP3    H117279   2.719   2.378   6.035 -0.8995  0.3784  0.0584
 5781TIP3    H217280   2.752   2.525   6.019 -0.1888  0.1105 -1.0317
 5782TIP3   OH217281   0.718   6.283   3.897  0.0623 -0.0331  0.3294
 5782TIP3    H117282   0.658   6.209   3.893 -0.2421  0.2491 -0.5243
 5782TIP3    H217283   0.786   6.262   3.834 -0.0475  0.4349  0.0546
 5783TIP3   OH217284   6.440   5.101   0.654 -0.1012  0.3271  0.1576
 5783TIP3    H117285   6.472   5.020   0.612 -0.0447  0.3823  0.0928
 5783TIP3    H217286   6.394   5.147   0.583  2.7425  1.9395 -0.6766
 5784TIP3   OH217287   1.813   1.904   6.760 -0.8808  0.4908  0.2864
 5784TIP3    H117288   1.775   1.981   6.717  0.1257  0.5721 -0.4831
 5784TIP3    H217289   1.851   1.939   6.841 -1.5950  0.5747  0.5867
 5785TIP3   OH217290   2.838   0.245   5.581 -0.1605  0.4518 -0.5740
 5785TIP3    H117291   2.899   0.174   5.559 -1.4356 -0.8353 -0.0667
 5785TIP3    H217292   2.752   0.212   5.554 -1.1845  0.5956  2.2505
 5786TIP3   OH217293   2.985   0.612   6.584 -0.6836 -0.0187 -0.0726
 5786TIP3    H117294   2.952   0.678   6.523  0.8855  1.9159  1.0937
 5786TIP3    H217295   3.037   0.662   6.647 -0.0699 -2.3000  1.2853
 5787TIP3   OH217296   1.066   1.087   5.698  0.2247  0.1244 -0.0780
 5787TIP3    H117297   0.997   1.141   5.737 -0.3159 -0.6651  0.0613
 5787TIP3    H217298   1.128   1.072   5.769 -0.7180 -1.2450  0.4909
 5788TIP3   OH217299   2.195   0.676   6.710 -0.3236 -0.0605 -0.0046
 5788TIP3    H117300   2.197   0.605   6.774 -1.0571 -0.3737 -0.3320
 5788TIP3    H217301   2.145   0.746   6.754  0.1997  0.1726  0.2272
 5789TIP3   OH217302   2.362   0.453   4.427 -0.1388  0.5879  0.2764
 5789TIP3    H117303   2.387   0.368   4.464 -1.1755  0.5452  0.9186
 5789TIP3    H217304   2.444   0.502   4.422  0.5679 -0.6627 -0.6761
 5790TIP3   OH217305   1.015   7.492   5.489  0.1570 -0.0531  0.7756
 5790TIP3    H117306   1.087   7.443   5.530  0.4482 -0.9779 -0.8005
 5790TIP3    H217307   1.053   7.579   5.470  0.6699 -0.3213  0.5566
 5791TIP3   OH217308   3.750   1.564   5.169 -0.1962 -0.1625 -0.4745
 5791TIP3    H117309   3.758   1.497   5.237  0.9471  1.5866  1.1805
 5791TIP3    H217310   3.840   1.590   5.151 -0.5633  0.1221 -1.9485
 5792TIP3   OH217311   2.367   1.834   3.217 -0.8014 -0.2499 -0.3262
 5792TIP3    H117312   2.352   1.871   3.130  0.4152  2.5375  0.5976
 5792TIP3    H217313   2.362   1.739   3.204 -0.1020  0.1020 -3.5052
 5793TIP3   OH217314   2.894   0.384   6.025  0.1496  0.0280 -0.2322
 5793TIP3    H117315   2.885   0.360   6.117  0.8618 -0.4873 -0.2904
 5793TIP3    H217316   2.829   0.453   6.011  0.9962  1.0829  1.0004
 5794TIP3   OH217317   4.018   0.215   3.565 -0.1321 -0.4927  0.5290
 5794TIP3    H117318   4.006   0.224   3.660 -0.8523 -0.5137  0.4459
 5794TIP3    H217319   4.053   0.300   3.538  0.2432 -0.5472  0.8421
 5795TIP3   OH217320   4.261   7.760   3.961 -0.1609 -0.4259 -0.7899
 5795TIP3    H117321   4.253   7.723   3.874 -0.6590 -0.3982 -0.7563
 5795TIP3    H217322   4.177   7.804   3.977  0.1742  0.1417 -0.5690
 5796TIP3   OH217323   3.093   1.723   6.637  0.1506 -0.4059 -0.5254
 5796TIP3    H117324   3.087   1.798   6.696  1.1806 -0.7303  0.0189
 5796TIP3    H217325   3.015   1.671   6.656  0.1749 -0.2060  0.1390
 5797TIP3   OH217326   6.011   0.521   4.721 -0.0763  0.5220 -0.1119
 5797TIP3    H117327   6.003   0.426   4.722 -0.8336  0.5379 -1.6492
 5797TIP3    H217328   5.923   0.552   4.745 -0.8371  0.7896 -3.0491
 5798TIP3   OH217329   5.367   2.837   4.882  0.1259  0.4989 -0.1839
 5798TIP3    H117330   5.308   2.853   4.809  2.1559  1.0041 -1.7614
 5798TIP3    H217331   5.399   2.925   4.906 -0.0728  0.2770  0.9317
 5799TIP3   OH217332   4.139   2.769   3.635  0.1449 -0.0015  0.3647
 5799TIP3    H117333   4.064   2.710   3.644 -0.2114  0.7747  2.9816
 5799TIP3    H217334   4.215   2.714   3.653  0.0157 -0.2531  0.1441
 5800TIP3   OH217335   2.897   2.751   4.700 -0.9848  0.2857 -0.1503
 5800TIP3    H117336   2.892   2.824   4.638 -0.7875  1.4819  1.2363
 5800TIP3    H217337   2.832   2.771   4.767  1.1117  0.6644  1.7995
 5801TIP3   OH217338   5.726   1.433   4.503 -0.3273 -0.1440 -0.1723
 5801TIP3    H117339   5.715   1.527   4.518 -1.0508 -0.3758  0.8142
 5801TIP3    H217340   5.820   1.420   4.504 -0.0448  1.1113 -3.8251
 5802TIP3   OH217341   3.141   7.845   4.576  0.4368 -0.4081 -0.5491
 5802TIP3    H117342   3.091   7.765   4.562  1.5812 -0.7171 -3.1599
 5802TIP3    H217343   3.093   7.912   4.527 -0.4114  0.4893  1.4654
 5803TIP3   OH217344   5.814   0.144   6.472 -0.7551 -0.1882  0.8300
 5803TIP3    H117345   5.766   0.217   6.511 -1.2349 -0.0137 -0.0783
 5803TIP3    H217346   5.803   0.072   6.534 -2.2713 -0.1750  0.6102
 5804TIP3   OH217347   5.787   0.145   5.360  0.3182  0.2488  0.0615
 5804TIP3    H117348   5.834   0.066   5.333 -1.0643 -1.1200  1.5512
 5804TIP3    H217349   5.751   0.181   5.279 -0.1706 -1.4094 -0.4686
 5805TIP3   OH217350   6.069   2.122   5.988  0.2715 -0.6099  0.3942
 5805TIP3    H117351   6.126   2.199   5.990 -1.2844  0.5542  1.1456
 5805TIP3    H217352   6.075   2.085   6.076 -0.2653 -0.3646  0.5395
 5806TIP3   OH217353   2.768   7.124   4.401  0.2547  0.3781 -0.3661
 5806TIP3    H117354   2.793   7.211   4.434 -0.3353  0.8885 -1.2371
 5806TIP3    H217355   2.714   7.087   4.470  1.9833 -0.0370  0.7942
 5807TIP3   OH217356   5.323   2.259   4.214  0.1636  0.5340  0.3853
 5807TIP3    H117357   5.393   2.279   4.276  0.8178  0.6918 -0.3891
 5807TIP3    H217358   5.274   2.340   4.206  0.1113  0.5279  0.6620
 5808TIP3   OH217359   5.068   3.014   5.850  0.4346 -0.1403  0.1906
 5808TIP3    H117360   5.015   2.942   5.884  2.9735 -1.7796  0.8233
 5808TIP3    H217361   5.039   3.025   5.760 -0.9332 -0.9919  0.5055
 5809TIP3   OH217362   6.499   1.025   6.121 -0.1895 -0.2410 -0.2331
 5809TIP3    H117363   6.556   1.101   6.116 -0.0152 -0.3778 -0.3061
 5809TIP3    H217364   6.411   1.060   6.106 -0.1520  0.0039  0.1054
 5810TIP3   OH217365   5.264   1.622   3.868 -0.2278 -0.2369 -0.2482
 5810TIP3    H117366   5.349   1.584   3.891  0.1459 -0.0073 -1.2042
 5810TIP3    H217367   5.286   1.697   3.812 -1.0399  0.1175 -0.0935
 5811TIP3   OH217368   2.345   6.409   5.801 -0.0187 -0.1618  0.1752
 5811TIP3    H117369   2.296   6.490   5.814 -0.8960 -0.4801 -1.1434
 5811TIP3    H217370   2.298   6.344   5.852 -0.3293 -0.2246 -0.1910
 5812TIP3   OH217371   0.505   7.234   6.618 -0.1191  0.5817 -0.4077
 5812TIP3    H117372   0.545   7.309   6.663 -1.7795  0.3758  1.4801
 5812TIP3    H217373   0.568   7.163   6.628  0.2380  0.9810  0.1900
 5813TIP3   OH217374   3.349   0.414   5.922 -0.1597  0.3653 -0.2485
 5813TIP3    H117375   3.272   0.363   5.897 -0.2457  0.2559  0.2225
 5813TIP3    H217376   3.423   0.357   5.901 -0.3149 -0.6749  1.8452
 5814TIP3   OH217377   5.537   2.708   4.714  0.0988 -0.2444  0.2902
 5814TIP3    H117378   5.619   2.728   4.759 -0.2129 -1.0663  1.2535
 5814TIP3    H217379   5.469   2.728   4.779 -0.4633  0.3693 -0.4759
 5815TIP3   OH217380   6.106   0.535   5.186  0.5947  0.6330 -0.0387
 5815TIP3    H117381   6.145   0.506   5.268 -1.6148 -0.4702  0.6601
 5815TIP3    H217382   6.083   0.627   5.201  0.8903  0.6541  0.2929
 5816TIP3   OH217383   6.274   0.545   4.278  0.3197  0.1469  0.0303
 5816TIP3    H117384   6.205   0.491   4.238 -0.1507  1.6992 -1.3105
 5816TIP3    H217385   6.233   0.582   4.357 -1.2593  2.9813 -2.0102
 5817TIP3   OH217386   2.879   0.786   6.409 -0.6000  0.0757 -0.3367
 5817TIP3    H117387   2.923   0.819   6.331 -0.8366  0.7215 -0.2038
 5817TIP3    H217388   2.786   0.804   6.394 -0.8878 -1.6608 -0.8038
 5818TIP3   OH217389   4.770   0.001   4.897  0.2344 -0.1463 -0.0111
 5818TIP3    H117390   4.708  -0.053   4.848 -1.8208  1.1534  1.0930
 5818TIP3    H217391   4.812   0.055   4.830 -0.6231 -0.2579 -0.6500
 5819TIP3   OH217392   3.064   0.230   5.256  0.0721 -0.1089  0.0055
 5819TIP3    H117393   2.974   0.248   5.283 -0.9392 -1.1839 -2.4401
 5819TIP3    H217394   3.065   0.135   5.238  1.9512 -0.2812  0.8937
 5820TIP3   OH217395   3.458   0.986   5.861  0.6565  0.2673  0.1138
 5820TIP3    H117396   3.488   0.897   5.843  1.6003  0.1223  2.1874
 5820TIP3    H217397   3.453   1.028   5.775  1.5775 -1.3549 -0.7592
 5821TIP3   OH217398   6.127   1.642   4.673  0.0530  0.0545 -0.0884
 5821TIP3    H117399   6.175   1.677   4.598  0.1026 -0.2378 -0.1960
 5821TIP3    H217400   6.191   1.588   4.719  0.1027  0.4727  0.3329
 5822TIP3   OH217401   3.545   7.269   5.044 -0.4516 -0.5601 -0.4795
 5822TIP3    H117402   3.640   7.277   5.043 -0.5466  0.9573  0.9333
 5822TIP3    H217403   3.515   7.323   4.971 -0.3407  1.1628  0.7045
 5823TIP3   OH217404   5.096   1.426   2.609  0.4622  0.1970 -0.2873
 5823TIP3    H117405   5.020   1.480   2.588 -0.1603 -0.5147  0.1011
 5823TIP3    H217406   5.059   1.346   2.647  1.4477  0.2644  0.8389
 5824TIP3   OH217407   5.662   0.796   4.763 -0.1494 -0.5212  0.4785
 5824TIP3    H117408   5.650   0.708   4.799  1.8047 -0.4104  1.4962
 5824TIP3    H217409   5.664   0.853   4.839  1.9048 -0.0165  0.0799
 5825TIP3   OH217410   6.288   0.884   5.360 -0.1876  0.1735  0.0652
 5825TIP3    H117411   6.344   0.943   5.308 -1.3497  0.9258 -0.3569
 5825TIP3    H217412   6.323   0.797   5.342  1.3335  0.6902  0.4086
 5826TIP3   OH217413   5.885   2.137   5.446 -0.0368 -0.4259 -0.2600
 5826TIP3    H117414   5.907   2.213   5.500 -2.2259  0.6549 -0.8098
 5826TIP3    H217415   5.910   2.163   5.357 -0.8143 -0.2959 -0.4512
 5827TIP3   OH217416   3.929   4.587   5.373  0.6003 -0.6782  0.1550
 5827TIP3    H117417   3.840   4.569   5.404  0.6028 -3.9372 -1.4501
 5827TIP3    H217418   3.917   4.617   5.283  1.1047 -0.8996  0.0144
 5828TIP3   OH217419   8.509   7.785   4.700  0.4960  0.3856  0.2575
 5828TIP3    H117420   8.426   7.766   4.744 -0.2141 -1.1295 -1.6687
 5828TIP3    H217421   8.484   7.820   4.614  1.7885 -2.3915 -1.3303
 5829TIP3   OH217422   3.952   1.108   6.196 -0.2353  0.3063 -0.8259
 5829TIP3    H117423   3.895   1.082   6.123  0.6626 -1.8345 -0.7933
 5829TIP3    H217424   3.902   1.087   6.275 -0.1317  0.1594 -0.8009
 5830TIP3   OH217425   5.223   0.841   4.572 -0.2006 -0.2759  0.4567
 5830TIP3    H117426   5.149   0.797   4.614  0.5796 -1.4097  0.6810
 5830TIP3    H217427   5.271   0.883   4.644  0.6873 -1.5438  0.6241
 5831TIP3   OH217428   1.251   2.128   6.514  0.4103 -0.1299  0.6332
 5831TIP3    H117429   1.234   2.137   6.420 -1.5128  0.7514  1.0440
 5831TIP3    H217430   1.325   2.067   6.519 -1.2592 -2.4017 -1.3713
 5832TIP3   OH217431   4.093   1.032   5.544  0.5318 -0.4089  0.0809
 5832TIP3    H117432   4.101   1.025   5.639  1.5358 -2.2088 -0.1136
 5832TIP3    H217433   4.183   1.033   5.512  0.1958 -1.1858 -0.9269
 5833TIP3   OH217434   5.198   3.257   4.155  0.3789  0.2153 -0.1023
 5833TIP3    H117435   5.265   3.318   4.125 -0.6633  1.1827 -0.5304
 5833TIP3    H217436   5.125   3.271   4.094 -1.5309  1.7134  2.4087
 5834TIP3   OH217437   2.654   2.886   4.391  0.5875  0.1089  0.2216
 5834TIP3    H117438   2.602   2.862   4.468  0.8067  0.0502  0.3523
 5834TIP3    H217439   2.699   2.805   4.366 -1.2844 -0.4641 -1.3881
 5835TIP3   OH217440   1.776   0.629   6.778 -0.4215  0.1898 -0.3342
 5835TIP3    H117441   1.690   0.659   6.806  0.2672  1.9608 -0.0358
 5835TIP3    H217442   1.830   0.709   6.778  1.1310 -0.8446 -0.7889
 5836TIP3   OH217443   4.627   0.518   5.954 -0.0645 -0.3212 -0.4713
 5836TIP3    H117444   4.697   0.509   6.019 -0.6338  1.9292  0.4987
 5836TIP3    H217445   4.666   0.570   5.884 -0.7724  0.9810  0.0963
 5837TIP3   OH217446   3.736   1.022   6.054  0.2468  0.4445  0.2256
 5837TIP3    H117447   3.673   0.971   6.106  1.5475 -0.9023  0.4944
 5837TIP3    H217448   3.698   1.024   5.966 -0.9536  0.9951  0.7388
 5838TIP3   OH217449   6.502   2.714   5.583 -0.7254  0.5781 -0.0603
 5838TIP3    H117450   6.572   2.649   5.582 -1.5946 -0.3878  1.0881
 5838TIP3    H217451   6.544   2.795   5.611  0.2960  0.4517 -1.1915
 5839TIP3   OH217452   6.527   1.237   5.851  0.0949 -0.8898 -0.0609
 5839TIP3    H117453   6.573   1.154   5.835  1.1972 -0.3533  0.2341
 5839TIP3    H217454   6.445   1.211   5.892  1.4418 -1.7432  2.2242
 5840TIP3   OH217455   4.828   7.678   5.185  0.4491 -0.0679 -0.2897
 5840TIP3    H117456   4.755   7.679   5.246  0.2293  0.7335 -0.5614
 5840TIP3    H217457   4.788   7.680   5.098  0.7591  4.9911 -0.4842
 5841TIP3   OH217458   4.632   0.680   3.533 -0.0305 -0.2814  0.0230
 5841TIP3    H117459   4.580   0.749   3.575  0.9648 -0.4473  1.5782
 5841TIP3    H217460   4.641   0.613   3.600  1.8462 -0.4344 -0.3638
 5842TIP3   OH217461   5.606   0.944   6.784  0.7224 -0.6842  0.3846
 5842TIP3    H117462   5.578   0.861   6.823  0.7058  0.0165  1.9173
 5842TIP3    H217463   5.532   1.003   6.798  1.1633 -0.1087  0.2989
 5843TIP3   OH217464   3.610   1.171   5.316  0.4131  0.6020  0.4081
 5843TIP3    H117465   3.671   1.244   5.328  0.4814  0.3516  1.6210
 5843TIP3    H217466   3.526   1.214   5.298  1.2694  0.9394 -3.1514
 5844TIP3   OH217467   6.089   6.522   6.785 -0.2878 -0.2235 -0.1843
 5844TIP3    H117468   6.171   6.573   6.790  0.1727 -1.1603  2.8847
 5844TIP3    H217469   6.117   6.431   6.790 -1.4241 -0.6264 -0.9864
 5845TIP3   OH217470   3.444   7.882   1.109 -0.2778  0.0398  0.7082
 5845TIP3    H117471   3.519   7.941   1.115 -0.2069 -0.2540  3.8700
 5845TIP3    H217472   3.481   7.798   1.083 -0.0765  0.8118 -1.5779
 5846TIP3   OH217473   4.754   0.934   3.449  0.4792  0.1562  0.6020
 5846TIP3    H117474   4.664   0.906   3.464  0.8234 -1.3855 -0.1646
 5846TIP3    H217475   4.796   0.925   3.534 -0.1948  1.3135  1.0699
 5847TIP3   OH217476   5.752   6.007   0.605  0.2397 -0.0747  0.2971
 5847TIP3    H117477   5.715   5.986   0.690  0.0021  0.0472  0.2245
 5847TIP3    H217478   5.839   5.967   0.606  1.0031  1.5663  1.3268
 5848TIP3   OH217479   3.449   1.026   4.199  0.0309 -0.2960 -0.1350
 5848TIP3    H117480   3.437   1.114   4.236  0.7960  0.2777 -1.2154
 5848TIP3    H217481   3.429   1.036   4.106  1.6551 -0.9048 -0.5699
 5849TIP3   OH217482   8.084   0.302   4.915 -0.0463 -0.3588 -0.3223
 5849TIP3    H117483   8.008   0.361   4.920  0.0634 -0.0853 -1.5730
 5849TIP3    H217484   8.074   0.258   4.830  1.8252  0.5633 -1.0559
 5850TIP3   OH217485   6.840   0.803   5.626  0.1414 -0.2124 -0.5480
 5850TIP3    H117486   6.934   0.789   5.640  0.1443 -0.1703 -0.5253
 5850TIP3    H217487   6.827   0.896   5.641  0.0554 -0.2613 -0.3161
 5851TIP3   OH217488   2.299   7.128   3.847 -0.1938  0.5495  0.0211
 5851TIP3    H117489   2.268   7.205   3.893  1.2149  1.3721 -0.3582
 5851TIP3    H217490   2.388   7.151   3.820  0.1700 -1.1344 -0.2616
 5852TIP3   OH217491   1.890   7.436   3.697 -0.0608  0.0009  0.8951
 5852TIP3    H117492   1.882   7.516   3.645 -0.8475 -2.4137 -2.9174
 5852TIP3    H217493   1.975   7.400   3.671 -0.6732 -1.4831  0.9156
 5853TIP3   OH217494   5.379   2.677   5.718  0.5318  0.1806 -0.9511
 5853TIP3    H117495   5.383   2.721   5.803  0.5184  0.9600 -1.3489
 5853TIP3    H217496   5.297   2.708   5.679  0.8334  0.2925 -1.4981
 5854TIP3   OH217497   4.800   0.128   5.459  0.4891  0.1237  0.4387
 5854TIP3    H117498   4.792   0.222   5.447  0.5860  0.0892  0.0815
 5854TIP3    H217499   4.782   0.092   5.372  0.9465 -0.1585  0.4587
 5855TIP3   OH217500   2.908   5.678   2.302 -0.7415 -0.4241  0.2391
 5855TIP3    H117501   2.846   5.750   2.314 -0.6711 -0.3133 -0.0533
 5855TIP3    H217502   2.994   5.718   2.312 -0.7234 -0.6355  0.9544
 5856TIP3   OH217503   1.226   7.990   3.968 -0.5170 -0.1487  0.4525
 5856TIP3    H117504   1.212   7.903   3.930  0.5595 -1.0239  2.0311
 5856TIP3    H217505   1.246   7.973   4.060 -1.3393  1.8403  1.0274
 5857TIP3   OH217506   3.329   0.524   5.639  0.4209  0.6775  0.8434
 5857TIP3    H117507   3.351   0.516   5.547 -0.6475 -1.7120  0.7658
 5857TIP3    H217508   3.386   0.461   5.683 -1.1466 -0.3518  1.4469
 5858TIP3   OH217509   3.160   1.822   4.702 -0.2047 -0.2581  1.0412
 5858TIP3    H117510   3.201   1.736   4.703 -0.1925 -0.2594  0.4720
 5858TIP3    H217511   3.080   1.809   4.651 -0.2335  0.0543  1.0078
 5859TIP3   OH217512   6.656   1.936   5.513 -0.1439 -0.2651  0.2337
 5859TIP3    H117513   6.586   1.993   5.545  0.2384  0.1647  0.3163
 5859TIP3    H217514   6.611   1.855   5.487 -0.6880  0.0566  0.1544
 5860TIP3   OH217515   2.022   0.140   5.432 -0.1473 -0.0526 -0.2086
 5860TIP3    H117516   1.937   0.147   5.389 -0.4583 -2.5087 -0.0232
 5860TIP3    H217517   2.045   0.230   5.454 -2.2276  0.7314 -1.1547
 5861TIP3   OH217518   1.959   6.628   2.517  0.2322  0.6341  0.0024
 5861TIP3    H117519   2.049   6.633   2.550 -0.2085 -1.3609  1.5669
 5861TIP3    H217520   1.927   6.543   2.547 -1.1747  0.0075 -3.1491
 5862TIP3   OH217521   3.531   6.863   5.709 -0.6474 -0.1832 -0.4967
 5862TIP3    H117522   3.465   6.915   5.663 -0.5102 -1.9863 -2.8141
 5862TIP3    H217523   3.606   6.922   5.718 -1.1553  0.6099 -1.4205
 5863TIP3   OH217524   0.872   6.992   2.998 -0.2470  0.3640  0.1275
 5863TIP3    H117525   0.804   7.047   3.037  2.9608  2.5986  2.7923
 5863TIP3    H217526   0.913   7.048   2.932  1.8260  0.5984  1.5714
 5864TIP3   OH217527   4.460   0.857   4.588 -0.3111  1.1191  0.4325
 5864TIP3    H117528   4.376   0.885   4.623 -0.9156  0.0589 -0.1517
 5864TIP3    H217529   4.466   0.765   4.613  0.9904  1.3621  1.0665
 5865TIP3   OH217530   3.060   7.340   4.152 -0.0261 -0.4454 -0.0402
 5865TIP3    H117531   3.097   7.297   4.229  0.6969 -0.2303 -0.2626
 5865TIP3    H217532   2.986   7.391   4.186 -0.0052 -0.7336  0.4349
 5866TIP3   OH217533   4.812   1.999   4.998  0.5731  0.1306  0.1716
 5866TIP3    H117534   4.782   1.911   4.978  1.4326 -0.3931  1.1449
 5866TIP3    H217535   4.739   2.056   4.972  0.4338 -0.7759 -1.4346
 5867TIP3   OH217536   5.154   1.942   2.983 -0.3258  0.3159  0.8613
 5867TIP3    H117537   5.142   1.914   3.074 -3.3515  2.2796  1.1371
 5867TIP3    H217538   5.149   1.862   2.932 -2.2584 -0.4249  2.1422
 5868TIP3   OH217539   0.403   7.927   4.566 -0.5223  0.6457  0.5485
 5868TIP3    H117540   0.367   7.920   4.655  1.2469  1.3857  1.3418
 5868TIP3    H217541   0.386   7.841   4.527  0.9275 -0.5573  2.4695
 5869TIP3   OH217542   2.550   7.479   6.368  0.1460 -0.6376  0.3544
 5869TIP3    H117543   2.622   7.425   6.403 -0.3223 -0.1521  2.1448
 5869TIP3    H217544   2.562   7.478   6.273  2.9946  0.1164  0.6867
 5870TIP3   OH217545   3.499   1.708   6.851 -0.3458  0.0613 -0.2454
 5870TIP3    H117546   3.440   1.642   6.887 -0.9577  0.7739  0.0738
 5870TIP3    H217547   3.538   1.750   6.927 -1.1218  1.0975 -0.4012
 5871TIP3   OH217548   6.303   0.608   6.850  0.1660  0.3994  0.4116
 5871TIP3    H117549   6.234   0.547   6.876  0.1403  0.1977 -0.1303
 5871TIP3    H217550   6.288   0.685   6.905  0.1476 -0.0437  1.0361
 5872TIP3   OH217551   4.916   0.684   5.555  0.7613  0.3468  0.3924
 5872TIP3    H117552   4.918   0.653   5.646 -0.8524 -0.6155  0.1172
 5872TIP3    H217553   4.932   0.778   5.562 -0.7297  0.5212  1.8070
 5873TIP3   OH217554   6.416   0.653   5.914 -0.2341  0.1715  0.4535
 5873TIP3    H117555   6.379   0.566   5.899 -0.5759  0.2986  0.5529
 5873TIP3    H217556   6.499   0.652   5.867  0.2481 -0.5598  1.2931
 5874TIP3   OH217557   3.551   7.697   4.472 -0.3067  0.1276 -0.0462
 5874TIP3    H117558   3.587   7.622   4.425 -1.8506 -0.0456 -0.9903
 5874TIP3    H217559   3.504   7.747   4.405  0.1668  1.5999  0.7010
 5875TIP3   OH217560   5.459   1.076   3.531  0.0804  0.3303 -0.3023
 5875TIP3    H117561   5.482   0.983   3.542 -0.3664  0.4127  1.5586
 5875TIP3    H217562   5.530   1.123   3.574  0.7559  0.9049 -2.0180
 5876TIP3   OH217563   2.722   0.677   3.476  0.7063  0.4792 -0.1863
 5876TIP3    H117564   2.801   0.638   3.513  2.0612  1.9991 -1.4012
 5876TIP3    H217565   2.703   0.623   3.399  0.1415 -0.3097  0.4965
 5877TIP3   OH217566   3.459   0.045   3.996 -0.4007  0.1205 -0.0235
 5877TIP3    H117567   3.365   0.025   3.998 -0.1303 -1.2292  0.1317
 5877TIP3    H217568   3.501  -0.040   4.008  0.8507  0.6520 -0.5886
 5878TIP3   OH217569   0.403   5.570   0.549 -0.2150  0.1757  0.0663
 5878TIP3    H117570   0.352   5.609   0.620 -0.2209  0.0205  0.1463
 5878TIP3    H217571   0.479   5.629   0.540  0.6770 -0.7437  1.3615
 5879TIP3   OH217572   6.535   1.279   3.649 -0.1043  0.6917  0.4388
 5879TIP3    H117573   6.461   1.319   3.695 -0.5258 -1.3171  1.5571
 5879TIP3    H217574   6.573   1.219   3.713  1.6736  0.7101 -0.5883
 5880TIP3   OH217575   5.085   1.880   4.825 -0.3790  0.0163 -0.0844
 5880TIP3    H117576   5.063   1.891   4.732  0.8496  2.8180 -0.1030
 5880TIP3    H217577   5.001   1.861   4.867 -0.7675 -2.5490 -1.8882
 5881TIP3   OH217578   4.358   7.279   5.526  0.2114 -1.0608 -0.4857
 5881TIP3    H117579   4.340   7.190   5.495 -0.2980 -2.2770  3.0528
 5881TIP3    H217580   4.283   7.330   5.497  0.2873 -1.8519 -2.1555
 5882TIP3   OH217581   1.090   5.326   0.048 -0.3197 -0.0675  0.3017
 5882TIP3    H117582   1.077   5.314  -0.046  1.9489  2.7201 -0.4457
 5882TIP3    H217583   1.176   5.289   0.065 -0.1006  0.7490  0.9810
 5883TIP3   OH217584   7.658   3.271   3.506  0.5464 -0.6096 -0.0229
 5883TIP3    H117585   7.638   3.186   3.547 -0.3180 -0.9841 -1.2167
 5883TIP3    H217586   7.740   3.255   3.458 -1.0912 -1.5718 -2.5758
 5884TIP3   OH217587   6.101   1.145   3.381 -0.3489 -0.8795  0.4130
 5884TIP3    H117588   6.040   1.153   3.307 -0.5173 -0.1682  0.6234
 5884TIP3    H217589   6.067   1.071   3.432  0.9942 -2.7657 -1.3503
 5885TIP3   OH217590   3.529   2.639   5.237  0.1798  0.5580  0.1516
 5885TIP3    H117591   3.470   2.708   5.268 -1.4591 -1.1328  0.9205
 5885TIP3    H217592   3.537   2.655   5.143 -1.7559  0.6617 -0.0147
 5886TIP3   OH217593   5.451   0.421   5.125 -1.1081 -0.3533  0.4191
 5886TIP3    H117594   5.366   0.400   5.163 -2.4433  0.3145 -2.0579
 5886TIP3    H217595   5.432   0.491   5.062  1.7128  1.6322  1.6756
 5887TIP3   OH217596   6.115   0.332   4.992  0.0561  0.0905  0.2905
 5887TIP3    H117597   6.096   0.398   5.059  0.3865  0.4867 -0.0095
 5887TIP3    H217598   6.161   0.379   4.924 -0.6391 -0.2289 -0.4103
 5888TIP3   OH217599   6.649   0.242   3.797 -0.2480  0.3393  0.3699
 5888TIP3    H117600   6.726   0.192   3.770  0.0186  0.9658 -0.0378
 5888TIP3    H217601   6.647   0.232   3.893 -1.4976 -2.3160  0.1273
 5889TIP3   OH217602   5.708   1.944   4.806 -0.1487  0.0993 -0.1798
 5889TIP3    H117603   5.615   1.937   4.786  0.5844 -2.3873 -3.0725
 5889TIP3    H217604   5.740   2.012   4.746  0.3581 -0.9288 -1.0958
 5890TIP3   OH217605   0.258   4.074   0.165 -0.1544 -0.1935  0.4531
 5890TIP3    H117606   0.213   4.053   0.083 -1.5918  1.6216  0.7542
 5890TIP3    H217607   0.203   4.034   0.233  0.3285 -0.5779  0.6147
 5891TIP3   OH217608   5.857   1.038   6.826  0.5187 -0.6418  0.1349
 5891TIP3    H117609   5.880   1.096   6.754  0.9603 -1.5145 -0.4354
 5891TIP3    H217610   5.764   1.020   6.814  0.1819  0.6254  0.8074
 5892TIP3   OH217611   1.375   6.919   2.581 -0.1642 -0.3000 -0.1561
 5892TIP3    H117612   1.442   6.854   2.563  0.8204  0.8653 -0.7958
 5892TIP3    H217613   1.353   6.955   2.495 -0.3820  0.5047  0.2282
 5893TIP3   OH217614   6.881   1.157   5.093 -0.0470 -0.0060  0.5914
 5893TIP3    H117615   6.931   1.102   5.153  0.3485  0.3034  0.5502
 5893TIP3    H217616   6.903   1.123   5.006  0.2091  0.2205  0.5656
 5894TIP3   OH217617   5.887   2.063   3.501 -0.0969  0.6566 -0.8402
 5894TIP3    H117618   5.982   2.059   3.493  0.2410  1.3954  2.1678
 5894TIP3    H217619   5.859   1.971   3.496  1.2993 -0.0749  3.0800
 5895TIP3   OH217620   7.970   7.565   4.428 -0.8556 -0.0271 -0.0946
 5895TIP3    H117621   7.945   7.612   4.507 -1.1250 -0.6462  0.1941
 5895TIP3    H217622   8.058   7.596   4.408 -0.0023 -1.3464  1.5803
 5896TIP3   OH217623   6.353   3.220   4.667 -0.0071  0.1819 -0.3534
 5896TIP3    H117624   6.332   3.285   4.600  0.0716  0.2741 -0.2894
 5896TIP3    H217625   6.445   3.197   4.650 -0.6869 -1.6285 -1.8270
 5897TIP3   OH217626   2.802   0.374   5.178 -0.6529  0.4948  0.6237
 5897TIP3    H117627   2.867   0.443   5.165  0.4057 -0.5482  0.2433
 5897TIP3    H217628   2.786   0.340   5.090 -1.0019  0.1177  0.8336
 5898TIP3   OH217629   5.724   2.808   0.339  0.3957 -0.0773  0.2721
 5898TIP3    H117630   5.676   2.879   0.383 -1.7497 -1.6604  0.5999
 5898TIP3    H217631   5.803   2.796   0.391  0.4323  1.6024  0.6206
 5899TIP3   OH217632   0.749   7.854   5.653 -0.3435  0.2448  0.2383
 5899TIP3    H117633   0.820   7.790   5.658 -0.3665  0.0872 -1.0886
 5899TIP3    H217634   0.673   7.808   5.687 -0.2949 -0.3510 -0.4369
 5900TIP3   OH217635   5.095   0.831   5.167  0.2871 -0.2759  0.6314
 5900TIP3    H117636   5.034   0.881   5.113 -0.7957  0.0032  2.0898
 5900TIP3    H217637   5.140   0.897   5.219  2.4165 -0.4144 -0.9912
 5901TIP3   OH217638   7.245   0.855   6.589  0.4649  0.2166  0.2118
 5901TIP3    H117639   7.285   0.907   6.519  0.4082  0.2572  0.2101
 5901TIP3    H217640   7.318   0.835   6.648  0.3344  0.9929  0.6407
 5902TIP3   OH217641   5.643   2.381   4.061 -0.4930  0.1316 -0.2443
 5902TIP3    H117642   5.609   2.435   4.132  0.7853 -0.5383  0.9019
 5902TIP3    H217643   5.570   2.374   4.000 -2.0405 -0.2758  1.5862
 5903TIP3   OH217644   2.850   2.423   6.302 -0.6187  0.0870 -0.1565
 5903TIP3    H117645   2.788   2.362   6.343 -0.6611 -0.5684 -1.1796
 5903TIP3    H217646   2.796   2.495   6.271 -0.7510 -0.0365 -0.2160
 5904TIP3   OH217647   5.178   4.270   1.997  0.3019  0.1310  0.3749
 5904TIP3    H117648   5.096   4.233   1.963  0.1612 -0.8368  1.7110
 5904TIP3    H217649   5.196   4.344   1.939 -0.4298 -0.8725 -1.1849
 5905TIP3   OH217650   4.139   1.152   5.785  0.3256 -0.1013 -0.3076
 5905TIP3    H117651   4.076   1.192   5.844 -0.6370 -2.6944  0.4724
 5905TIP3    H217652   4.220   1.145   5.836 -0.1088 -1.0450  0.2658
 5906TIP3   OH217653   4.795   3.061   5.245 -0.4636 -0.2644  0.4803
 5906TIP3    H117654   4.865   3.004   5.276  0.6542  0.0551 -1.3957
 5906TIP3    H217655   4.819   3.148   5.275 -0.4046 -0.2570  0.4112
 5907TIP3   OH217656   8.283   5.253   1.177  0.4092  0.1691 -0.5424
 5907TIP3    H117657   8.219   5.238   1.246  0.6564  2.7382  0.2869
 5907TIP3    H217658   8.237   5.306   1.112  1.2040  0.6811 -0.7014
 5908TIP3   OH217659   1.633   3.396   6.858  0.0423  0.5999 -0.2830
 5908TIP3    H117660   1.717   3.384   6.814  1.2736 -1.0802  2.3946
 5908TIP3    H217661   1.595   3.473   6.817  1.5921 -0.2678 -3.5221
 5909TIP3   OH217662   5.640   1.727   3.404 -0.3728  0.4558  0.0107
 5909TIP3    H117663   5.696   1.693   3.334 -1.9267  1.5459 -1.8447
 5909TIP3    H217664   5.552   1.727   3.366 -0.8543  3.7253  0.9333
 5910TIP3   OH217665   2.443   3.357   6.672 -0.8164  0.0453  0.4500
 5910TIP3    H117666   2.358   3.323   6.642 -1.6084  2.1120  0.2993
 5910TIP3    H217667   2.420   3.417   6.743  0.6257 -0.2261  1.1508
 5911TIP3   OH217668   4.673   7.648   6.726  0.1671 -0.1126  0.0951
 5911TIP3    H117669   4.710   7.561   6.737 -1.2014 -0.7152  0.0844
 5911TIP3    H217670   4.602   7.636   6.663  0.4026  1.1396 -0.4193
 5912TIP3   OH217671   5.280   1.405   6.886  0.5541 -0.3460  0.3986
 5912TIP3    H117672   5.220   1.358   6.828 -1.0241  3.0498 -0.8513
 5912TIP3    H217673   5.350   1.436   6.828  0.9888 -0.1985  1.0000
 5913TIP3   OH217674   7.028   2.462   1.836  0.3989  0.8227  0.0137
 5913TIP3    H117675   7.044   2.470   1.930  0.4952 -0.7086  0.1297
 5913TIP3    H217676   6.953   2.520   1.820  1.8239  2.9064  0.6050
 5914TIP3   OH217677   8.141   5.254   0.194  0.4400  0.1867 -0.2640
 5914TIP3    H117678   8.149   5.307   0.115 -1.3169  0.0438 -0.5657
 5914TIP3    H217679   8.121   5.166   0.162 -0.1707  0.1015  0.3421
 5915TIP3   OH217680   5.044   1.323   4.340 -0.1423  0.0814  0.3011
 5915TIP3    H117681   5.013   1.360   4.422  0.8637  0.6474  0.4431
 5915TIP3    H217682   5.049   1.397   4.280 -1.7565 -0.4850 -0.5556
 5916TIP3   OH217683   0.418   5.274   0.221  0.3089  0.5233 -0.4233
 5916TIP3    H117684   0.351   5.282   0.289  1.2365  1.1758  0.4315
 5916TIP3    H217685   0.380   5.318   0.145 -0.3503  0.6455 -0.0276
 5917TIP3   OH217686   6.454   3.147   5.786 -0.1147 -0.2291  0.2152
 5917TIP3    H117687   6.379   3.116   5.735  0.1962  0.1105 -0.4464
 5917TIP3    H217688   6.524   3.087   5.762  0.5987  1.2091 -1.3685
 5918TIP3   OH217689   7.849   4.475   0.092  0.4705 -0.3171  0.2174
 5918TIP3    H117690   7.845   4.441   0.003  3.5166  0.8407 -0.4386
 5918TIP3    H217691   7.815   4.564   0.085  1.9825  0.2626 -0.1223
 5919TIP3   OH217692   5.026   0.775   4.778  0.0250  0.4919 -0.4643
 5919TIP3    H117693   5.039   0.727   4.860  0.6484  1.3104 -0.0699
 5919TIP3    H217694   4.976   0.715   4.723 -0.9378  0.1612  0.7372
 5920TIP3   OH217695   5.010   0.728   3.235  0.6053 -0.0070 -0.1313
 5920TIP3    H117696   4.993   0.693   3.323  0.7011  1.5009  0.4985
 5920TIP3    H217697   5.000   0.652   3.177 -0.4370 -0.8083  1.0707
 5921TIP3   OH217698   3.838   3.106   3.305 -0.2493  0.0144  0.3381
 5921TIP3    H117699   3.782   3.035   3.273  0.7713 -0.5523 -0.2128
 5921TIP3    H217700   3.822   3.108   3.399 -2.2505  0.7866  0.0219
 5922TIP3   OH217701   3.846   2.199   3.004 -0.5093 -0.3812  0.0987
 5922TIP3    H117702   3.807   2.171   3.086 -0.5861 -0.1410  0.1458
 5922TIP3    H217703   3.918   2.257   3.030 -0.0505 -0.9121  0.0138
 5923TIP3   OH217704   4.255   1.755   4.669  0.4459  0.0802  0.0418
 5923TIP3    H117705   4.199   1.738   4.593  0.0250  1.7392 -0.0446
 5923TIP3    H217706   4.252   1.674   4.720 -1.5460 -0.0685 -0.2756
 5924TIP3   OH217707   7.722   2.571   6.570  0.4845 -0.1369  0.0499
 5924TIP3    H117708   7.757   2.603   6.487  0.4509  0.2167  0.1715
 5924TIP3    H217709   7.668   2.643   6.603  1.3411  0.1336  0.8851
 5925TIP3   OH217710   4.858   0.464   4.682 -0.0291 -0.2976  0.1600
 5925TIP3    H117711   4.793   0.494   4.618  1.1058 -0.0219 -0.8804
 5925TIP3    H217712   4.813   0.472   4.766 -1.1779  0.3674 -0.4950
 5926TIP3   OH217713   3.263   7.329   3.699 -0.1775  0.0500  0.2834
 5926TIP3    H117714   3.302   7.392   3.761  0.4845 -1.9278  1.9477
 5926TIP3    H217715   3.337   7.274   3.673 -0.7170  0.0704 -1.2975
 5927TIP3   OH217716   5.168   1.187   4.555 -0.4402  0.3536 -0.1227
 5927TIP3    H117717   5.116   1.245   4.501 -1.9498 -0.9868 -0.1263
 5927TIP3    H217718   5.227   1.143   4.494 -2.0912 -1.1035 -0.6755
 5928TIP3   OH217719   4.550   7.396   5.363  0.5359  0.2817 -0.0130
 5928TIP3    H117720   4.615   7.326   5.367  1.0459  0.7858  0.6198
 5928TIP3    H217721   4.471   7.358   5.401  0.9202  0.1675  0.6679
 5929TIP3   OH217722   5.881   2.625   5.704 -0.0743  0.1787  0.4581
 5929TIP3    H117723   5.908   2.619   5.612  0.7280 -4.4575  0.8455
 5929TIP3    H217724   5.787   2.607   5.702 -0.1157  0.3895  0.5108
 5930TIP3   OH217725   7.853   0.193   5.788 -0.3109 -0.4639  0.6276
 5930TIP3    H117726   7.767   0.215   5.754  0.1675  1.1080  0.4314
 5930TIP3    H217727   7.879   0.268   5.841  0.9576 -0.9107  0.6673
 5931TIP3   OH217728   5.376   0.935   4.786 -0.9138  0.6490  0.9020
 5931TIP3    H117729   5.459   0.896   4.758 -2.2221 -2.3551  1.0446
 5931TIP3    H217730   5.402   1.006   4.845  1.5638  0.3067  0.2908
 5932TIP3   OH217731   6.502   1.458   3.449  0.2663 -0.3887 -0.6024
 5932TIP3    H117732   6.446   1.414   3.385 -0.3424 -1.7710  0.8504
 5932TIP3    H217733   6.526   1.389   3.511 -1.6202  1.5265  2.3796
 5933TIP3   OH217734   5.970   0.259   5.583  0.5881  0.6810 -0.5609
 5933TIP3    H117735   6.063   0.272   5.563  0.8013 -0.9351 -0.7006
 5933TIP3    H217736   5.932   0.227   5.501  0.0423  0.6764 -0.3079
 5934TIP3   OH217737   6.597   4.605   0.342 -0.2512  0.1648 -0.1596
 5934TIP3    H117738   6.612   4.522   0.297 -0.2073 -0.2643  0.6571
 5934TIP3    H217739   6.515   4.638   0.304 -0.4356 -0.3986 -0.2525
 5935TIP3   OH217740   4.914   1.718   5.806  1.3069 -0.0208 -0.0183
 5935TIP3    H117741   4.843   1.753   5.753 -0.1257  0.9026  2.4254
 5935TIP3    H217742   4.991   1.724   5.750  0.0020  1.7050 -1.6869
 5936TIP3   OH217743   4.954   1.041   5.061  0.2695 -0.1094 -0.1751
 5936TIP3    H117744   4.866   1.056   5.097 -0.0657 -1.7711 -0.2351
 5936TIP3    H217745   4.944   1.057   4.967  0.1482  0.2144 -0.1071
 5937TIP3   OH217746   4.655   0.787   4.939 -0.3145  0.4023  0.0810
 5937TIP3    H117747   4.659   0.708   4.886  1.1426  0.3088  0.3047
 5937TIP3    H217748   4.686   0.760   5.026  1.8213  1.5567 -0.2839
 5938TIP3   OH217749   3.688   5.278   3.813 -0.4792 -0.1974  0.4890
 5938TIP3    H117750   3.695   5.316   3.726 -1.8451 -1.0980 -0.0382
 5938TIP3    H217751   3.604   5.231   3.812  0.4004 -1.8488  1.6443
 5939TIP3   OH217752   3.545   7.872   4.992  0.1838  0.6435  0.0212
 5939TIP3    H117753   3.558   7.853   4.899 -0.6175  2.3311 -0.4511
 5939TIP3    H217754   3.620   7.925   5.017  0.8334 -0.5119  0.5632
 5940TIP3   OH217755   6.427   4.685   0.160  0.1316  0.0063 -0.0371
 5940TIP3    H117756   6.480   4.696   0.080  1.8645 -0.5299  1.0019
 5940TIP3    H217757   6.383   4.769   0.172  0.3438  0.2974 -1.2050
 5941TIP3   OH217758   1.163   7.146   6.195 -0.3879 -0.1433 -0.2671
 5941TIP3    H117759   1.122   7.064   6.224 -1.3758  0.0417 -1.0853
 5941TIP3    H217760   1.177   7.133   6.101 -0.2633  0.5100 -0.3419
 5942TIP3   OH217761   6.001   1.982   4.409 -0.1388 -0.3252  0.6466
 5942TIP3    H117762   6.033   1.892   4.418 -1.5376 -0.6682  2.4753
 5942TIP3    H217763   6.019   2.005   4.318  0.9547 -2.1750  0.3724
 5943TIP3   OH217764   4.665   2.836   6.100  0.0001 -0.2041  0.2992
 5943TIP3    H117765   4.685   2.861   6.010 -1.0530 -0.7600 -0.1047
 5943TIP3    H217766   4.608   2.905   6.133  0.4005  0.0098  0.5484
 5944TIP3   OH217767   5.529   0.638   5.688 -0.0919 -0.1190 -0.1912
 5944TIP3    H117768   5.482   0.569   5.642 -0.7054 -0.4089  0.8396
 5944TIP3    H217769   5.521   0.614   5.781  0.2294  1.0001  0.1319
 5945TIP3   OH217770   7.065   0.948   6.084 -0.8026 -0.6520  0.3304
 5945TIP3    H117771   7.153   0.912   6.093 -0.2452  0.1917 -1.3433
 5945TIP3    H217772   7.011   0.874   6.057 -0.4146 -0.9882  0.4746
 5946TIP3   OH217773   4.769   1.948   6.297  0.1895  0.0506  0.4768
 5946TIP3    H117774   4.767   1.853   6.283 -0.2908  0.1177  0.0971
 5946TIP3    H217775   4.784   1.957   6.391 -0.7974 -0.4092  0.6865
 5947TIP3   OH217776   0.525   7.530   6.237  0.0777  0.1013  0.3051
 5947TIP3    H117777   0.446   7.579   6.256  0.6108  1.5043 -1.0366
 5947TIP3    H217778   0.496   7.456   6.183 -0.3122  0.5892 -0.1482
 5948TIP3   OH217779   4.419   0.077   6.056 -0.0853 -0.1748 -0.1848
 5948TIP3    H117780   4.507   0.063   6.020  0.3756  0.2971  0.7510
 5948TIP3    H217781   4.363   0.019   6.004  0.5846  0.3815 -1.5766
 5949TIP3   OH217782   6.046   2.848   5.731  0.8115  0.1429  0.1077
 5949TIP3    H117783   5.957   2.814   5.737  0.8563 -0.0352 -0.2010
 5949TIP3    H217784   6.097   2.773   5.699  1.3468 -0.2200  1.7811
 5950TIP3   OH217785   3.195   1.396   5.303  0.1720 -0.2234  0.2128
 5950TIP3    H117786   3.196   1.482   5.345  1.1515 -0.3487  0.4547
 5950TIP3    H217787   3.102   1.379   5.284 -0.1586  0.3082  1.3306
 5951TIP3   OH217788   5.948   0.325   6.703  0.3419  0.3953 -0.3952
 5951TIP3    H117789   5.941   0.260   6.633  1.0504 -0.5569  0.3846
 5951TIP3    H217790   6.023   0.379   6.679  1.4106 -0.7611  0.2647
 5952TIP3   OH217791   1.612   7.529   5.323 -0.0379 -0.0007 -0.0565
 5952TIP3    H117792   1.577   7.616   5.301  2.3324  0.9978 -0.0612
 5952TIP3    H217793   1.658   7.542   5.406  0.1199 -1.3139  0.0736
 5953TIP3   OH217794   3.746   1.263   5.784 -0.1565  0.0433 -0.2113
 5953TIP3    H117795   3.737   1.172   5.758  0.2902 -0.9855  3.0662
 5953TIP3    H217796   3.667   1.306   5.750 -1.1424 -1.8875 -0.4003
 5954TIP3   OH217797   4.439   0.290   4.417 -0.3712  0.7981  0.3045
 5954TIP3    H117798   4.348   0.314   4.430 -1.5029 -2.1211 -1.7384
 5954TIP3    H217799   4.473   0.357   4.357 -2.0979  0.1047 -1.4824
 5955TIP3   OH217800   2.924   3.606   4.232 -0.3003 -0.2791 -0.3736
 5955TIP3    H117801   2.951   3.536   4.291 -0.2091 -0.2718 -0.4060
 5955TIP3    H217802   2.986   3.677   4.248  0.0135 -0.4470 -0.8065
 5956TIP3   OH217803   5.494   1.146   3.222 -0.3926 -0.1497  0.3006
 5956TIP3    H117804   5.465   1.168   3.311  0.9458  1.2178  0.4206
 5956TIP3    H217805   5.566   1.084   3.235 -0.0173  0.2573  0.1979
 5957TIP3   OH217806   7.619   3.033   3.624  0.4591 -0.2056  0.1434
 5957TIP3    H117807   7.610   2.998   3.535  0.8904 -0.2744  0.1249
 5957TIP3    H217808   7.667   2.965   3.671  0.9837  0.2066  0.2058
 5958TIP3   OH217809   6.680   0.997   3.185 -0.3246 -0.3099  0.7686
 5958TIP3    H117810   6.716   1.084   3.201 -1.1538  0.2623 -0.4048
 5958TIP3    H217811   6.682   0.987   3.090  1.8367 -2.4782  0.9714
 5959TIP3   OH217812   6.514   3.169   4.004 -0.6475 -0.3663 -0.5560
 5959TIP3    H117813   6.431   3.139   3.967 -1.2499 -0.1029  0.5358
 5959TIP3    H217814   6.529   3.255   3.965 -1.1083 -0.2367 -0.4522
 5960TIP3   OH217815   0.129   0.173   4.778 -0.5785 -0.7404 -0.0180
 5960TIP3    H117816   0.163   0.252   4.818 -1.0675 -0.0533 -0.9331
 5960TIP3    H217817   0.166   0.101   4.830  0.6963  0.0464  0.1694
 5961TIP3   OH217818   6.637   0.268   4.460 -0.2447  0.3557 -0.3732
 5961TIP3    H117819   6.717   0.247   4.412  0.4313  1.8437  0.0625
 5961TIP3    H217820   6.623   0.193   4.517  1.5485  0.6030  0.4304
 5962TIP3   OH217821   0.609   3.774   5.019 -0.4372  0.7829 -0.6194
 5962TIP3    H117822   0.521   3.808   5.005 -0.0510  1.7483 -0.7513
 5962TIP3    H217823   0.667   3.841   4.982  0.3441  0.0673 -0.7162
 5963TIP3   OH217824   6.915   2.223   5.777  0.1178 -0.5206 -0.1399
 5963TIP3    H117825   7.010   2.217   5.789  0.1398  0.2040  0.1007
 5963TIP3    H217826   6.904   2.249   5.685  0.3107  3.0292  0.7715
 5964TIP3   OH217827   7.959   2.274   5.670 -0.4443 -0.2188 -0.2059
 5964TIP3    H117828   7.915   2.222   5.603 -0.8036 -0.9110  0.5558
 5964TIP3    H217829   8.032   2.316   5.625 -0.7548 -0.5841 -1.0477
 5965TIP3   OH217830   3.569   7.902   3.107 -0.2552  0.4262  0.2179
 5965TIP3    H117831   3.612   7.970   3.056  0.8364 -0.0045  0.5513
 5965TIP3    H217832   3.477   7.927   3.108 -0.2566  0.5463 -1.7840
 5966TIP3   OH217833   6.343   0.242   4.474  0.0532 -0.3226  0.7480
 5966TIP3    H117834   6.432   0.272   4.457 -0.5405  1.3985  0.6043
 5966TIP3    H217835   6.317   0.286   4.554 -1.2270  0.4112 -0.0558
 5967TIP3   OH217836   5.669   1.793   3.843 -0.0854  0.2857 -0.4217
 5967TIP3    H117837   5.742   1.837   3.800 -1.2879  1.0145 -1.7549
 5967TIP3    H217838   5.638   1.857   3.908 -0.6916  0.7170 -1.1245
 5968TIP3   OH217839   7.082   0.769   4.923 -0.3084 -0.1940 -0.4609
 5968TIP3    H117840   7.157   0.710   4.915 -0.4380 -0.2075 -1.7313
 5968TIP3    H217841   7.105   0.845   4.870 -1.3881 -0.4041 -1.2568
 5969TIP3   OH217842   0.442   2.707   5.616  0.2347 -0.7245 -0.1765
 5969TIP3    H117843   0.468   2.722   5.707  0.4190  1.2773 -0.5412
 5969TIP3    H217844   0.523   2.714   5.565  0.1514 -1.9509 -0.5048
 5970TIP3   OH217845   5.269   7.560   4.853 -0.1552  0.6909 -0.0684
 5970TIP3    H117846   5.229   7.473   4.861 -1.0936  1.0195 -1.1483
 5970TIP3    H217847   5.303   7.579   4.941  1.3128 -1.3688 -0.1441
 5971TIP3   OH217848   4.293   7.761   5.012  0.6386  0.2632  1.3094
 5971TIP3    H117849   4.210   7.807   5.027  0.1457 -0.8235  2.0053
 5971TIP3    H217850   4.268   7.668   5.008  1.9928 -0.1884  2.8948
 5972TIP3   OH217851   5.859   0.276   4.926 -0.0205  0.2380  0.1633
 5972TIP3    H117852   5.858   0.184   4.899 -1.1440 -0.1580  1.5044
 5972TIP3    H217853   5.949   0.304   4.911 -0.0074 -0.6865 -1.5612
 5973TIP3   OH217854   8.040   1.164   6.058 -0.0427 -1.1026 -0.1504
 5973TIP3    H117855   7.980   1.176   6.131  1.5464 -0.4075  1.0734
 5973TIP3    H217856   7.997   1.206   5.984 -0.3560  0.8191  1.0847
 5974TIP3   OH217857   0.170   2.641   3.444  0.5336  0.0532 -0.0995
 5974TIP3    H117858   0.134   2.564   3.402 -0.4346  0.5021 -0.1099
 5974TIP3    H217859   0.232   2.677   3.381  0.2609 -0.1606 -0.4840
 5975TIP3   OH217860   4.224   7.972   5.419 -0.2243  0.5477 -0.0135
 5975TIP3    H117861   4.169   8.015   5.484 -1.9055 -0.3575 -0.7874
 5975TIP3    H217862   4.179   7.889   5.400  1.0295  0.1059 -1.1980
 5976TIP3   OH217863   7.931   1.517   6.188  0.0374  0.0989 -0.2354
 5976TIP3    H117864   7.923   1.519   6.284  0.5308 -0.4537 -0.1773
 5976TIP3    H217865   8.025   1.507   6.172  0.1304  1.7711 -0.8155
 5977TIP3   OH217866   3.843   6.864   3.231  0.7992 -0.3754  0.4356
 5977TIP3    H117867   3.912   6.848   3.295  1.4259 -1.0552 -0.3812
 5977TIP3    H217868   3.764   6.826   3.269  1.6854 -3.0067 -0.2548
 5978TIP3   OH217869   5.448   1.717   5.473  0.1826  0.6558 -0.1137
 5978TIP3    H117870   5.367   1.765   5.458  0.3656  0.4134 -2.0031
 5978TIP3    H217871   5.517   1.783   5.472  0.1042  0.7504  0.5863
 5979TIP3   OH217872   4.212   7.830   4.570 -0.6009 -0.0783 -0.4151
 5979TIP3    H117873   4.240   7.906   4.621  2.3963 -1.0131 -0.5325
 5979TIP3    H217874   4.211   7.861   4.479  1.9822 -0.4561 -0.6280
 5980TIP3   OH217875   7.681   2.849   4.049  0.5428  0.0369  0.0080
 5980TIP3    H117876   7.641   2.932   4.023  3.2649  0.9474 -1.5124
 5980TIP3    H217877   7.716   2.865   4.136  1.1830  0.5389 -0.3386
 5981TIP3   OH217878   7.287   1.993   4.099  0.3163 -0.0283  0.2095
 5981TIP3    H117879   7.331   2.041   4.169 -0.7870 -0.5562  1.2895
 5981TIP3    H217880   7.340   1.914   4.086  1.1274  0.5961 -0.3131
 5982TIP3   OH217881   7.499   0.502   6.724  0.4157 -0.2696  0.0194
 5982TIP3    H117882   7.504   0.531   6.633  0.9933 -1.2595 -0.2648
 5982TIP3    H217883   7.409   0.469   6.733 -0.2743  1.6219  0.3654
 5983TIP3   OH217884   5.299   0.246   5.935 -0.3951 -0.6202  0.2081
 5983TIP3    H117885   5.380   0.276   5.892 -0.4322 -1.5189 -0.4953
 5983TIP3    H217886   5.230   0.299   5.896 -0.0102  1.0168  1.6946
 5984TIP3   OH217887   3.738   7.542   6.404 -0.2789 -0.1260  0.2192
 5984TIP3    H117888   3.663   7.509   6.355 -1.6582  1.1993  1.4146
 5984TIP3    H217889   3.800   7.469   6.404 -1.3184 -1.0440 -1.2475
 5985TIP3   OH217890   6.194   6.645   5.738  0.7462  0.4911 -0.0146
 5985TIP3    H117891   6.169   6.572   5.681  1.3842  1.1060 -1.1033
 5985TIP3    H217892   6.199   6.607   5.826  1.3675 -0.8324 -0.6142
 5986TIP3   OH217893   6.694   7.236   6.000  0.4811  0.1913 -0.3443
 5986TIP3    H117894   6.625   7.202   6.057  0.7496 -1.6356 -1.0841
 5986TIP3    H217895   6.647   7.266   5.922  0.5786 -2.1003 -1.3363
 5987TIP3   OH217896   6.850   0.554   2.926  0.5006 -0.7584  0.1657
 5987TIP3    H117897   6.911   0.583   2.859 -0.0651  0.1833  0.0440
 5987TIP3    H217898   6.895   0.571   3.009  0.4993 -0.2860  0.0701
 5988TIP3   OH217899   7.126   2.703   4.403 -0.5442  0.1006 -0.1151
 5988TIP3    H117900   7.169   2.786   4.383 -0.3464 -0.0756 -0.4197
 5988TIP3    H217901   7.032   2.724   4.404 -0.6625 -0.2330 -2.8742
 5989TIP3   OH217902   6.420   0.597   5.510  0.2170  0.3162 -0.0503
 5989TIP3    H117903   6.507   0.615   5.474  0.7393  0.2767  1.1837
 5989TIP3    H217904   6.407   0.664   5.577  0.0988 -0.8499  1.1096
 5990TIP3   OH217905   6.316   1.111   5.112 -0.2486  0.1538  0.3405
 5990TIP3    H117906   6.406   1.077   5.110 -0.8403 -1.4511  0.0596
 5990TIP3    H217907   6.271   1.060   5.044 -1.8257 -0.3738  1.7642
 5991TIP3   OH217908   8.383   2.739   6.327 -0.0428 -0.1864 -0.5039
 5991TIP3    H117909   8.434   2.819   6.319 -0.0888  0.1894  2.3148
 5991TIP3    H217910   8.438   2.671   6.287  2.8372  0.1776  2.6413
 5992TIP3   OH217911   8.156   3.071   4.553 -0.6245 -0.0254  0.0770
 5992TIP3    H117912   8.125   2.981   4.541  0.9767 -0.4194 -1.3345
 5992TIP3    H217913   8.171   3.079   4.647 -0.8238 -1.2326  0.2169
 5993TIP3   OH217914   7.112   2.647   4.885 -0.0613  0.2901  0.3789
 5993TIP3    H117915   7.043   2.619   4.945  0.9030 -0.0813  1.3424
 5993TIP3    H217916   7.096   2.740   4.870 -0.9719  0.1207  0.3238
 5994TIP3   OH217917   7.684   2.236   4.579  0.4570  0.6338 -0.0094
 5994TIP3    H117918   7.764   2.224   4.527  2.0380 -0.5363  2.5978
 5994TIP3    H217919   7.700   2.316   4.629 -0.5263  1.0642 -0.3778
 5995TIP3   OH217920   2.720   7.500   5.285 -0.0885 -0.2760 -0.0865
 5995TIP3    H117921   2.677   7.414   5.283  2.8538 -1.8206  0.8324
 5995TIP3    H217922   2.743   7.517   5.194  2.6663 -2.2520  0.1894
 5996TIP3   OH217923   7.769   2.771   6.014  0.7167  0.5419  0.2380
 5996TIP3    H117924   7.799   2.711   5.946  0.6801  0.4876  0.2697
 5996TIP3    H217925   7.744   2.850   5.967 -1.7666 -0.4119 -0.1068
 5997TIP3   OH217926   2.852   7.738   4.195  0.5697 -0.1752  0.7415
 5997TIP3    H117927   2.827   7.653   4.160  1.0229 -0.4133  0.9921
 5997TIP3    H217928   2.908   7.776   4.127 -2.0993  1.2382 -0.7541
 5998TIP3   OH217929   4.828   0.407   4.165 -0.2123  0.0100 -0.7624
 5998TIP3    H117930   4.875   0.399   4.082  0.3523  1.6463 -0.6008
 5998TIP3    H217931   4.855   0.330   4.215  3.0494  1.3915 -0.2994
 5999TIP3   OH217932   0.722   1.856   1.261  0.0528  0.1126 -0.6921
 5999TIP3    H117933   0.795   1.810   1.219 -0.2024 -0.5231 -0.4473
 5999TIP3    H217934   0.736   1.842   1.355 -0.7928 -0.6498 -0.6755
 6000TIP3   OH217935   6.140   2.525   4.302  0.1362  0.0377 -0.1110
 6000TIP3    H117936   6.070   2.577   4.342 -0.0370  0.3436 -0.8161
 6000TIP3    H217937   6.190   2.588   4.250  1.0571 -0.1420  0.5492
 6001TIP3   OH217938   7.301   0.854   5.193 -0.0718 -0.4358  0.6783
 6001TIP3    H117939   7.238   0.784   5.208 -0.4599  0.2954  2.5564
 6001TIP3    H217940   7.289   0.878   5.101 -0.9382 -1.8555  0.4154
 6002TIP3   OH217941   0.091   2.292   6.027 -0.2110  0.2740 -0.1674
 6002TIP3    H117942   0.001   2.260   6.033 -0.2459  0.2945 -0.5352
 6002TIP3    H217943   0.142   2.230   6.080  0.0936 -1.8844 -2.8253
 6003TIP3   OH217944   5.422   7.888   5.823  0.0420  0.1134 -0.2127
 6003TIP3    H117945   5.464   7.946   5.759  0.5591 -1.6508 -1.4833
 6003TIP3    H217946   5.368   7.947   5.876  1.6735  1.9845 -0.5439
 6004TIP3   OH217947   6.489   3.404   3.742 -0.2992  0.4361 -0.5079
 6004TIP3    H117948   6.393   3.409   3.740 -0.2093  3.9728  0.6064
 6004TIP3    H217949   6.517   3.479   3.689  1.8655 -0.2893 -0.4130
 6005TIP3   OH217950   3.458   6.288   4.882  0.2658  0.1922  0.0156
 6005TIP3    H117951   3.506   6.230   4.823 -0.1712  1.1285 -1.2888
 6005TIP3    H217952   3.467   6.248   4.969  1.2592 -0.9824 -0.6238
 6006TIP3   OH217953   7.028   2.915   0.190 -0.1426 -0.2283 -0.5852
 6006TIP3    H117954   6.967   2.968   0.242  1.7487  2.4638 -0.9803
 6006TIP3    H217955   6.993   2.918   0.101 -0.5912 -0.5070 -0.4201
 6007TIP3   OH217956   3.000   7.655   3.986 -0.1087 -0.2376 -0.2630
 6007TIP3    H117957   2.991   7.560   3.994 -2.3404 -0.2270 -2.0970
 6007TIP3    H217958   3.039   7.667   3.899  1.2977  0.5128  0.4484
 6008TIP3   OH217959   6.651   1.614   5.001 -0.3982  0.2335  0.0167
 6008TIP3    H117960   6.702   1.586   4.926  0.6110  0.0825  0.7496
 6008TIP3    H217961   6.628   1.532   5.046  1.5860  0.4699  1.5307
 6009TIP3   OH217962   3.944   6.746   5.780  0.2419 -0.0570  0.7340
 6009TIP3    H117963   4.003   6.820   5.792 -2.0190  1.8748  0.3840
 6009TIP3    H217964   3.909   6.757   5.692 -0.7979 -1.0449  1.0107
 6010TIP3   OH217965   6.411   0.312   6.760  0.5080  0.3069 -0.5531
 6010TIP3    H117966   6.362   0.335   6.682  0.1853 -1.6931 -0.9700
 6010TIP3    H217967   6.351   0.257   6.811  1.7592 -0.9561 -0.3915
 6011TIP3   OH217968   3.991   0.026   5.357 -0.4337 -0.2085  0.5466
 6011TIP3    H117969   4.005   0.120   5.369 -0.6345  0.0382 -0.9894
 6011TIP3    H217970   3.916   0.006   5.412  0.2029  0.3313  1.6321
 6012TIP3   OH217971   7.028   1.421   2.495 -0.3897 -0.3412 -0.1714
 6012TIP3    H117972   6.958   1.365   2.463  0.6752 -2.1706  0.6298
 6012TIP3    H217973   7.001   1.509   2.470 -3.8335 -0.7696  1.6513
 6013TIP3   OH217974   7.903   2.881   6.414  0.2946 -0.0789  0.0043
 6013TIP3    H117975   7.890   2.957   6.357  0.3927  0.7398  1.0392
 6013TIP3    H217976   7.848   2.900   6.491 -0.7481 -1.6976 -0.3130
 6014TIP3   OH217977   6.555  -0.033   5.466 -0.2710  0.2150 -0.4779
 6014TIP3    H117978   6.562   0.014   5.383  0.7669 -0.0992 -0.5759
 6014TIP3    H217979   6.524   0.032   5.529 -1.5303  0.3371 -1.2136
 6015TIP3   OH217980   8.241   2.250   5.841 -0.3307  0.5479 -0.2333
 6015TIP3    H117981   8.262   2.329   5.891  0.7871  0.4446 -0.5307
 6015TIP3    H217982   8.151   2.229   5.866 -1.4728  3.2516 -1.9158
 6016TIP3   OH217983   6.320   1.826   4.021  0.1670  0.2038 -0.0660
 6016TIP3    H117984   6.329   1.877   4.101  1.9149 -1.4185  0.8188
 6016TIP3    H217985   6.386   1.863   3.962  1.4264 -0.9844  0.5714
 6017TIP3   OH217986   6.222   0.018   5.305 -0.0558 -0.0397  0.4491
 6017TIP3    H117987   6.153   0.038   5.242  0.9364 -0.6156 -0.8541
 6017TIP3    H217988   6.288   0.086   5.291 -0.6436  0.9246  2.1759
 6018TIP3   OH217989   3.695   7.600   5.099  0.3612 -0.2318  0.0933
 6018TIP3    H117990   3.735   7.521   5.063  1.2315  1.6823 -3.3336
 6018TIP3    H217991   3.764   7.639   5.152  1.2145  0.1310 -1.2503
 6019TIP3   OH217992   7.636   0.269   4.714  0.4165  0.3345 -0.2619
 6019TIP3    H117993   7.648   0.220   4.633 -0.5444  0.2270 -0.3394
 6019TIP3    H217994   7.568   0.221   4.761 -2.2160  2.8755 -1.3590
 6020TIP3   OH217995   3.667   6.400   2.353  0.6902  0.2823  1.0337
 6020TIP3    H117996   3.680   6.362   2.440  1.4804  1.0164  1.2467
 6020TIP3    H217997   3.598   6.465   2.365 -1.1318 -1.5011  0.5327
 6021TIP3   OH217998   3.466   6.594   2.311 -0.1503 -0.2520 -0.3215
 6021TIP3    H117999   3.505   6.650   2.378 -2.9368 -0.4405  1.5835
 6021TIP3    H218000   3.466   6.646   2.231 -0.8929  1.7100  0.9386
 6022TIP3   OH218001   8.135   0.841   4.971 -0.7109  0.0911  0.4330
 6022TIP3    H118002   8.162   0.754   5.002  1.0318  0.9435  1.3714
 6022TIP3    H218003   8.065   0.867   5.030  0.6358  0.4720  1.8887
 6023TIP3   OH218004   8.295   1.048   4.880 -0.1922  0.7129  0.1626
 6023TIP3    H118005   8.239   1.111   4.834  0.1001 -0.1194 -1.3907
 6023TIP3    H218006   8.239   0.972   4.895  0.1985  0.3127 -0.3851
 6024TIP3   OH218007   4.692   7.455   4.150 -0.3748 -0.4091 -0.2159
 6024TIP3    H118008   4.689   7.375   4.202 -0.5321  0.6805  1.4890
 6024TIP3    H218009   4.600   7.482   4.142 -0.1112  1.1711  1.7397
 6025TIP3   OH218010   6.567   0.365   3.469 -0.3214  0.3292 -0.6187
 6025TIP3    H118011   6.486   0.390   3.425 -1.1224  0.7355  1.0615
 6025TIP3    H218012   6.617   0.447   3.475  0.0096  0.1762 -1.1964
 6026TIP3   OH218013   7.176   2.185   5.060  0.8232 -0.4281 -0.0199
 6026TIP3    H118014   7.151   2.235   4.982 -1.2012  1.1863  1.6147
 6026TIP3    H218015   7.111   2.115   5.066 -0.0096  0.4342  1.1271
 6027TIP3   OH218016   2.980   6.898   5.183  0.0168  0.0564 -0.0475
 6027TIP3    H118017   2.956   6.917   5.274  0.0508  0.8956 -0.2057
 6027TIP3    H218018   3.021   6.812   5.187 -0.1955 -0.0225  0.6960
 6028TIP3   OH218019   6.582   0.038   1.442 -0.3572  0.2698  0.3466
 6028TIP3    H118020   6.534  -0.043   1.424  1.0990 -0.2790 -1.1655
 6028TIP3    H218021   6.578   0.048   1.537 -2.3403 -0.4557  0.3697
 6029TIP3   OH218022   4.918   7.687   6.355  0.0356 -0.5673 -0.2659
 6029TIP3    H118023   4.965   7.744   6.294 -0.9966  1.0281  0.3851
 6029TIP3    H218024   4.885   7.616   6.301 -0.2331  0.4284 -1.4487
 6030TIP3   OH218025   6.039   1.254   4.710 -0.6026 -0.5038 -0.0676
 6030TIP3    H118026   6.044   1.290   4.799 -0.7535  2.5344 -1.2526
 6030TIP3    H218027   5.959   1.201   4.710 -2.0267  1.5951  0.8727
 6031TIP3   OH218028   6.121   0.982   5.900  0.6699  0.3139 -0.2756
 6031TIP3    H118029   6.140   0.913   5.837  0.1592  1.2660 -1.5096
 6031TIP3    H218030   6.056   0.944   5.959  1.3524 -0.6800 -0.1687
 6032TIP3   OH218031   3.731   7.792   4.189 -1.0170  0.0192 -0.2321
 6032TIP3    H118032   3.645   7.822   4.221 -2.3477 -2.0772 -1.7157
 6032TIP3    H218033   3.720   7.784   4.095  0.6409 -0.8180 -0.3668
 6033TIP3   OH218034   7.329   0.866   6.079 -0.4918  0.2302  0.1831
 6033TIP3    H118035   7.371   0.908   6.004  1.0279 -0.3996  0.6628
 6033TIP3    H218036   7.356   0.918   6.154 -1.1659  0.2498  0.4136
 6034TIP3   OH218037   4.833   1.325   5.980 -0.0593 -0.2954 -0.1013
 6034TIP3    H118038   4.785   1.343   5.899  0.5461 -1.5621 -0.7574
 6034TIP3    H218039   4.799   1.241   6.010  1.4448 -1.0050 -0.3503
 6035TIP3   OH218040   6.415   2.015   5.242 -0.7884 -0.1480  0.3717
 6035TIP3    H118041   6.355   1.957   5.194 -2.4813  2.3947 -0.6819
 6035TIP3    H218042   6.399   1.994   5.334  0.6507 -3.2693 -0.0299
 6036TIP3   OH218043   4.690   2.242   2.752 -0.0623  0.2155 -0.4546
 6036TIP3    H118044   4.627   2.244   2.824 -0.0919  0.3998 -0.4858
 6036TIP3    H218045   4.743   2.164   2.769  0.9471  1.1288  0.6353
 6037TIP3   OH218046   2.324   6.036   0.048  0.2429  0.6909 -0.2363
 6037TIP3    H118047   2.325   6.099   0.120  1.2349  0.5253 -0.0919
 6037TIP3    H218048   2.308   5.952   0.090 -1.3967  0.8779 -0.4645
 6038TIP3   OH218049   0.761   2.616   5.766  0.1742 -0.0033 -0.0242
 6038TIP3    H118050   0.766   2.706   5.732  1.7008  0.2743  0.8692
 6038TIP3    H218051   0.699   2.621   5.838  0.8901  0.5225  0.5602
 6039TIP3   OH218052   7.683   0.167   5.466 -0.1343  0.1821  0.2733
 6039TIP3    H118053   7.761   0.221   5.461  1.8827 -2.5316  1.0556
 6039TIP3    H218054   7.683   0.117   5.384 -1.0041  0.0892  0.3218
 6040TIP3   OH218055   6.468   0.063   1.177 -0.5857 -0.7138 -0.0159
 6040TIP3    H118056   6.438   0.139   1.126 -2.5601 -0.3898  1.5338
 6040TIP3    H218057   6.481   0.098   1.265 -2.0420 -2.2767  0.8401
 6041TIP3   OH218058   7.179   1.468   5.392  0.7136 -0.2050  0.1715
 6041TIP3    H118059   7.171   1.533   5.322 -1.5511  0.9944  1.4881
 6041TIP3    H218060   7.145   1.387   5.353  1.3556 -0.0501 -0.7346
 6042TIP3   OH218061   5.255   2.305   6.361 -0.0982  0.3541 -0.2956
 6042TIP3    H118062   5.267   2.212   6.342 -1.7734  0.1895 -0.5777
 6042TIP3    H218063   5.189   2.334   6.299 -0.6966  1.3839  0.8076
 6043TIP3   OH218064   5.873   1.627   5.208  0.6201 -0.2148 -0.4808
 6043TIP3    H118065   5.856   1.712   5.167 -0.3499  1.1778  2.6608
 6043TIP3    H218066   5.967   1.625   5.222  1.0228 -0.8962 -3.0922
 6044TIP3   OH218067   5.711   1.397   4.823  0.4862  0.7094 -0.4798
 6044TIP3    H118068   5.738   1.324   4.768 -0.9508 -0.3641  0.1980
 6044TIP3    H218069   5.740   1.475   4.776  2.5511 -0.3021 -0.9370
 6045TIP3   OH218070   2.429   7.362   3.190  0.6042 -0.3191 -0.1313
 6045TIP3    H118071   2.492   7.321   3.131  0.4616 -0.7621  0.0200
 6045TIP3    H218072   2.428   7.454   3.164  1.3106 -0.3134 -0.1291
 6046TIP3   OH218073   7.964   2.053   5.108  0.4729 -0.5851 -0.1098
 6046TIP3    H118074   7.907   2.122   5.073 -0.1625 -1.0094  0.0783
 6046TIP3    H218075   8.037   2.048   5.046  1.0339  0.9356  0.3866
 6047TIP3   OH218076   1.714   1.547   1.618  0.4105 -0.2133  1.1315
 6047TIP3    H118077   1.783   1.487   1.588 -0.8834 -2.3195  2.2011
 6047TIP3    H218078   1.733   1.630   1.574  1.8883 -1.5862 -0.9240
 6048TIP3   OH218079   7.186   1.215   6.717 -0.0285 -0.4405 -0.2584
 6048TIP3    H118080   7.265   1.250   6.676 -0.2662 -1.4456 -1.5888
 6048TIP3    H218081   7.218   1.163   6.791  0.4934 -0.0677 -0.2181
 6049TIP3   OH218082   3.012   7.956   2.857 -0.0389  0.0878 -0.8055
 6049TIP3    H118083   3.006   7.957   2.952  2.9176  0.7511 -0.5699
 6049TIP3    H218084   2.951   8.023   2.828 -1.0962 -0.2519  0.6077
 6050TIP3   OH218085   6.768   2.203   5.452 -0.3515  0.2718  0.6042
 6050TIP3    H118086   6.725   2.120   5.473  1.2439 -0.2078  2.0900
 6050TIP3    H218087   6.849   2.177   5.409 -0.8259  1.1420 -0.8494
 6051TIP3   OH218088   6.329   0.319   3.086 -0.7101 -0.2377  0.0512
 6051TIP3    H118089   6.414   0.352   3.056 -0.7766  0.1745  0.3149
 6051TIP3    H218090   6.321   0.350   3.176 -1.1626 -0.2331  0.0111
 6052TIP3   OH218091   6.439   2.946   1.890 -0.2296 -0.7811  0.2568
 6052TIP3    H118092   6.524   2.902   1.885 -0.1207 -0.5193 -0.3144
 6052TIP3    H218093   6.416   2.963   1.798 -1.5684 -2.1453  0.3174
 6053TIP3   OH218094   1.810   7.139   3.074 -0.7213  0.1599 -0.5909
 6053TIP3    H118095   1.788   7.100   3.158  1.9403 -0.7663 -0.2620
 6053TIP3    H218096   1.758   7.091   3.009 -0.8449 -0.8817  0.2748
 6054TIP3   OH218097   3.045   7.291   5.346  0.6700 -0.2619  0.2967
 6054TIP3    H118098   2.998   7.233   5.287 -0.1481  2.3514 -1.7072
 6054TIP3    H218099   2.993   7.372   5.347  1.9464  0.5886  2.7313
 6055TIP3   OH218100   8.104   2.455   5.230 -0.0347  0.1676 -0.2313
 6055TIP3    H118101   8.067   2.489   5.149 -1.2296 -0.5267  0.0060
 6055TIP3    H218102   8.198   2.469   5.221 -0.3403  1.9201 -0.8713
 6056TIP3   OH218103   3.093   7.447   2.731 -0.2360  0.4574 -0.2692
 6056TIP3    H118104   3.115   7.441   2.638 -0.0656  0.3480 -0.2232
 6056TIP3    H218105   3.057   7.535   2.742 -1.9098 -0.1396 -0.7841
 6057TIP3   OH218106   6.418   1.874   0.202  0.0808 -0.3180 -0.1462
 6057TIP3    H118107   6.500   1.830   0.225  0.7669  1.0822  0.1441
 6057TIP3    H218108   6.405   1.938   0.272 -0.4281  0.5505 -1.0269
 6058TIP3   OH218109   0.492   2.041   5.858  0.0083  0.2196  0.0470
 6058TIP3    H118110   0.577   2.085   5.866 -0.3210  1.1071 -1.1458
 6058TIP3    H218111   0.485   1.989   5.938  2.5455 -1.4451 -0.7487
 6059TIP3   OH218112   6.746   0.805   5.209 -0.2024 -0.2514  0.2392
 6059TIP3    H118113   6.731   0.878   5.149  0.5922 -1.1497 -1.0787
 6059TIP3    H218114   6.810   0.838   5.272 -0.3544  0.3950  0.0571
 6060TIP3   OH218115   4.519   1.782   5.973  0.3962  0.2847 -0.9129
 6060TIP3    H118116   4.551   1.701   6.012 -1.6556 -0.6873 -1.2156
 6060TIP3    H218117   4.475   1.827   6.044  2.5905  1.7641 -0.4255
 6061TIP3   OH218118   7.112   2.616   5.978 -0.2124  0.0617 -0.2007
 6061TIP3    H118119   7.192   2.594   5.930 -0.6174  0.0145 -0.8664
 6061TIP3    H218120   7.091   2.537   6.028  1.2008  0.7127  1.4687
 6062TIP3   OH218121   6.087   1.401   1.225 -0.3571  0.8965  0.2764
 6062TIP3    H118122   6.102   1.330   1.287  0.2225  0.0824 -0.7810
 6062TIP3    H218123   6.087   1.358   1.139  1.3292  2.3524 -0.4745
 6063TIP3   OH218124   8.215   2.049   5.365 -0.0819  0.2937  0.3016
 6063TIP3    H118125   8.244   2.080   5.451  1.5750  0.9700 -0.4674
 6063TIP3    H218126   8.125   2.022   5.378  0.4956 -0.6481  2.5061
 6064TIP3   OH218127   5.901   2.846   1.035  0.6914  0.2036 -0.3389
 6064TIP3    H118128   5.850   2.828   0.956  3.2226 -1.1228 -1.7456
 6064TIP3    H218129   5.944   2.929   1.018  1.7786 -0.4157 -0.6627
 6065TIP3   OH218130   0.084   5.104   0.154 -0.0764  0.8748 -0.0788
 6065TIP3    H118131   0.145   5.070   0.089 -0.4309 -0.8568  0.4628
 6065TIP3    H218132   0.049   5.185   0.115  1.5204  1.1449 -0.9676
 6066TIP3   OH218133   5.976   3.268   3.336  0.7415  0.0590 -0.3258
 6066TIP3    H118134   6.056   3.314   3.361  0.3887  1.1479 -1.1554
 6066TIP3    H218135   5.908   3.305   3.392  0.5835  0.0740 -0.5238
 6067TIP3   OH218136   7.188   3.352   3.326 -0.3492  0.1960  0.0734
 6067TIP3    H118137   7.236   3.313   3.253 -1.3038  0.0305 -0.4682
 6067TIP3    H218138   7.250   3.349   3.400  0.4872  0.0415 -0.6281
 6068TIP3   OH218139   5.673   0.435   2.778  0.2736 -0.2916 -0.0831
 6068TIP3    H118140   5.763   0.468   2.778 -0.1095  0.7655 -0.4521
 6068TIP3    H218141   5.639   0.457   2.865  0.1833 -0.1515 -0.1530
 6069TIP3   OH218142   6.958   4.207   3.165  0.3348 -0.0991 -0.0805
 6069TIP3    H118143   6.953   4.242   3.254 -0.9625  1.0225 -0.5721
 6069TIP3    H218144   7.003   4.123   3.175 -0.7106 -0.4863  1.7866
 6070TIP3   OH218145   7.622   1.816   5.594  0.3345  0.1311  0.1128
 6070TIP3    H118146   7.537   1.809   5.551  0.4385 -0.4307  0.0046
 6070TIP3    H218147   7.610   1.887   5.658 -0.4178 -0.4248  0.5905
 6071TIP3   OH218148   2.784   6.749   3.501  0.2678 -0.5562 -0.3995
 6071TIP3    H118149   2.807   6.740   3.594 -0.7707 -3.9321 -0.3883
 6071TIP3    H218150   2.834   6.824   3.471  0.6475  0.6009  2.9029
 6072TIP3   OH218151   8.334   1.920   4.972  0.0708  0.6615 -0.0142
 6072TIP3    H118152   8.374   1.965   5.047 -0.3998  0.3117  0.4590
 6072TIP3    H218153   8.291   1.989   4.923 -0.6837  0.7311  0.7304
 6073TIP3   OH218154   4.717   7.645   4.935 -0.5346  0.6309  0.0037
 6073TIP3    H118155   4.641   7.677   4.887 -0.4724  0.6572 -0.0792
 6073TIP3    H218156   4.786   7.638   4.868  0.1623  2.6755  0.4673
 6074TIP3   OH218157   0.554   1.797   4.804 -0.0141 -0.1371 -0.1215
 6074TIP3    H118158   0.520   1.734   4.868  0.3166  1.0981  1.2926
 6074TIP3    H218159   0.632   1.754   4.767 -0.5367 -1.0911 -0.1314
 6075TIP3   OH218160   3.817   6.695   6.127 -0.2245 -0.0531 -0.4753
 6075TIP3    H118161   3.764   6.758   6.078  0.4721  0.8884 -0.0184
 6075TIP3    H218162   3.764   6.614   6.126 -1.0887  0.5075 -1.1052
 6076TIP3   OH218163   2.934   6.479   6.433  0.1085  0.0595 -0.0135
 6076TIP3    H118164   3.020   6.441   6.415  0.4040  1.2068 -1.1013
 6076TIP3    H218165   2.927   6.551   6.371 -1.4306  0.2930  0.4265
 6077TIP3   OH218166   3.672   7.667   5.524 -0.0508 -0.4691 -0.4564
 6077TIP3    H118167   3.610   7.627   5.463 -0.2855 -1.1847  0.2408
 6077TIP3    H218168   3.628   7.662   5.609  1.7144 -2.6890  0.3709
 6078TIP3   OH218169   5.500   0.480   6.207  0.0503  0.1652 -0.3637
 6078TIP3    H118170   5.460   0.495   6.292  0.9196  0.1971  0.0418
 6078TIP3    H218171   5.473   0.555   6.154 -0.3111  0.2559 -0.0515
 6079TIP3   OH218172   3.655   7.468   5.781  0.2697 -0.2110 -0.1370
 6079TIP3    H118173   3.626   7.559   5.784  0.1624 -0.2687  0.6852
 6079TIP3    H218174   3.578   7.418   5.753  0.0101 -0.1820  0.5227
 6080TIP3   OH218175   2.241   5.401   1.257 -0.6137  0.1974  0.0288
 6080TIP3    H118176   2.184   5.352   1.198  1.3866 -0.7430 -1.1660
 6080TIP3    H218177   2.181   5.445   1.318 -2.6004 -0.6056 -1.3128
 6081TIP3   OH218178   5.427   2.638   2.968  0.0542  0.0466 -0.2859
 6081TIP3    H118179   5.435   2.728   2.937  1.6247  0.4185  1.1411
 6081TIP3    H218180   5.333   2.626   2.984 -0.2061  1.2959 -0.8410
 6082TIP3   OH218181   5.996   1.417   4.472  0.5018 -0.0041  0.7683
 6082TIP3    H118182   6.029   1.388   4.557  2.8186  1.3321  0.3689
 6082TIP3    H218183   5.961   1.338   4.431  2.3429 -1.2902  1.6439
 6083TIP3   OH218184   4.861   6.931   5.279 -0.3882  0.2659 -0.3232
 6083TIP3    H118185   4.853   7.025   5.264 -1.0572  0.2009 -0.3562
 6083TIP3    H218186   4.785   6.893   5.236 -0.3623 -0.2502  0.0821
 6084TIP3   OH218187   5.931   0.761   5.197  0.4066  0.2788  0.2833
 6084TIP3    H118188   5.844   0.726   5.179  0.4278 -0.9798  2.5049
 6084TIP3    H218189   5.978   0.751   5.113 -1.5550  0.9818 -0.9244
 6085TIP3   OH218190   6.869   1.885   5.381 -0.2975 -0.1206  0.3686
 6085TIP3    H118191   6.803   1.889   5.450 -0.6774  0.6711 -0.0300
 6085TIP3    H218192   6.844   1.809   5.328 -0.6293 -0.0862  0.4756
 6086TIP3   OH218193   6.671   3.014   4.199 -0.4259  0.3844 -0.1928
 6086TIP3    H118194   6.747   3.013   4.140 -0.5244 -2.6748 -0.3547
 6086TIP3    H218195   6.599   3.044   4.144  0.5430  2.8742 -0.1566
 6087TIP3   OH218196   0.303   0.863   6.396  0.2157 -0.0691  0.2457
 6087TIP3    H118197   0.210   0.885   6.391  0.2085 -0.3840 -1.3183
 6087TIP3    H218198   0.316   0.829   6.484 -1.1537 -0.0488  0.4572
 6088TIP3   OH218199   6.664   2.771   1.034  0.2311 -0.4046 -0.1161
 6088TIP3    H118200   6.671   2.690   0.983 -2.3019  0.1807 -1.4732
 6088TIP3    H218201   6.630   2.835   0.971  1.3107  1.4736  1.1959
 6089TIP3   OH218202   5.661   3.316   4.823  0.2852 -0.5911 -0.0388
 6089TIP3    H118203   5.744   3.299   4.779  0.5152  0.5023 -0.0413
 6089TIP3    H218204   5.686   3.335   4.914  0.1834  1.1085 -0.3443
 6090TIP3   OH218205   0.148   3.047   5.959 -0.1621 -0.0961  0.7209
 6090TIP3    H118206   0.085   2.984   5.922 -0.6849  0.4349  0.6976
 6090TIP3    H218207   0.097   3.127   5.972  0.1861 -0.0609  1.9393
 6091TIP3   OH218208   1.463   2.939   4.492 -0.2900 -0.0015 -0.0148
 6091TIP3    H118209   1.389   2.996   4.508  0.1305  0.0412  1.8042
 6091TIP3    H218210   1.537   2.998   4.476 -0.2595 -0.0462 -0.0433
 6092TIP3   OH218211   1.029   3.107   3.559 -0.2042 -0.6317 -0.4477
 6092TIP3    H118212   0.951   3.131   3.607  0.1850 -1.0048  0.3756
 6092TIP3    H218213   1.023   3.012   3.547  0.3405 -0.7272  0.0110
 6093TIP3   OH218214   0.023   0.912   5.484 -0.2227 -0.3278 -0.2295
 6093TIP3    H118215   0.065   0.875   5.561 -0.4206 -1.7332 -0.7885
 6093TIP3    H218216   0.035   1.006   5.493  1.4419 -0.6043  0.5326
 6094TIP3   OH218217   6.817   3.521   4.229  0.2179 -0.2247 -0.2615
 6094TIP3    H118218   6.857   3.445   4.185 -1.2595 -0.1621 -1.7630
 6094TIP3    H218219   6.849   3.596   4.178  0.3939  0.0454  0.2437
 6095TIP3   OH218220   5.318   7.112   5.111 -0.3306 -0.7524  0.4748
 6095TIP3    H118221   5.387   7.066   5.159 -2.0610 -2.4559  1.4289
 6095TIP3    H218222   5.298   7.189   5.165  0.0313 -0.8785  0.7940
 6096TIP3   OH218223   7.997   1.227   5.229  0.5125 -0.0176  0.5817
 6096TIP3    H118224   8.091   1.214   5.224  0.6395  1.8491 -2.6893
 6096TIP3    H218225   7.982   1.315   5.196 -2.4699 -0.5804  0.2184
 6097TIP3   OH218226   0.091   0.141   5.440  0.0453  0.0671  0.1858
 6097TIP3    H118227   0.072   0.065   5.495  1.6143  0.3146  1.1179
 6097TIP3    H218228   0.169   0.180   5.480  0.9875  0.4891 -1.9846
 6098TIP3   OH218229   7.639   2.228   6.018 -0.2105  0.0578  0.1299
 6098TIP3    H118230   7.700   2.231   6.091  0.9234 -1.2477 -0.7217
 6098TIP3    H218231   7.676   2.287   5.952  1.0338 -1.9049 -1.0063
 6099TIP3   OH218232   5.332   7.535   6.224 -0.5562 -0.0167 -0.1041
 6099TIP3    H118233   5.368   7.619   6.194  0.0100  0.2212  1.2011
 6099TIP3    H218234   5.237   7.545   6.215 -0.6890  1.7739  2.4615
 6100TIP3   OH218235   1.610   1.577   0.425  0.1796 -0.6246 -0.2851
 6100TIP3    H118236   1.532   1.609   0.381  0.1940  0.2621  0.3060
 6100TIP3    H218237   1.664   1.656   0.438  0.5255 -0.9921  0.5833
 6101TIP3   OH218238   2.755   6.609   4.753 -0.0813  0.1711  0.1411
 6101TIP3    H118239   2.823   6.560   4.707  0.2319  0.7179  0.0273
 6101TIP3    H218240   2.800   6.654   4.824 -0.8026 -1.9379  2.0027
 6102TIP3   OH218241   0.804   3.927   4.919 -0.2417  0.1835  0.2672
 6102TIP3    H118242   0.844   3.965   4.841  0.9081  1.1533  1.3182
 6102TIP3    H218243   0.877   3.904   4.976 -1.0435 -1.0520  0.8424
 6103TIP3   OH218244   5.729   0.863   4.260  0.2211 -0.0290  0.1677
 6103TIP3    H118245   5.664   0.828   4.321 -1.4678 -0.1881 -1.6542
 6103TIP3    H218246   5.702   0.830   4.174  0.4742  3.0223 -1.1656
 6104TIP3   OH218247   7.101   1.630   5.161 -0.3567  0.0685 -0.3370
 6104TIP3    H118248   7.160   1.610   5.088 -0.2484 -0.6789 -0.0457
 6104TIP3    H218249   7.018   1.652   5.119 -0.5026 -1.0722 -0.6723
 6105TIP3   OH218250   7.705   0.821   5.115  0.2123  0.1740 -0.3874
 6105TIP3    H118251   7.700   0.902   5.167 -0.5397  0.0494 -0.2748
 6105TIP3    H218252   7.664   0.844   5.031 -0.9880 -0.4185  0.0417
 6106TIP3   OH218253   6.474   3.590   5.761 -0.2256  0.3627  0.1758
 6106TIP3    H118254   6.472   3.494   5.770  1.7331  0.2910  0.0787
 6106TIP3    H218255   6.385   3.613   5.733 -0.6273 -1.4632 -0.1355
 6107TIP3   OH218256   6.145   2.790   5.185  0.1712 -0.2365  0.1007
 6107TIP3    H118257   6.195   2.749   5.256 -1.2319  1.3430  2.0542
 6107TIP3    H218258   6.085   2.851   5.230  0.1736  1.7783 -2.5157
 6108TIP3   OH218259   7.213   3.198   6.443  0.1874 -0.4411  0.0829
 6108TIP3    H118260   7.253   3.216   6.527 -0.2559 -0.4797  0.3033
 6108TIP3    H218261   7.125   3.167   6.464  0.4887 -1.6197 -0.3459
 6109TIP3   OH218262   6.469   3.519   6.317  0.0257  0.3466  0.2290
 6109TIP3    H118263   6.417   3.438   6.313  0.4182  0.0875  0.4213
 6109TIP3    H218264   6.446   3.558   6.401 -0.6237  0.7455 -0.1261
 6110TIP3   OH218265   6.333   7.918   6.189  0.6087  0.4533 -0.1472
 6110TIP3    H118266   6.421   7.921   6.227  0.0435 -0.2060  1.2598
 6110TIP3    H218267   6.298   7.833   6.217 -0.3240  0.5466 -1.0305
 6111TIP3   OH218268   6.441   3.072   3.169 -0.5233  0.1028  0.2531
 6111TIP3    H118269   6.419   3.119   3.088 -1.3903 -0.3253  0.2370
 6111TIP3    H218270   6.536   3.063   3.166 -0.6230 -0.6842 -1.1644
 6112TIP3   OH218271   7.980   2.107   4.744  0.2432  0.5124 -0.1355
 6112TIP3    H118272   8.008   2.159   4.668  0.3096  1.0901  0.2792
 6112TIP3    H218273   8.031   2.142   4.817  1.7103 -1.4386 -0.1845
 6113TIP3   OH218274   4.396   2.050   3.708  0.1903  0.1669  0.2083
 6113TIP3    H118275   4.417   2.041   3.801 -1.1056 -2.0309  0.3169
 6113TIP3    H218276   4.415   1.964   3.671 -0.5364  0.6499 -1.3146
 6114TIP3   OH218277   4.250   4.324   1.790 -0.9035  0.2407  0.1212
 6114TIP3    H118278   4.183   4.258   1.803 -2.1886  1.5215  0.0549
 6114TIP3    H218279   4.204   4.407   1.797  0.4933  1.1230 -0.8795
 6115TIP3   OH218280   7.738   2.463   4.741 -0.3602  0.3488  0.5050
 6115TIP3    H118281   7.805   2.491   4.804 -1.5535  1.0943  1.4515
 6115TIP3    H218282   7.663   2.520   4.759 -1.1739 -0.3389 -0.6962
 6116TIP3   OH218283   7.586   2.533   3.718 -0.3352  0.5655 -0.0993
 6116TIP3    H118284   7.601   2.534   3.812 -2.8529  1.6248  0.3300
 6116TIP3    H218285   7.495   2.505   3.709  0.6672 -2.2084 -2.3644
 6117TIP3   OH218286   6.967   2.990   4.013 -0.0996  0.5274  0.3892
 6117TIP3    H118287   6.931   3.064   3.965 -1.9954 -0.6372 -0.0432
 6117TIP3    H218288   7.062   3.003   4.011 -0.3187  1.9499 -1.2545
 6118TIP3   OH218289   3.020   7.980   2.531 -0.5235  0.2639 -0.2629
 6118TIP3    H118290   3.003   8.070   2.501 -1.8200  0.2193  0.3076
 6118TIP3    H218291   3.074   7.991   2.609  0.9098  0.4669 -1.2588
 6119TIP3   OH218292   8.131   4.108   4.096  0.3050  0.1723  0.3978
 6119TIP3    H118293   8.201   4.162   4.059 -0.0530 -0.9686 -2.0094
 6119TIP3    H218294   8.175   4.029   4.126  0.2093 -0.0995 -0.1696
 6120TIP3   OH218295   5.979   2.797   4.122 -0.6416 -0.4681 -0.1357
 6120TIP3    H118296   6.022   2.726   4.073 -0.1031 -2.0461  2.5504
 6120TIP3    H218297   5.888   2.768   4.130 -1.2003  0.7139 -1.8168
 6121TIP3   OH218298   5.872   7.333   6.658 -0.5326  0.0128 -0.5778
 6121TIP3    H118299   5.931   7.407   6.646 -0.8926  0.3791 -0.0897
 6121TIP3    H218300   5.785   7.368   6.640 -0.5409 -0.6738 -1.8935
 6122TIP3   OH218301   8.053   2.904   6.028  0.6595 -0.5613  0.2450
 6122TIP3    H118302   8.067   2.991   6.066  0.9838 -1.1810  1.5759
 6122TIP3    H218303   7.995   2.860   6.090 -1.4174 -0.5151 -1.5880
 6123TIP3   OH218304   0.815   3.082   3.764  0.0771 -0.4788 -0.0684
 6123TIP3    H118305   0.719   3.073   3.760  0.1681 -1.3409 -0.4520
 6123TIP3    H218306   0.831   3.131   3.845 -0.7427  0.5458 -0.5227
 6124TIP3   OH218307   0.939   2.115   4.560 -0.7602 -0.2326  0.3016
 6124TIP3    H118308   0.898   2.200   4.576 -1.6171 -0.5138 -0.3462
 6124TIP3    H218309   0.871   2.051   4.582 -0.6827 -0.7050 -0.7983
 6125TIP3   OH218310   7.737   1.880   5.153  0.4616 -0.0179 -0.5166
 6125TIP3    H118311   7.805   1.947   5.150  0.5132 -0.0456 -0.0528
 6125TIP3    H218312   7.703   1.876   5.064  0.2737  0.8196 -0.4871
 6126TIP3   OH218313   6.921   1.129   4.811  0.4995  0.7901 -0.7752
 6126TIP3    H118314   6.872   1.198   4.767 -1.2822  0.7042  1.0342
 6126TIP3    H218315   6.894   1.048   4.767  0.0656  0.8899 -0.6911
 6127TIP3   OH218316   8.190   2.712   2.951  0.1159  0.0537  0.6363
 6127TIP3    H118317   8.208   2.805   2.958  3.9987 -0.3012 -2.5763
 6127TIP3    H218318   8.202   2.678   3.039 -0.3279  2.3750  1.6307
 6128TIP3   OH218319   7.147   3.022   4.465 -0.3878  0.1730 -0.0689
 6128TIP3    H118320   7.091   3.014   4.542 -0.7652 -0.0303 -0.3599
 6128TIP3    H218321   7.213   2.954   4.476  1.9093  2.6689  2.0151
 6129TIP3   OH218322   8.203   0.842   5.240 -0.0493 -0.0395 -0.0373
 6129TIP3    H118323   8.286   0.838   5.193 -0.9918  1.0677 -1.8055
 6129TIP3    H218324   8.180   0.750   5.256  0.7486 -0.3883 -0.8789
 6130TIP3   OH218325   5.717   7.744   5.669 -0.0042  0.1514  1.0723
 6130TIP3    H118326   5.659   7.668   5.670 -1.0918  0.9207 -0.7898
 6130TIP3    H218327   5.791   7.718   5.616 -0.6028  0.5267  0.0341
 6131TIP3   OH218328   4.477   7.968   4.367 -0.1609  0.3615  0.1836
 6131TIP3    H118329   4.481   7.966   4.271 -0.6743 -3.6659  0.1453
 6131TIP3    H218330   4.383   7.978   4.386 -0.2966 -0.8652  0.2113
 6132TIP3   OH218331   2.747   7.830   3.000 -1.2787 -0.4562 -0.0861
 6132TIP3    H118332   2.777   7.823   2.909 -0.7693  2.1224 -0.1465
 6132TIP3    H218333   2.730   7.739   3.027 -0.0485 -1.3617 -2.2746
 6133TIP3   OH218334   7.352   2.064   4.891  0.1243  0.5384 -0.2379
 6133TIP3    H118335   7.447   2.067   4.901 -0.0075 -1.5282  1.8383
 6133TIP3    H218336   7.318   2.090   4.976 -1.1364 -1.4716 -0.1015
 6134TIP3   OH218337   6.442   0.229   6.207  0.1078  0.3088 -0.4077
 6134TIP3    H118338   6.514   0.275   6.249 -0.2514 -1.5905  2.4261
 6134TIP3    H218339   6.478   0.199   6.123  1.9703  1.1442  0.0762
 6135TIP3   OH218340   1.277   3.164   3.973 -0.2952  0.7843 -0.2781
 6135TIP3    H118341   1.298   3.253   3.945 -0.0309  0.6969 -0.3662
 6135TIP3    H218342   1.265   3.170   4.068  0.4681  0.7773 -0.1770
 6136TIP3   OH218343   3.454   7.795   3.966 -0.1455 -0.0144 -0.0259
 6136TIP3    H118344   3.492   7.857   3.903  1.3079 -0.8385  0.0170
 6136TIP3    H218345   3.452   7.712   3.920 -0.2874 -0.3482  0.5767
 6137TIP3   OH218346   7.285   1.400   1.182 -0.0740  0.0380  0.3207
 6137TIP3    H118347   7.360   1.362   1.228 -1.3748 -1.1090  1.5556
 6137TIP3    H218348   7.221   1.418   1.252 -1.9841 -1.4829 -0.9588
 6138TIP3   OH218349   0.818   2.178   5.717  0.2873  0.0013  0.2020
 6138TIP3    H118350   0.878   2.111   5.684 -2.0615 -1.2886 -1.7144
 6138TIP3    H218351   0.788   2.143   5.801  1.2244  0.0159  0.5430
 6139TIP3   OH218352   4.495   2.777   0.633 -0.3309  0.0387 -0.7852
 6139TIP3    H118353   4.527   2.716   0.700 -1.4903 -0.5124 -0.7134
 6139TIP3    H218354   4.519   2.736   0.550  0.5445  0.4113 -0.7230
 6140TIP3   OH218355   1.489   0.048   4.982 -0.3016  0.2660 -0.4808
 6140TIP3    H118356   1.494   0.061   5.077  1.3371 -1.0162 -0.3801
 6140TIP3    H218357   1.544   0.116   4.945 -0.7762  0.6377 -0.5079
 6141TIP3   OH218358   0.623   2.386   1.095 -0.2094  0.2064 -0.2143
 6141TIP3    H118359   0.681   2.421   1.163 -0.6932  0.4138  0.0910
 6141TIP3    H218360   0.539   2.374   1.139 -1.0631  2.1490 -1.2693
 6142TIP3   OH218361   6.645   0.637   5.777  0.3461  0.6666 -0.3982
 6142TIP3    H118362   6.696   0.570   5.824 -0.3325  0.8336  0.6048
 6142TIP3    H218363   6.707   0.677   5.717  0.7799 -0.8263 -0.9545
 6143TIP3   OH218364   6.852   1.506   4.818 -0.2791 -0.5088  0.3507
 6143TIP3    H118365   6.843   1.456   4.737 -1.1349  0.8693 -0.4339
 6143TIP3    H218366   6.940   1.543   4.814 -1.2399  1.6921 -1.2287
 6144TIP3   OH218367   7.096   0.359   5.049  0.1204  0.1606  0.0225
 6144TIP3    H118368   7.012   0.404   5.045 -0.1111 -0.2520  0.2202
 6144TIP3    H218369   7.082   0.277   5.002  0.8427  0.7616 -1.2574
 6145TIP3   OH218370   2.299   5.157   0.760 -0.0914 -0.2696  0.1756
 6145TIP3    H118371   2.242   5.088   0.728 -0.9568  0.3300  0.4224
 6145TIP3    H218372   2.319   5.132   0.850  0.1353 -0.5370  0.0525
 6146TIP3   OH218373   7.350   0.893   4.915 -0.0500  0.3013 -0.1611
 6146TIP3    H118374   7.437   0.914   4.880 -0.0857  0.9974  0.1564
 6146TIP3    H218375   7.291   0.907   4.841  0.3833 -2.8633 -1.2156
 6147TIP3   OH218376   0.354   1.693   5.682  0.4735  0.3168  0.0142
 6147TIP3    H118377   0.407   1.757   5.730 -0.3585  1.2648 -0.3120
 6147TIP3    H218378   0.270   1.736   5.669 -0.4317 -1.2288  0.6448
 6148TIP3   OH218379   8.363   3.076   5.482 -0.4855 -0.2276 -0.1285
 6148TIP3    H118380   8.309   3.034   5.549  1.6279 -3.0687 -0.1124
 6148TIP3    H218381   8.316   3.058   5.400 -1.2438  0.1682  0.2109
 6149TIP3   OH218382   0.413   0.332   4.937 -0.2805  0.2175 -0.3681
 6149TIP3    H118383   0.450   0.382   4.865  0.4122 -0.5205 -0.5436
 6149TIP3    H218384   0.465   0.251   4.939 -1.0044 -0.2453  0.2580
 6150TIP3   OH218385   6.993   2.352   5.206  0.0045  0.1728 -0.2548
 6150TIP3    H118386   7.028   2.374   5.293 -0.4993 -0.9354  0.2399
 6150TIP3    H218387   7.056   2.288   5.171  0.0394  0.3811 -0.5700
 6151TIP3   OH218388   8.075   3.532   0.868 -0.0006 -0.2687 -0.5856
 6151TIP3    H118389   8.120   3.480   0.800  0.2245 -0.5771 -0.2031
 6151TIP3    H218390   8.138   3.600   0.891  0.2257 -0.6307 -0.1328
 6152TIP3   OH218391   6.924   2.930   4.648  0.0588  0.2413 -0.0316
 6152TIP3    H118392   6.854   2.884   4.694  0.6072 -1.0624 -0.4743
 6152TIP3    H218393   6.883   2.963   4.568  0.1008 -1.0486 -0.5831
 6153TIP3   OH218394   5.855   1.941   3.140 -0.0725  0.1561  0.0130
 6153TIP3    H118395   5.843   2.016   3.197 -2.2482 -0.5925  0.6099
 6153TIP3    H218396   5.818   1.969   3.056  1.5306  0.6482 -0.5462
 6154TIP3   OH218397   0.626   0.729   6.894 -0.4438  0.5138  0.6998
 6154TIP3    H118398   0.718   0.704   6.892 -0.8458 -1.0379 -2.7047
 6154TIP3    H218399   0.590   0.688   6.972  1.6516  0.8391  1.8485
 6155TIP3   OH218400   3.440   4.156   0.955 -0.3227  0.0713  0.1975
 6155TIP3    H118401   3.468   4.123   1.041 -1.7750 -1.5728  0.0578
 6155TIP3    H218402   3.498   4.113   0.893 -0.2246  0.1422  0.2391
 6156TIP3   OH218403   3.428   6.401   0.063  0.2745  0.0958  0.1162
 6156TIP3    H118404   3.437   6.372   0.154 -0.3485 -1.0204 -0.1676
 6156TIP3    H218405   3.502   6.461   0.050  0.5357  0.0395  1.2692
 6157TIP3   OH218406   1.367   2.515   5.397 -0.5798 -0.0216  0.3577
 6157TIP3    H118407   1.417   2.596   5.389  2.0676 -1.4804  1.7060
 6157TIP3    H218408   1.432   2.445   5.393 -2.8215 -2.1462 -0.9650
 6158TIP3   OH218409   0.260   4.991   6.473 -0.4129  0.1995  0.4764
 6158TIP3    H118410   0.188   4.930   6.464 -0.7958  0.5240  1.2956
 6158TIP3    H218411   0.306   4.962   6.552 -0.2942  0.6536  0.5742
 6159TIP3   OH218412   7.025   2.652   5.436 -0.5188 -0.0057 -0.5127
 6159TIP3    H118413   7.042   2.586   5.503 -2.2708  1.1616  1.1349
 6159TIP3    H218414   6.964   2.610   5.376 -2.1749  0.2979  0.9100
 6160TIP3   OH218415   1.085   2.350   6.286 -0.4766  0.6414  0.2526
 6160TIP3    H118416   1.176   2.347   6.257 -1.1677  0.7390 -1.9719
 6160TIP3    H218417   1.056   2.439   6.266 -1.3390  0.3402  0.1418
 6161TIP3   OH218418   0.767   2.022   6.531 -0.3438  0.0582  0.5266
 6161TIP3    H118419   0.688   1.984   6.570  0.8018 -0.5943  2.2449
 6161TIP3    H218420   0.759   2.116   6.549 -3.1395  0.7400 -3.6697
 6162TIP3   OH218421   1.794   0.998   4.046 -0.0221 -0.3368  0.1974
 6162TIP3    H118422   1.802   0.927   4.109 -1.1709  0.6706  1.4933
 6162TIP3    H218423   1.762   0.956   3.966  0.3351 -1.4283  0.6231
 6163TIP3   OH218424   1.811   0.512   3.982 -0.4667 -0.5574  0.1844
 6163TIP3    H118425   1.839   0.426   4.014 -1.2600 -0.7461  0.3920
 6163TIP3    H218426   1.871   0.574   4.023  0.4088 -1.0508 -0.3406
 6164TIP3   OH218427   1.902   0.357   4.685 -0.2709 -0.4333 -0.1684
 6164TIP3    H118428   1.922   0.409   4.607 -0.7709  0.1129  0.0673
 6164TIP3    H218429   1.826   0.304   4.658  0.3698 -1.2146 -0.4803
 6165TIP3   OH218430   2.451   2.678   4.212 -0.4182 -0.0004  0.2040
 6165TIP3    H118431   2.503   2.673   4.132 -0.4366  0.3239  0.1730
 6165TIP3    H218432   2.361   2.661   4.184 -0.3579 -0.3716  0.2294
 6166TIP3   OH218433   0.554   0.080   4.894  0.2624  0.8456 -0.3315
 6166TIP3    H118434   0.545   0.049   4.804 -1.4067  1.6306 -0.4539
 6166TIP3    H218435   0.548   0.001   4.948 -2.3011  0.7622 -0.7240
 6167TIP3   OH218436   1.081   1.134   5.425 -0.5500  0.1679  0.4717
 6167TIP3    H118437   1.168   1.125   5.385 -0.3206  0.4990  0.8968
 6167TIP3    H218438   1.098   1.138   5.519 -1.0504 -0.0614  0.5713
 6168TIP3   OH218439   0.519   0.942   6.760 -0.4173 -0.1596 -0.1202
 6168TIP3    H118440   0.592   0.979   6.710  0.6118 -2.6311 -0.5449
 6168TIP3    H218441   0.558   0.868   6.807 -2.3927 -0.7713  0.6109
 6169TIP3   OH218442   0.788   5.178   6.386 -0.0035 -0.4427 -0.0193
 6169TIP3    H118443   0.743   5.115   6.329  0.6019 -3.1018  2.3557
 6169TIP3    H218444   0.820   5.245   6.326 -1.3518 -1.9844 -2.5476
 6170TIP3   OH218445   2.992   0.399   4.223 -0.2602 -0.8820  0.3224
 6170TIP3    H118446   2.977   0.376   4.131 -1.0012 -1.3956  0.5692
 6170TIP3    H218447   2.942   0.479   4.237 -0.2224 -0.8551  0.3029
 6171TIP3   OH218448   2.155   2.321   6.172 -0.2005 -0.4043 -0.0493
 6171TIP3    H118449   2.142   2.260   6.244  0.0903 -0.4574 -0.0401
 6171TIP3    H218450   2.145   2.267   6.093  0.3681 -0.5286 -0.0378
 6172TIP3   OH218451   2.463   0.281   6.047  0.1576  0.1483 -0.1788
 6172TIP3    H118452   2.386   0.299   5.993  0.2897 -0.2546 -0.5047
 6172TIP3    H218453   2.537   0.302   5.990  0.3100 -0.9499 -0.3988
 6173TIP3   OH218454   6.446   7.685   4.644  0.2280  0.1338 -0.1659
 6173TIP3    H118455   6.505   7.620   4.681 -0.8221 -0.8139 -0.1320
 6173TIP3    H218456   6.412   7.645   4.565 -1.8459 -0.1463  0.8220
 6174TIP3   OH218457   2.227   2.095   4.614 -0.6516  0.6124 -0.0075
 6174TIP3    H118458   2.254   2.045   4.691  0.5165  1.6380  0.2545
 6174TIP3    H218459   2.256   2.184   4.632 -1.4430  1.1006 -1.1100
 6175TIP3   OH218460   6.420   2.814   6.309  0.4146 -0.3533  1.1285
 6175TIP3    H118461   6.328   2.799   6.328 -0.0678 -0.9473 -1.5397
 6175TIP3    H218462   6.425   2.907   6.286  0.2940 -0.5853  0.1752
 6176TIP3   OH218463   0.972   2.613   6.898 -0.1791  0.8349  0.2841
 6176TIP3    H118464   0.939   2.637   6.812  0.2590 -0.0537 -0.1375
 6176TIP3    H218465   0.927   2.531   6.919 -1.3551  1.7646  1.5241
 6177TIP3   OH218466   1.521   3.496   5.358 -0.5818  0.7160  0.4033
 6177TIP3    H118467   1.508   3.482   5.452 -0.4633 -1.6104  0.1215
 6177TIP3    H218468   1.512   3.408   5.320  2.9473  1.0356 -1.3215
 6178TIP3   OH218469   6.558   6.849   6.625  0.0952  0.0053 -0.2558
 6178TIP3    H118470   6.556   6.755   6.609  1.6061 -0.0834 -0.0279
 6178TIP3    H218471   6.486   6.865   6.686 -1.1562 -0.7579 -1.5264
 6179TIP3   OH218472   6.629   0.326   0.130  0.1130  0.2449 -0.1030
 6179TIP3    H118473   6.545   0.284   0.151  1.0681 -2.3742 -1.3038
 6179TIP3    H218474   6.686   0.303   0.204  0.4998 -0.2046 -0.5358
 6180TIP3   OH218475   6.924   7.729   3.769 -1.0049  0.5291 -0.3340
 6180TIP3    H118476   7.003   7.768   3.730 -1.9020  1.3295 -1.3995
 6180TIP3    H218477   6.856   7.796   3.757 -1.0068  1.4547  3.9695
 6181TIP3   OH218478   2.547   3.941   4.171 -0.9721 -0.0642  0.3913
 6181TIP3    H118479   2.487   3.919   4.242 -1.2025  3.4320  1.3719
 6181TIP3    H218480   2.634   3.944   4.212 -0.6286 -1.2453 -0.2071
 6182TIP3   OH218481   7.189   2.025   6.222 -0.2943 -0.0125 -0.3069
 6182TIP3    H118482   7.223   1.944   6.260  0.5083  1.3775  2.1003
 6182TIP3    H218483   7.264   2.065   6.179 -0.1257  0.5715  0.5284
 6183TIP3   OH218484   2.233   1.481   2.915 -0.8306 -0.2729 -0.2666
 6183TIP3    H118485   2.166   1.449   2.976  0.9559 -1.0093  1.3492
 6183TIP3    H218486   2.275   1.401   2.882 -0.7467  0.1867 -1.2680
 6184TIP3   OH218487   2.067   1.305   4.363  0.5218 -0.5247 -0.1189
 6184TIP3    H118488   2.012   1.247   4.415 -0.5288  1.0077  0.5088
 6184TIP3    H218489   2.089   1.254   4.285  0.8504 -2.2851  1.1075
 6185TIP3   OH218490   2.689   1.237   4.256  0.0624  0.3178 -0.2075
 6185TIP3    H118491   2.758   1.171   4.245 -0.8639 -0.5191 -1.0531
 6185TIP3    H218492   2.631   1.199   4.322 -0.5251  0.2323 -0.7670
 6186TIP3   OH218493   7.498   7.367   5.737 -0.0280  0.0491  0.3089
 6186TIP3    H118494   7.445   7.288   5.744 -1.5049  0.9949 -0.1266
 6186TIP3    H218495   7.508   7.382   5.643  1.5249 -0.4547  0.3818
 6187TIP3   OH218496   0.943   0.626   6.165 -0.3834 -0.1930  0.3254
 6187TIP3    H118497   0.880   0.575   6.114 -0.2664 -1.9372  1.9003
 6187TIP3    H218498   0.892   0.662   6.237 -0.0204  0.2365  0.3715
 6188TIP3   OH218499   0.296   0.047   5.697  0.5225 -0.6155  0.2575
 6188TIP3    H118500   0.321   0.125   5.747 -0.5808  0.7407 -1.2428
 6188TIP3    H218501   0.378   0.013   5.662  0.8200  1.0383 -0.7073
 6189TIP3   OH218502   0.141   1.880   5.675 -0.0325 -0.4425 -0.1986
 6189TIP3    H118503   0.156   1.970   5.704 -1.3467 -0.4165  0.4511
 6189TIP3    H218504   0.075   1.887   5.607  1.7035 -0.6901 -1.9503
 6190TIP3   OH218505   0.111   5.237   4.040  0.0578 -0.1046  0.3738
 6190TIP3    H118506   0.086   5.198   4.124  0.6942  1.6338  1.4204
 6190TIP3    H218507   0.197   5.277   4.058 -0.0052  0.6576 -0.9749
 6191TIP3   OH218508   3.634   5.601   0.810 -0.1940 -0.0649  0.2923
 6191TIP3    H118509   3.547   5.591   0.773 -1.4867 -0.9446  3.4008
 6191TIP3    H218510   3.640   5.532   0.877  2.8310  0.0560  0.2253
 6192TIP3   OH218511   7.349   7.839   4.673 -0.4894  0.0141  0.6541
 6192TIP3    H118512   7.422   7.816   4.615 -1.1286 -0.1078 -0.1161
 6192TIP3    H218513   7.271   7.827   4.619 -1.1238 -0.4418  1.6499
 6193TIP3   OH218514   1.511   1.587   6.454 -0.2209 -0.3132 -0.0334
 6193TIP3    H118515   1.484   1.502   6.490  1.6740 -0.1213  1.9107
 6193TIP3    H218516   1.500   1.648   6.526 -0.9536  1.0118 -1.2367
 6194TIP3   OH218517   2.419   3.299   5.242  0.4349  0.5313  0.4158
 6194TIP3    H118518   2.343   3.308   5.185  1.0362 -1.5895 -0.7689
 6194TIP3    H218519   2.444   3.207   5.235  1.1309  0.4269  3.3496
 6195TIP3   OH218520   2.733   4.577   5.621  0.1921  0.6139 -0.4883
 6195TIP3    H118521   2.676   4.505   5.648 -0.8249  1.0662 -1.3744
 6195TIP3    H218522   2.769   4.610   5.703 -1.3588  0.7382  0.1784
 6196TIP3   OH218523   2.627   0.113   2.409  0.0063  0.4228 -0.4166
 6196TIP3    H118524   2.672   0.069   2.482 -1.2042 -1.5804 -0.8290
 6196TIP3    H218525   2.534   0.095   2.424 -0.3244  0.8959 -1.8665
 6197TIP3   OH218526   8.518   1.243   6.228  0.2181  0.0580  0.3018
 6197TIP3    H118527   8.447   1.236   6.164  0.8342 -0.6811 -0.3154
 6197TIP3    H218528   8.510   1.163   6.281  1.4167 -0.7050 -0.6463
 6198TIP3   OH218529   2.895   4.855   3.770  0.3322 -0.5563  0.0965
 6198TIP3    H118530   2.983   4.886   3.749  0.5738 -1.5736 -0.3761
 6198TIP3    H218531   2.839   4.932   3.756  0.9430 -0.2979 -0.9483
 6199TIP3   OH218532   2.303   7.010   0.349  0.0584  0.0299 -0.0144
 6199TIP3    H118533   2.249   6.941   0.313  0.9319 -0.3972 -0.5234
 6199TIP3    H218534   2.352   7.044   0.274  0.7696  0.1539  0.4965
 6200TIP3   OH218535   0.498   1.397   6.189  0.3076 -0.0585 -0.2596
 6200TIP3    H118536   0.413   1.404   6.145  0.4418  0.1952 -0.4749
 6200TIP3    H218537   0.551   1.342   6.131  0.5015  0.3207 -0.4439
 6201TIP3   OH218538   2.101   1.707   4.795  0.1919  0.6850 -0.3572
 6201TIP3    H118539   2.046   1.756   4.734 -0.6266  0.1529 -0.0484
 6201TIP3    H218540   2.088   1.616   4.771 -0.2359  0.4620  0.7020
 6202TIP3   OH218541   0.827   3.368   5.957 -0.5911  0.1873 -0.7281
 6202TIP3    H118542   0.834   3.461   5.978  0.5477 -0.2631  1.0000
 6202TIP3    H218543   0.871   3.358   5.872  2.2021  0.7042  0.6151
 6203TIP3   OH218544   2.154   4.818   3.675  0.8529  0.4086  0.4344
 6203TIP3    H118545   2.210   4.775   3.610  0.1489 -0.2689  0.2576
 6203TIP3    H218546   2.135   4.749   3.739  1.3766  1.0205  1.2592
 6204TIP3   OH218547   1.694   0.241   5.430  0.3587  0.0505  0.4303
 6204TIP3    H118548   1.681   0.181   5.504 -1.8451  0.7231  0.6221
 6204TIP3    H218549   1.740   0.315   5.469 -2.6722  1.3766  1.6950
 6205TIP3   OH218550   0.763   2.335   4.684  0.1533  0.0364  0.5635
 6205TIP3    H118551   0.672   2.363   4.673  0.2249 -0.2431 -0.9399
 6205TIP3    H218552   0.769   2.305   4.774 -0.6868  2.0814  1.3297
 6206TIP3   OH218553   0.852   2.660   5.167  0.2590  0.1518 -0.1259
 6206TIP3    H118554   0.850   2.581   5.114  1.1139 -1.5682  2.3239
 6206TIP3    H218555   0.905   2.637   5.244 -1.7120  2.2541  1.9542
 6207TIP3   OH218556   3.416   2.656   5.947  0.1330 -0.4098 -0.0230
 6207TIP3    H118557   3.427   2.561   5.940  2.1835 -0.3023  1.3696
 6207TIP3    H218558   3.489   2.692   5.896  1.4492  0.3886  2.3766
 6208TIP3   OH218559   2.613   6.962   0.804 -0.1150  0.0508  0.7726
 6208TIP3    H118560   2.702   6.969   0.770 -0.2630 -0.4609  0.2581
 6208TIP3    H218561   2.557   6.978   0.727 -0.4555 -0.9650  0.7999
 6209TIP3   OH218562   6.592   0.360   5.587  0.5849  0.3612  0.2311
 6209TIP3    H118563   6.568   0.354   5.495 -1.6709  0.2163  0.7947
 6209TIP3    H218564   6.592   0.454   5.606  0.1666  0.3479  0.2997
 6210TIP3   OH218565   0.383   3.712   6.211 -0.6524 -0.5010  0.0197
 6210TIP3    H118566   0.368   3.769   6.135  1.5532 -0.1864 -0.2105
 6210TIP3    H218567   0.321   3.743   6.276 -1.0509  0.6850 -0.8971
 6211TIP3   OH218568   1.117   3.551   5.922 -0.1554  0.3417 -0.5201
 6211TIP3    H118569   1.191   3.608   5.940  1.1599 -1.9660  1.7119
 6211TIP3    H218570   1.052   3.608   5.881  1.7224  3.0478  0.1492
 6212TIP3   OH218571   1.699   1.703   4.231 -0.1118  0.4013 -0.1824
 6212TIP3    H118572   1.647   1.776   4.200 -3.2284 -1.8309 -0.4054
 6212TIP3    H218573   1.747   1.673   4.153  1.0400  2.0583 -0.1218
 6213TIP3   OH218574   1.483   2.175   5.697  0.4242  0.1628 -0.3529
 6213TIP3    H118575   1.541   2.251   5.699  0.4588  0.1201  0.6219
 6213TIP3    H218576   1.474   2.149   5.789  1.6743 -1.9518 -0.7731
 6214TIP3   OH218577   7.234   0.361   0.872 -0.0452  0.2264 -0.0326
 6214TIP3    H118578   7.299   0.293   0.888  0.4483  0.3890 -1.3260
 6214TIP3    H218579   7.241   0.418   0.949 -0.6077 -1.2725  1.1575
 6215TIP3   OH218580   0.573   1.665   6.898  0.0513  0.5049 -0.1062
 6215TIP3    H118581   0.478   1.677   6.891 -0.1190  0.1814  1.4168
 6215TIP3    H218582   0.584   1.570   6.899  0.1571  0.5085  2.2206
 6216TIP3   OH218583   1.159   2.231   2.932 -0.0176  0.1758 -0.8146
 6216TIP3    H118584   1.137   2.301   2.994 -1.4168 -0.6797 -0.3141
 6216TIP3    H218585   1.144   2.269   2.846 -2.6998 -0.0697 -0.5092
 6217TIP3   OH218586   1.835   3.713   6.672 -0.2717 -0.0984  0.4646
 6217TIP3    H118587   1.793   3.713   6.585 -0.1629  2.2129  0.3551
 6217TIP3    H218588   1.920   3.754   6.657 -0.5884  1.1088  1.7786
 6218TIP3   OH218589   1.320   4.073   4.956 -0.3333 -0.0368  0.1279
 6218TIP3    H118590   1.392   4.018   4.986  0.2989  0.5171 -0.3654
 6218TIP3    H218591   1.335   4.084   4.862  0.5166  2.3683  0.5010
 6219TIP3   OH218592   6.497   1.451   6.373 -0.4579 -0.1726  0.5571
 6219TIP3    H118593   6.507   1.546   6.375 -0.2596 -0.2015  1.3701
 6219TIP3    H218594   6.419   1.436   6.319 -1.2208  0.5247  1.4434
 6220TIP3   OH218595   6.718   7.256   4.722 -0.3962  0.3620  0.7951
 6220TIP3    H118596   6.809   7.277   4.743 -0.0796 -0.5674  0.3739
 6220TIP3    H218597   6.681   7.226   4.805 -0.3695  0.8994  1.0040
 6221TIP3   OH218598   1.468   3.338   5.844 -0.0824  0.1353 -0.0235
 6221TIP3    H118599   1.423   3.290   5.914 -0.8308 -0.3605 -0.8319
 6221TIP3    H218600   1.476   3.274   5.773  2.0971  0.1486  0.1772
 6222TIP3   OH218601   2.601   0.673   5.527  0.0168  0.2873  0.1572
 6222TIP3    H118602   2.601   0.595   5.473 -0.6373 -0.3352  1.0470
 6222TIP3    H218603   2.574   0.744   5.468 -0.5767 -0.3656 -0.3556
 6223TIP3   OH218604   8.088   5.078   6.834 -0.1117 -0.2444 -0.6887
 6223TIP3    H118605   8.158   5.027   6.794  0.2693 -0.5581  0.3716
 6223TIP3    H218606   8.079   5.042   6.922 -0.4729  0.9047 -0.2489
 6224TIP3   OH218607   0.288   1.930   5.007  0.2317 -0.7690  0.3205
 6224TIP3    H118608   0.341   1.995   4.960 -0.1141  0.4675  1.6137
 6224TIP3    H218609   0.199   1.944   4.975  0.5291 -2.4029 -1.3541
 6225TIP3   OH218610   2.189   2.317   5.674  0.1496 -0.0925  0.1642
 6225TIP3    H118611   2.202   2.399   5.627  0.7452  0.3100  1.0142
 6225TIP3    H218612   2.236   2.329   5.757  0.5241 -1.4084  0.1619
 6226TIP3   OH218613   0.065   1.910   4.819 -0.0438  1.1252 -0.0304
 6226TIP3    H118614   0.078   1.837   4.758  1.2709  1.0194  0.3674
 6226TIP3    H218615  -0.030   1.917   4.828 -0.1754 -0.6758  0.0933
 6227TIP3   OH218616   0.208   6.177   4.787 -0.5229  0.3204  0.2897
 6227TIP3    H118617   0.169   6.130   4.713 -0.3097 -1.7683  1.4694
 6227TIP3    H218618   0.233   6.108   4.848 -1.7266  2.0807  2.8350
 6228TIP3   OH218619   3.379   5.065   0.258  0.3284  0.7964  0.2557
 6228TIP3    H118620   3.447   5.038   0.197 -0.8099  0.1026 -0.7514
 6228TIP3    H218621   3.420   5.059   0.345  1.4951  0.2731 -0.3225
 6229TIP3   OH218622   7.083   7.086   4.872  0.2088  0.0401 -0.3229
 6229TIP3    H118623   7.166   7.039   4.884 -0.3308 -0.1417  3.4630
 6229TIP3    H218624   7.109   7.174   4.848  1.6177  0.2425  1.7481
 6230TIP3   OH218625   1.990   1.669   5.913  0.3240 -0.0441  0.5657
 6230TIP3    H118626   1.930   1.612   5.865  1.1011 -0.4389  0.0447
 6230TIP3    H218627   1.940   1.700   5.988 -0.4553 -0.5465  0.2556
 6231TIP3   OH218628   0.564   1.714   6.137 -0.0878 -0.4412  1.0096
 6231TIP3    H118629   0.579   1.620   6.135  1.0440 -0.2657  1.3038
 6231TIP3    H218630   0.616   1.749   6.065 -0.6594 -0.0561  0.7763
 6232TIP3   OH218631   2.265   1.217   4.776 -0.7442  0.0719 -0.2982
 6232TIP3    H118632   2.344   1.246   4.823 -1.2109  1.8117 -0.5693
 6232TIP3    H218633   2.193   1.251   4.829 -1.3018 -0.4491 -0.7257
 6233TIP3   OH218634   2.020   1.792   4.400 -0.1005  0.0410 -0.0927
 6233TIP3    H118635   1.976   1.750   4.326 -0.7235  1.7686 -0.7356
 6233TIP3    H218636   2.113   1.781   4.382 -0.2426 -2.1246  0.3879
 6234TIP3   OH218637   3.966   1.410   4.540  0.1122 -0.8993 -0.1284
 6234TIP3    H118638   3.875   1.384   4.555 -1.0064  1.0858 -2.9957
 6234TIP3    H218639   4.003   1.339   4.488 -0.1733 -1.0693 -0.1020
 6235TIP3   OH218640   2.522   4.652   0.820  0.0230 -0.6011  0.0115
 6235TIP3    H118641   2.606   4.615   0.791  0.4945 -0.3920  1.0893
 6235TIP3    H218642   2.529   4.656   0.915 -1.3525 -0.9061  0.1349
 6236TIP3   OH218643   0.419   3.594   5.300 -0.4131 -0.3899  0.0026
 6236TIP3    H118644   0.494   3.654   5.299 -0.4440 -0.3668 -0.5415
 6236TIP3    H218645   0.412   3.568   5.392 -0.0526  0.0046  0.1452
 6237TIP3   OH218646   1.261   1.475   6.803 -0.1956  0.2703 -0.0872
 6237TIP3    H118647   1.214   1.548   6.761 -2.2528 -0.5495  0.6934
 6237TIP3    H218648   1.215   1.462   6.886 -1.7921 -3.8096 -1.4841
 6238TIP3   OH218649   1.617   2.260   4.625 -0.3842 -0.5516 -0.0419
 6238TIP3    H118650   1.556   2.331   4.606 -0.2861 -0.4263  0.1109
 6238TIP3    H218651   1.598   2.194   4.558 -1.9920 -1.3345  1.1432
 6239TIP3   OH218652   4.002   3.954   1.074  0.1819  0.0724 -0.2270
 6239TIP3    H118653   4.013   4.039   1.032 -2.4569 -0.1737 -1.4875
 6239TIP3    H218654   4.089   3.934   1.110  1.5448  2.0264 -2.2784
 6240TIP3   OH218655   0.258   0.551   6.443  0.0508 -0.1422  0.2694
 6240TIP3    H118656   0.318   0.477   6.453  1.1695  0.7986  0.6925
 6240TIP3    H218657   0.220   0.539   6.356  0.1035 -1.3000  0.3947
 6241TIP3   OH218658   4.436   7.586   0.258  0.0473 -0.0125  0.0909
 6241TIP3    H118659   4.410   7.498   0.229 -0.5143 -0.2840  1.3511
 6241TIP3    H218660   4.372   7.644   0.216 -1.3541 -0.4859  1.5028
 6242TIP3   OH218661   1.347   2.831   6.523 -0.0949 -0.6403 -0.8271
 6242TIP3    H118662   1.387   2.918   6.527  0.0880 -0.8008  1.2940
 6242TIP3    H218663   1.414   2.772   6.557 -0.9251 -1.3494 -0.3883
 6243TIP3   OH218664   0.388   1.860   6.570 -0.2444  0.3152  0.3936
 6243TIP3    H118665   0.378   1.826   6.481  0.1646 -0.3929  0.6163
 6243TIP3    H218666   0.306   1.835   6.614  0.5871 -1.5237  0.9235
 6244TIP3   OH218667   2.566   7.779   1.030  0.0882  0.0466 -0.0875
 6244TIP3    H118668   2.594   7.843   0.966 -1.3070  0.4666 -0.2860
 6244TIP3    H218669   2.530   7.830   1.102 -0.7322 -0.5037 -0.1025
 6245TIP3   OH218670   1.605   1.574   6.008 -0.5320  0.2843 -0.1637
 6245TIP3    H118671   1.546   1.564   6.083 -0.6793 -0.6906 -0.4003
 6245TIP3    H218672   1.547   1.584   5.933 -0.3831  1.3568 -0.1364
 6246TIP3   OH218673   0.930   6.599   5.259  0.3223  1.0763 -0.4624
 6246TIP3    H118674   1.005   6.540   5.250 -0.3250  0.3804 -1.4447
 6246TIP3    H218675   0.945   6.667   5.193 -0.3201  0.4742 -1.2422
 6247TIP3   OH218676   1.587   0.858   6.076 -0.3312  0.6146 -0.0755
 6247TIP3    H118677   1.511   0.908   6.105 -1.3274 -0.7237 -0.3171
 6247TIP3    H218678   1.583   0.863   5.980 -0.1212  0.5313 -0.0883
 6248TIP3   OH218679   2.420   5.440   1.068  0.2072 -0.0135  0.1423
 6248TIP3    H118680   2.360   5.439   1.142  1.2119 -1.8755  0.9674
 6248TIP3    H218681   2.508   5.442   1.107  0.7445 -0.6282 -0.9875
 6249TIP3   OH218682   8.268   4.046   4.974 -0.1025  0.1604  0.3467
 6249TIP3    H118683   8.175   4.044   4.998  0.1119  0.6049  1.2580
 6249TIP3    H218684   8.292   4.138   4.980  0.2222  0.1456 -0.6225
 6250TIP3   OH218685   1.362   2.596   5.800  0.3856 -0.1112 -0.2896
 6250TIP3    H118686   1.434   2.627   5.744 -0.8115  1.7121 -0.8676
 6250TIP3    H218687   1.315   2.532   5.748 -0.2281  0.9666 -1.0688
 6251TIP3   OH218688   0.240   4.661   5.676  0.1681  0.1930  0.3833
 6251TIP3    H118689   0.235   4.703   5.762 -0.2980  0.6091  0.1517
 6251TIP3    H218690   0.180   4.711   5.621  0.6987  0.1150 -0.2693
 6252TIP3   OH218691   1.973   0.055   3.782  0.4423  0.2683 -0.1915
 6252TIP3    H118692   1.882   0.026   3.781  0.1091  1.3186 -0.2402
 6252TIP3    H218693   1.978   0.120   3.712  1.6206 -0.9676 -1.3005
 6253TIP3   OH218694   1.741   4.306   5.077  0.8346 -0.3095  0.2890
 6253TIP3    H118695   1.788   4.322   4.996 -0.7526  2.0962 -0.1874
 6253TIP3    H218696   1.649   4.310   5.053  0.3529 -0.5459  2.0269
 6254TIP3   OH218697   0.796   2.742   4.686 -0.1245  0.5823  0.0773
 6254TIP3    H118698   0.807   2.836   4.678 -0.0368  0.4320 -1.8197
 6254TIP3    H218699   0.702   2.727   4.683 -0.2541  0.7445  2.3707
 6255TIP3   OH218700   2.173   6.285   0.173  0.9929 -0.1321 -0.3544
 6255TIP3    H118701   2.126   6.325   0.247 -0.8821 -0.2422 -1.4627
 6255TIP3    H218702   2.242   6.348   0.152  1.9355 -0.3601  1.8307
 6256TIP3   OH218703   0.075   3.675   6.390 -0.1348  0.1109  0.3745
 6256TIP3    H118704   0.005   3.612   6.372 -0.8484  0.5793  1.4436
 6256TIP3    H218705   0.074   3.684   6.486  0.3945  1.2492  0.2740
 6257TIP3   OH218706   8.103   2.030   6.200 -0.3890  0.0543  0.1860
 6257TIP3    H118707   8.078   2.006   6.290  0.6077 -0.6568  0.2752
 6257TIP3    H218708   8.057   1.966   6.145 -0.5601  0.1472  0.2212
 6258TIP3   OH218709   0.089   1.589   4.898 -0.1576  0.0698 -0.4474
 6258TIP3    H118710   0.039   1.665   4.925 -0.3218 -0.1289 -0.1959
 6258TIP3    H218711   0.038   1.550   4.826  0.5894  0.9528 -1.4732
 6259TIP3   OH218712   8.003   3.247   5.622  0.1817 -0.2429  0.1688
 6259TIP3    H118713   8.038   3.285   5.541  2.0782 -0.8858  0.6611
 6259TIP3    H218714   7.966   3.322   5.670  1.2637  0.5324 -0.1832
 6260TIP3   OH218715   3.417   6.461   1.012 -0.0743  0.1328 -0.2094
 6260TIP3    H118716   3.473   6.434   1.085 -1.6886 -0.6960  0.7575
 6260TIP3    H218717   3.369   6.537   1.046 -1.1607 -0.5319 -0.2371
 6261TIP3   OH218718   8.374   2.513   5.207  0.6739  0.8402  0.1313
 6261TIP3    H118719   8.440   2.557   5.261  0.5360  1.6975 -0.3879
 6261TIP3    H218720   8.385   2.420   5.226  1.6781  1.0199  0.4473
 6262TIP3   OH218721   8.157   2.462   6.710  0.5596  0.1387  0.6056
 6262TIP3    H118722   8.237   2.412   6.696  0.4578  0.3216 -0.6234
 6262TIP3    H218723   8.086   2.398   6.699  0.5059  0.1417  0.9338
 6263TIP3   OH218724   1.945   2.346   5.142  0.3701 -0.2615  0.5943
 6263TIP3    H118725   1.875   2.330   5.206 -0.6252  1.5485  0.0110
 6263TIP3    H218726   1.972   2.259   5.114 -1.1965 -1.0189  1.3511
 6264TIP3   OH218727   0.722   4.027   6.747 -0.5205  0.0527 -0.1013
 6264TIP3    H118728   0.795   4.046   6.689 -0.8304  2.2388  0.1838
 6264TIP3    H218729   0.645   4.025   6.689 -0.3548 -1.5340 -0.2944
 6265TIP3   OH218730   1.453   0.464   6.232 -0.0168  0.3422  0.0020
 6265TIP3    H118731   1.361   0.452   6.211 -0.2748  1.3987  0.4761
 6265TIP3    H218732   1.467   0.408   6.309 -0.0181 -0.5597 -0.6498
 6266TIP3   OH218733   6.973   2.013   5.122  0.1376 -0.2764 -0.3315
 6266TIP3    H118734   6.911   1.944   5.099  0.8319 -0.8319 -0.5206
 6266TIP3    H218735   6.960   2.026   5.217  0.0340 -0.6803 -0.2895
 6267TIP3   OH218736   0.049   6.971   4.024  0.3064  0.2349 -0.1184
 6267TIP3    H118737   0.031   6.888   3.980  1.1797 -0.3378  0.5908
 6267TIP3    H218738   0.141   6.990   4.004  1.8341 -1.8246  4.2799
 6268TIP3   OH218739   0.115   1.029   5.951  0.0948  0.1966  0.0251
 6268TIP3    H118740   0.174   1.085   5.901 -0.7732  0.7810 -0.3686
 6268TIP3    H218741   0.039   1.018   5.893 -0.1213 -0.6630  0.4602
 6269TIP3   OH218742   1.534   3.041   4.759 -0.9366 -0.1972 -0.3013
 6269TIP3    H118743   1.454   2.992   4.780 -0.9526 -0.6166 -1.3043
 6269TIP3    H218744   1.503   3.120   4.715 -0.9229  0.8548  1.5139
 6270TIP3   OH218745   6.538   6.549   6.127 -0.6865  0.5857  0.9365
 6270TIP3    H118746   6.508   6.462   6.153 -0.1627  0.4355  1.0387
 6270TIP3    H218747   6.628   6.554   6.159 -0.1641  0.5491 -0.4696
 6271TIP3   OH218748   4.194   3.784   0.204  0.7309  0.1220  0.3160
 6271TIP3    H118749   4.217   3.869   0.242  0.5994  0.5278 -0.4885
 6271TIP3    H218750   4.269   3.760   0.150  0.0904  0.5361 -0.7891
 6272TIP3   OH218751   0.521   2.759   4.776  0.3507  0.4657  0.0080
 6272TIP3    H118752   0.499   2.747   4.684 -0.8291  0.0182  0.3255
 6272TIP3    H218753   0.446   2.722   4.823  1.3185 -0.0925  1.1545
 6273TIP3   OH218754   1.334   4.774   6.586 -0.1648 -0.4484  0.4324
 6273TIP3    H118755   1.339   4.744   6.676  1.1054 -2.7539 -0.3531
 6273TIP3    H218756   1.332   4.693   6.534 -2.3270  0.8268 -1.5378
 6274TIP3   OH218757   8.473   1.969   5.907  0.3509 -0.1524  0.5429
 6274TIP3    H118758   8.547   2.020   5.873 -0.3598  0.5049 -0.0409
 6274TIP3    H218759   8.427   2.029   5.966 -1.3170  0.4276 -1.2502
 6275TIP3   OH218760   5.972   0.760   0.568  0.3623 -0.2895  0.4251
 6275TIP3    H118761   6.010   0.672   0.558  1.1235 -0.0725  1.3451
 6275TIP3    H218762   5.955   0.768   0.662 -2.9035 -0.7417 -0.0467
 6276TIP3   OH218763   8.070   6.111   5.175 -0.2198  0.4888  0.3411
 6276TIP3    H118764   8.017   6.042   5.133 -1.8248  0.8158  1.7617
 6276TIP3    H218765   8.157   6.101   5.137 -0.6376 -1.8077 -0.0787
 6277TIP3   OH218766   2.060   1.389   5.594 -0.7078 -0.1060 -0.0037
 6277TIP3    H118767   2.032   1.301   5.568  1.1282 -0.6759 -0.1178
 6277TIP3    H218768   2.080   1.433   5.511  1.7917 -0.7782  0.1993
 6278TIP3   OH218769   1.565   3.199   5.348  0.2062 -0.1525 -0.3687
 6278TIP3    H118770   1.491   3.163   5.298  0.2204 -0.3860 -0.2234
 6278TIP3    H218771   1.639   3.143   5.322  0.0475 -0.7822  0.5272
 6279TIP3   OH218772   0.948   1.805   6.000 -0.1932  0.5300  0.2837
 6279TIP3    H118773   0.948   1.894   6.035 -0.5760  1.2415 -1.4517
 6279TIP3    H218774   0.894   1.810   5.921  0.8890 -0.9373 -0.5784
 6280TIP3   OH218775   7.009   2.255   6.384  0.0335 -0.0655  0.1228
 6280TIP3    H118776   7.018   2.274   6.478 -1.2974 -1.6579  0.5998
 6280TIP3    H218777   7.095   2.223   6.357  0.4057  0.3334  0.8228
 6281TIP3   OH218778   0.956   3.122   5.188  0.1243 -0.0696  0.4501
 6281TIP3    H118779   0.981   3.035   5.156 -0.6901  0.4717 -1.7350
 6281TIP3    H218780   0.865   3.133   5.159 -0.2078  0.9858  1.8456
 6282TIP3   OH218781   1.068   2.724   5.748 -0.0331 -0.5760  0.3358
 6282TIP3    H118782   1.011   2.648   5.755 -0.6649  0.0208  1.9994
 6282TIP3    H218783   1.123   2.720   5.827  0.5446  0.1894 -0.0206
 6283TIP3   OH218784   7.522   2.655   5.544  0.1774 -0.1876  0.0700
 6283TIP3    H118785   7.616   2.674   5.537  0.4342 -0.9305  1.2936
 6283TIP3    H218786   7.491   2.711   5.614 -0.6856  1.3509 -1.5046
 6284TIP3   OH218787   1.147   1.801   6.434 -0.0006 -0.0532  0.0394
 6284TIP3    H118788   1.157   1.841   6.520 -2.1236 -0.8419  0.6833
 6284TIP3    H218789   1.167   1.871   6.372 -2.3687  1.6403  1.1465
 6285TIP3   OH218790   1.695   2.320   6.241 -0.4953  0.7949  0.5740
 6285TIP3    H118791   1.731   2.246   6.290  0.0041  1.3568  1.0609
 6285TIP3    H218792   1.678   2.285   6.153 -0.6438 -0.0023  0.9151
 6286TIP3   OH218793   1.788   0.770   4.281  0.2853 -0.0602 -0.0561
 6286TIP3    H118794   1.733   0.693   4.264  1.6492 -0.6615 -1.9727
 6286TIP3    H218795   1.873   0.748   4.242  0.9916  2.0429  0.2201
 6287TIP3   OH218796   2.731   5.347   4.492  0.3007  0.0400 -0.1773
 6287TIP3    H118797   2.778   5.428   4.509  1.9559 -0.6909 -1.2176
 6287TIP3    H218798   2.658   5.374   4.436 -1.4113  1.3955  2.5907
 6288TIP3   OH218799   2.579   1.431   3.189  0.6943  0.1662  0.4044
 6288TIP3    H118800   2.651   1.369   3.183 -0.2598 -0.9994  0.7881
 6288TIP3    H218801   2.559   1.435   3.283  2.2671  2.8382  0.6821
 6289TIP3   OH218802   4.090   5.541   0.959  0.0222  0.5269  0.1978
 6289TIP3    H118803   4.017   5.603   0.967  1.0241  1.7072  0.2839
 6289TIP3    H218804   4.168   5.596   0.959  1.0513 -0.8618  2.4314
 6290TIP3   OH218805   0.684   2.499   6.158  0.3978 -0.1637 -0.6257
 6290TIP3    H118806   0.708   2.430   6.219 -0.7384 -0.8293 -0.9237
 6290TIP3    H218807   0.690   2.458   6.072  0.6511  0.3857 -0.8723
 6291TIP3   OH218808   7.005   2.911   5.112  0.3403 -0.0398  0.0305
 6291TIP3    H118809   7.086   2.962   5.108  0.1857  0.0876 -2.0655
 6291TIP3    H218810   6.935   2.975   5.101  0.1577 -0.6916 -3.0253
 6292TIP3   OH218811   3.937   5.676   0.322  0.2923 -0.3615  0.1726
 6292TIP3    H118812   3.977   5.595   0.353  1.2662 -0.1912 -0.5939
 6292TIP3    H218813   3.908   5.656   0.233  1.2611  0.3474 -0.3211
 6293TIP3   OH218814   2.058   2.924   6.010  0.6487 -0.1318 -0.0651
 6293TIP3    H118815   2.131   2.869   5.981 -0.1685 -0.9411 -0.6283
 6293TIP3    H218816   2.027   2.882   6.091  1.7813  1.0945  1.0164
 6294TIP3   OH218817   0.272   2.405   6.651  0.1502  0.1150 -0.4344
 6294TIP3    H118818   0.333   2.417   6.724 -1.5308 -0.1203  1.0474
 6294TIP3    H218819   0.218   2.330   6.677 -0.7514  0.3020 -1.7302
 6295TIP3   OH218820   0.876   0.853   5.973 -0.2888  0.6847  0.6374
 6295TIP3    H118821   0.871   0.785   6.040 -1.3510  0.6932  0.5862
 6295TIP3    H218822   0.963   0.891   5.983 -1.1704  2.0946  3.3768
 6296TIP3   OH218823   1.672   4.431   1.135  0.6493  0.2526  0.6586
 6296TIP3    H118824   1.755   4.473   1.114  0.5438  0.7268  1.1674
 6296TIP3    H218825   1.685   4.395   1.223  0.1407  0.8237  0.9786
 6297TIP3   OH218826   3.294   1.591   5.739  0.4151  0.5185 -0.2706
 6297TIP3    H118827   3.229   1.661   5.746  2.1790  1.9566  3.2517
 6297TIP3    H218828   3.358   1.624   5.676 -0.0906  0.9174 -0.5830
 6298TIP3   OH218829   0.562   0.940   5.798  0.3199  0.3607  0.2832
 6298TIP3    H118830   0.492   0.940   5.733 -0.1985  1.6851  0.8243
 6298TIP3    H218831   0.519   0.919   5.881  0.9927 -1.4038  0.1977
 6299TIP3   OH218832   0.599   2.014   5.410  0.0853  0.7465  0.6552
 6299TIP3    H118833   0.503   2.006   5.414  0.1353 -0.3101 -0.0240
 6299TIP3    H218834   0.619   2.089   5.465 -0.9320 -0.5561  2.9035
 6300TIP3   OH218835   5.667   3.710   0.363  0.0733  0.7622  0.2492
 6300TIP3    H118836   5.760   3.704   0.383  0.0325  0.5715  0.3788
 6300TIP3    H218837   5.638   3.788   0.411  0.3695  1.3741 -0.5666
 6301TIP3   OH218838   1.021   5.856   5.340  0.4209 -0.1732 -0.6628
 6301TIP3    H118839   0.973   5.774   5.355 -0.6569  0.3414 -1.2156
 6301TIP3    H218840   0.955   5.916   5.304  0.8310  1.4067  1.1410
 6302TIP3   OH218841   0.594   2.148   6.248  0.5368 -0.0860  0.0387
 6302TIP3    H118842   0.520   2.185   6.296 -0.9534  0.6515 -2.7142
 6302TIP3    H218843   0.668   2.206   6.268 -0.0065  0.0819  1.5749
 6303TIP3   OH218844   7.770   6.878   4.785 -0.1871  0.1300  0.1286
 6303TIP3    H118845   7.774   6.971   4.766 -1.9875  0.5415  1.6365
 6303TIP3    H218846   7.857   6.845   4.764  1.1989  2.5914  1.8357
 6304TIP3   OH218847   3.503   6.051   0.257 -0.0907  0.0952  0.1333
 6304TIP3    H118848   3.462   5.966   0.238  0.2674  0.2025 -1.1252
 6304TIP3    H218849   3.586   6.028   0.299  0.2500 -0.1820 -0.6972
 6305TIP3   OH218850   7.430   4.452   5.638 -0.2930  0.4670  0.3507
 6305TIP3    H118851   7.469   4.371   5.605  2.3473  1.2794  1.3687
 6305TIP3    H218852   7.402   4.431   5.727 -2.6950 -0.2547 -0.5458
 6306TIP3   OH218853   1.137   2.780   3.789 -0.2633 -0.4622 -0.0059
 6306TIP3    H118854   1.166   2.693   3.759  0.8894 -0.5051  1.2134
 6306TIP3    H218855   1.131   2.772   3.884 -0.0221  0.8425  0.1208
 6307TIP3   OH218856   3.800   6.459   0.345  0.2107  0.4350  0.0440
 6307TIP3    H118857   3.877   6.480   0.397 -0.2806 -2.1968  1.9075
 6307TIP3    H218858   3.728   6.460   0.408 -0.8204 -0.0724 -1.1067
 6308TIP3   OH218859   1.343   6.648   1.537  0.3924  0.4468 -0.3039
 6308TIP3    H118860   1.351   6.714   1.606 -0.2435  0.1087  0.1055
 6308TIP3    H218861   1.355   6.696   1.456  3.2065  0.5280  0.1070
 6309TIP3   OH218862   2.025   1.349   3.071 -0.0461  0.2345 -0.0857
 6309TIP3    H118863   2.045   1.270   3.020  1.1510  0.2933  0.2752
 6309TIP3    H218864   2.056   1.328   3.159 -0.3018  0.8732  0.1519
 6310TIP3   OH218865   1.286   2.273   2.660 -0.4418  0.2307 -0.3904
 6310TIP3    H118866   1.295   2.254   2.567 -1.5360 -2.1508 -0.0520
 6310TIP3    H218867   1.375   2.293   2.689 -0.1095  1.0610 -1.9600
 6311TIP3   OH218868   0.138   2.998   5.383 -0.0186 -0.6231 -0.2613
 6311TIP3    H118869   0.154   2.942   5.459  0.9142  0.5832  0.4531
 6311TIP3    H218870   0.054   3.040   5.402  0.6512  0.3905  0.5856
 6312TIP3   OH218871   1.183   3.833   5.711 -0.1047 -0.1845  0.1774
 6312TIP3    H118872   1.132   3.904   5.672  1.2570  0.8609  0.2217
 6312TIP3    H218873   1.131   3.755   5.697 -1.7261  0.8538  0.2809
 6313TIP3   OH218874   2.815   1.056   4.014 -0.3961  0.2638 -0.1200
 6313TIP3    H118875   2.775   0.981   4.057 -0.4607 -0.0424 -0.7123
 6313TIP3    H218876   2.882   1.019   3.956  1.0863  0.8092  1.2289
 6314TIP3   OH218877   2.191   2.559   5.968  0.0466  0.1082  0.1489
 6314TIP3    H118878   2.122   2.561   6.034 -0.7245 -0.0980 -0.6254
 6314TIP3    H218879   2.258   2.503   6.005 -0.4658 -0.1718  0.6683
 6315TIP3   OH218880   8.138   1.721   5.428 -0.6131  0.3697  0.2932
 6315TIP3    H118881   8.170   1.741   5.340 -1.0285 -0.9126 -0.1591
 6315TIP3    H218882   8.099   1.802   5.458  3.6973  2.2766  1.1771
 6316TIP3   OH218883   1.376   1.379   6.559  0.9529 -0.4855 -0.0634
 6316TIP3    H118884   1.291   1.340   6.537  1.3792 -1.9522  0.8336
 6316TIP3    H218885   1.368   1.403   6.651  0.6751  1.6562 -0.6206
 6317TIP3   OH218886   2.150   3.938   4.978  0.0197  0.1334 -0.3910
 6317TIP3    H118887   2.133   4.004   4.912  1.9322  0.6378 -0.3987
 6317TIP3    H218888   2.172   3.988   5.057  2.1177 -0.4823 -0.5718
 6318TIP3   OH218889   2.440   0.228   4.536 -1.0973  0.0170  0.0778
 6318TIP3    H118890   2.525   0.233   4.581 -0.4635 -0.7223 -1.0117
 6318TIP3    H218891   2.378   0.202   4.604 -0.2660 -0.4578  0.6653
 6319TIP3   OH218892   8.267   2.096   5.647 -0.4618  0.1614 -0.3218
 6319TIP3    H118893   8.288   2.147   5.726  0.2752  1.1194 -1.1217
 6319TIP3    H218894   8.235   2.012   5.680 -1.6097  1.1204  1.0140
 6320TIP3   OH218895   0.188   2.788   5.581  0.3109 -0.7844  0.1279
 6320TIP3    H118896   0.272   2.743   5.591  0.4050 -0.6870 -0.2029
 6320TIP3    H218897   0.203   2.875   5.618  0.3563 -0.7675  0.0703
 6321TIP3   OH218898   0.269   4.847   4.811  0.1821  0.1742 -0.2501
 6321TIP3    H118899   0.228   4.769   4.773 -0.2129  0.5134 -0.5194
 6321TIP3    H218900   0.196   4.901   4.841  0.4935 -0.1407  1.1055
 6322TIP3   OH218901   3.446   3.106   4.991  0.0262  0.0751  0.9198
 6322TIP3    H118902   3.351   3.101   4.996 -0.1935  2.5868 -0.0089
 6322TIP3    H218903   3.469   3.054   4.914 -0.6792  0.1863  0.6305
 6323TIP3   OH218904   6.333   7.271   5.216 -0.0274 -0.4403  0.0411
 6323TIP3    H118905   6.327   7.356   5.171 -2.1543 -0.7402 -0.2745
 6323TIP3    H218906   6.402   7.284   5.281 -1.8646  2.2687  1.5319
 6324TIP3   OH218907   3.237   2.100   6.555 -0.0267 -0.5672  0.2020
 6324TIP3    H118908   3.236   2.065   6.466 -0.3641 -0.1576  0.0449
 6324TIP3    H218909   3.157   2.152   6.561  0.3077 -0.0964  0.5495
 6325TIP3   OH218910   3.749   0.614   4.704  0.3035 -0.1289 -0.0543
 6325TIP3    H118911   3.772   0.550   4.637 -1.2561  0.1049 -0.8491
 6325TIP3    H218912   3.677   0.573   4.753  0.6977  0.1533  0.7796
 6326TIP3   OH218913   0.532   2.882   4.176 -0.1678 -0.2735 -0.1953
 6326TIP3    H118914   0.501   2.857   4.263  1.9887 -0.1126  0.6507
 6326TIP3    H218915   0.571   2.802   4.140 -1.0634 -0.3443 -1.0481
 6327TIP3   OH218916   1.437   4.243   6.114 -0.1341  0.2596 -0.2377
 6327TIP3    H118917   1.500   4.171   6.110  0.2606  0.6586 -1.2290
 6327TIP3    H218918   1.390   4.229   6.197 -0.2941 -1.3405 -0.5812
 6328TIP3   OH218919   7.617   1.386   5.511  0.0026 -0.2750 -0.4589
 6328TIP3    H118920   7.618   1.356   5.420 -1.9048  0.5049 -0.7634
 6328TIP3    H218921   7.525   1.383   5.537 -0.0429  3.3104  0.1409
 6329TIP3   OH218922   1.132   3.971   5.354 -0.0513  0.1120 -0.3292
 6329TIP3    H118923   1.211   3.927   5.323  0.8821  0.2214  1.8245
 6329TIP3    H218924   1.063   3.906   5.341  0.3786 -0.0228 -2.1392
 6330TIP3   OH218925   7.046   4.157   6.297  0.4267 -0.2890  0.2875
 6330TIP3    H118926   7.032   4.160   6.392 -1.3326 -0.9065  0.0685
 6330TIP3    H218927   7.064   4.065   6.278 -1.6550 -0.6122 -0.2664
 6331TIP3   OH218928   6.341   7.603   4.130 -0.0048  0.1916  0.6281
 6331TIP3    H118929   6.421   7.551   4.125  0.2453  0.7423 -1.8118
 6331TIP3    H218930   6.371   7.693   4.115 -0.9556  0.5080  0.6173
 6332TIP3   OH218931   6.215   3.017   6.413 -0.2596  0.1675  0.2763
 6332TIP3    H118932   6.164   2.983   6.339 -0.6470  0.9850  0.1615
 6332TIP3    H218933   6.157   3.007   6.488 -0.6939  1.3399  0.1024
 6333TIP3   OH218934   6.970   4.471   6.324 -0.8772 -0.2836  0.2182
 6333TIP3    H118935   6.972   4.376   6.316  0.4303 -0.2637  0.1658
 6333TIP3    H218936   7.045   4.492   6.380  0.1028  0.8618 -1.4706
 6334TIP3   OH218937   6.296   3.391   4.461 -0.0314  0.0438 -0.2213
 6334TIP3    H118938   6.204   3.417   4.466  0.1839  1.1482 -1.4825
 6334TIP3    H218939   6.334   3.451   4.396  1.3688 -1.0009 -0.3996
 6335TIP3   OH218940   4.546   5.106   0.556  0.5409  0.3516  0.2492
 6335TIP3    H118941   4.515   5.111   0.646  0.7224 -0.8525  0.3770
 6335TIP3    H218942   4.498   5.033   0.518  1.4567  0.0102 -0.2449
 6336TIP3   OH218943   1.577   3.077   3.668 -0.2246 -1.2728  0.1447
 6336TIP3    H118944   1.586   3.133   3.745 -0.9666 -0.3603 -0.4210
 6336TIP3    H218945   1.645   3.011   3.678 -0.7629 -1.5715  1.9271
 6337TIP3   OH218946   1.358   4.084   4.676 -0.3677  0.0022 -0.0215
 6337TIP3    H118947   1.338   4.040   4.593 -1.6402 -0.4720  0.5196
 6337TIP3    H218948   1.397   4.167   4.650 -0.8876 -0.0759 -1.0998
 6338TIP3   OH218949   7.659   7.279   3.659 -0.6273  0.3252  0.1359
 6338TIP3    H118950   7.653   7.225   3.739  0.9911  0.0963  0.1177
 6338TIP3    H218951   7.732   7.241   3.611  1.3854  3.3452  0.7238
 6339TIP3   OH218952   6.948   3.553   6.049 -0.4680 -0.1286  0.3735
 6339TIP3    H118953   6.959   3.624   6.113  0.6057  1.1516 -1.1847
 6339TIP3    H218954   6.866   3.511   6.074 -0.9178  1.3937  1.5805
 6340TIP3   OH218955   7.871   0.618   5.637  0.1163  0.3484  0.2833
 6340TIP3    H118956   7.783   0.585   5.617 -0.4878  2.1353 -0.0625
 6340TIP3    H218957   7.856   0.690   5.699  1.1669  1.9723 -1.3163
 6341TIP3   OH218958   2.206   1.559   4.399  0.2556  0.4401  0.3541
 6341TIP3    H118959   2.141   1.493   4.373 -0.6919  1.3492  0.3976
 6341TIP3    H218960   2.255   1.518   4.470 -1.3087  0.3280  1.3893
 6342TIP3   OH218961   0.652   1.731   5.870 -0.0532  0.9814 -0.4613
 6342TIP3    H118962   0.658   1.638   5.849 -0.1325  0.8063  0.2603
 6342TIP3    H218963   0.677   1.776   5.790 -0.8348  0.3427 -1.0661
 6343TIP3   OH218964   8.045   5.619   5.337  0.6266 -0.3208 -0.2584
 6343TIP3    H118965   8.021   5.530   5.361  0.3417  0.0987  1.0566
 6343TIP3    H218966   8.140   5.622   5.350  0.4678 -0.0839  0.8936
 6344TIP3   OH218967   3.189   2.991   5.693 -0.6268 -0.2013 -0.6848
 6344TIP3    H118968   3.240   2.930   5.640  0.3777 -0.0994  0.1464
 6344TIP3    H218969   3.152   2.938   5.763  0.1757  0.1068 -0.0114
 6345TIP3   OH218970   2.123   0.446   4.301  0.0953 -0.2643  0.1121
 6345TIP3    H118971   2.210   0.442   4.340  0.6829  2.4044 -0.8150
 6345TIP3    H218972   2.135   0.415   4.212  0.2215  0.7637 -0.2248
 6346TIP3   OH218973  -0.013   2.881   6.807  0.2208 -0.0100  0.1773
 6346TIP3    H118974   0.062   2.846   6.758 -0.0443  0.1555 -0.3561
 6346TIP3    H218975  -0.008   2.839   6.893  0.9362  0.0109  0.1514
 6347TIP3   OH218976   6.774   6.827   4.039  0.0418 -0.0526  0.1102
 6347TIP3    H118977   6.866   6.832   4.065 -0.7404  0.2857  2.9982
 6347TIP3    H218978   6.755   6.733   4.038  0.3357 -0.1080 -0.0842
 6348TIP3   OH218979   0.355   1.994   5.279  0.1187 -0.5293 -0.6235
 6348TIP3    H118980   0.313   1.976   5.194 -1.5055 -0.9614  0.2560
 6348TIP3    H218981   0.358   1.909   5.322  2.6288 -0.6403 -0.9734
 6349TIP3   OH218982   3.597   6.594   0.191 -0.0200 -0.3772 -0.3690
 6349TIP3    H118983   3.541   6.597   0.269 -0.0494  0.1774 -0.4153
 6349TIP3    H218984   3.685   6.576   0.226  0.3357  1.8798 -0.0265
 6350TIP3   OH218985   0.089   2.173   4.859 -0.3175  0.5845 -0.4666
 6350TIP3    H118986   0.083   2.078   4.845  0.4681  0.2142  1.6502
 6350TIP3    H218987   0.026   2.209   4.797 -1.0914 -1.3600 -0.8683
 6351TIP3   OH218988   2.155   1.504   6.320  0.2394  0.0355  0.0452
 6351TIP3    H118989   2.075   1.556   6.323 -0.4739 -1.0804  0.4703
 6351TIP3    H218990   2.198   1.520   6.404 -0.7005 -1.1807  0.7719
 6352TIP3   OH218991   7.297   2.495   0.160  0.0412  0.0264 -0.0234
 6352TIP3    H118992   7.212   2.451   0.159  0.4971 -0.9239  1.1003
 6352TIP3    H218993   7.361   2.423   0.160  0.8730  0.7355 -2.0307
 6353TIP3   OH218994   3.677   1.621   4.101 -0.2377  0.3524 -0.4615
 6353TIP3    H118995   3.643   1.677   4.171  2.6037  0.0651  1.2472
 6353TIP3    H218996   3.759   1.663   4.074 -0.3685 -0.5525 -2.3452
 6354TIP3   OH218997   2.526   2.095   5.784  0.0127 -0.8595  0.6301
 6354TIP3    H118998   2.605   2.070   5.736 -1.4015 -0.4848 -1.9931
 6354TIP3    H218999   2.457   2.097   5.717 -1.5976  1.7900  2.2800
 6355TIP3   OH219000   1.901   2.606   4.345 -0.2801 -0.1579 -0.0226
 6355TIP3    H119001   1.973   2.553   4.377  0.4396  0.6448 -0.2938
 6355TIP3    H219002   1.925   2.627   4.255 -1.1550 -0.4100 -0.3221
 6356TIP3   OH219003   3.096   3.498   3.897 -0.5986 -0.7839 -0.3469
 6356TIP3    H119004   3.035   3.494   3.823 -0.4486  2.3417 -0.6954
 6356TIP3    H219005   3.061   3.435   3.960 -3.2383 -0.2850 -1.2438
 6357TIP3   OH219006   2.053   1.083   4.162  0.4150  0.2286 -0.3858
 6357TIP3    H119007   2.121   1.031   4.121  0.3739  0.0886 -0.2773
 6357TIP3    H219008   1.973   1.060   4.115  0.2497 -0.4333  0.2106
 6358TIP3   OH219009   1.820   2.691   4.886 -0.4856 -0.2724 -0.2871
 6358TIP3    H119010   1.799   2.749   4.813 -0.5764 -0.7384 -0.6260
 6358TIP3    H219011   1.735   2.666   4.923 -0.4107  1.3267  1.0464
 6359TIP3   OH219012   0.383   0.595   5.131  0.2975  0.4608 -0.1748
 6359TIP3    H119013   0.303   0.575   5.082  0.4495  1.7688 -0.9812
 6359TIP3    H219014   0.359   0.670   5.185  1.0568  1.0378 -0.6296
 6360TIP3   OH219015   2.198   2.270   3.636  0.7335 -0.1797 -0.5756
 6360TIP3    H119016   2.182   2.303   3.724 -1.2308 -1.5570 -0.3752
 6360TIP3    H219017   2.152   2.331   3.579 -0.9790 -1.2242 -0.3628
 6361TIP3   OH219018   3.619   7.826   0.201 -0.1009 -0.2344 -0.6976
 6361TIP3    H119019   3.537   7.874   0.208 -0.7322 -1.4909  0.7571
 6361TIP3    H219020   3.686   7.890   0.225 -0.7888  0.3405 -0.2860
 6362TIP3   OH219021   5.539   4.561   0.172 -0.6307 -0.6367  0.2141
 6362TIP3    H119022   5.444   4.562   0.188 -0.7630  0.3275 -0.5701
 6362TIP3    H219023   5.577   4.594   0.253 -0.9988 -0.4746  0.3215
 6363TIP3   OH219024   2.968   2.888   2.278  0.2933 -0.4645 -0.1702
 6363TIP3    H119025   2.949   2.934   2.196  0.7117 -0.5344 -0.3058
 6363TIP3    H219026   2.885   2.847   2.303 -0.1589  0.6109  0.1060
 6364TIP3   OH219027   2.297   2.804   5.958 -0.0292 -0.1998  0.5481
 6364TIP3    H119028   2.378   2.794   5.909 -0.2650  1.6255 -0.2579
 6364TIP3    H219029   2.262   2.715   5.965  2.5874 -1.1790  1.9003
 6365TIP3   OH219030   3.796   0.569   4.283 -0.4081 -0.0324  0.1787
 6365TIP3    H119031   3.815   0.657   4.251  1.3888 -0.6952 -0.5765
 6365TIP3    H219032   3.850   0.560   4.361 -0.1223 -0.7052 -0.0976
 6366TIP3   OH219033   8.173   7.779   5.611 -0.3691 -0.0293 -0.7094
 6366TIP3    H119034   8.089   7.817   5.585 -0.2684  0.9652  0.3910
 6366TIP3    H219035   8.167   7.687   5.583 -2.3080 -0.2753  0.4211
 6367TIP3   OH219036   3.930   2.815   5.251  0.0203  0.0787 -0.2650
 6367TIP3    H119037   3.959   2.869   5.325  1.2212  0.3000 -0.8950
 6367TIP3    H219038   3.976   2.851   5.176  1.7423 -2.5728 -0.5156
 6368TIP3   OH219039   3.702   1.287   6.076  0.0660  0.3280  0.5771
 6368TIP3    H119040   3.716   1.194   6.094 -0.0955  0.5199  1.7157
 6368TIP3    H219041   3.724   1.297   5.983 -0.7965 -1.0205  0.2099
 6369TIP3   OH219042   2.404   3.110   5.532 -0.1553 -0.3900  0.3886
 6369TIP3    H119043   2.464   3.166   5.581 -0.4530  0.9347 -0.7411
 6369TIP3    H219044   2.320   3.155   5.535 -0.9549 -1.8794  1.3379
 6370TIP3   OH219045   1.525   3.530   5.631 -0.1577  0.2207 -0.1408
 6370TIP3    H119046   1.432   3.546   5.620 -0.2931  1.3222  2.2569
 6370TIP3    H219047   1.530   3.462   5.698  0.7636  0.0670 -0.3551
 6371TIP3   OH219048   2.717   2.797   4.893  0.0578 -0.0242 -0.3268
 6371TIP3    H119049   2.635   2.843   4.875 -0.4072 -0.4120  0.7707
 6371TIP3    H219050   2.735   2.816   4.985 -0.6579 -2.8063  0.4475
 6372TIP3   OH219051   5.605   3.766   4.590  0.2343 -0.1983  0.4564
 6372TIP3    H119052   5.614   3.693   4.529 -0.6330  0.2306 -0.1893
 6372TIP3    H219053   5.565   3.727   4.668 -0.9069 -0.2728 -0.1593
 6373TIP3   OH219054   0.832   3.612   4.955  0.0044  0.9454 -0.5153
 6373TIP3    H119055   0.900   3.664   4.997  0.2204 -1.1721  1.8862
 6373TIP3    H219056   0.752   3.630   5.005 -0.7967  1.9844 -2.1451
 6374TIP3   OH219057   2.414   5.233   6.100  0.7363 -0.0894 -0.1313
 6374TIP3    H119058   2.436   5.149   6.141 -0.1717 -0.1564  0.2176
 6374TIP3    H219059   2.495   5.259   6.056  1.2195 -0.8321  0.2972
 6375TIP3   OH219060   1.968   1.540   4.564 -0.3572 -0.2164 -0.2517
 6375TIP3    H119061   1.876   1.525   4.541 -0.6638 -0.1662  0.9419
 6375TIP3    H219062   1.996   1.608   4.502 -1.6455  1.0761  0.5205
 6376TIP3   OH219063   2.303   4.822   4.197 -0.4656  0.0574 -0.3875
 6376TIP3    H119064   2.307   4.805   4.103  0.0085  0.7729 -0.5003
 6376TIP3    H219065   2.393   4.848   4.220 -0.9552  1.4448 -0.0317
 6377TIP3   OH219066   5.118   2.780   5.668  0.4624 -0.0280 -0.4857
 6377TIP3    H119067   5.029   2.787   5.703  0.2282 -3.6436 -0.1156
 6377TIP3    H219068   5.106   2.780   5.573 -0.2569 -2.8436 -0.4503
 6378TIP3   OH219069   0.531   0.814   5.348 -0.3729 -0.1804  0.7050
 6378TIP3    H119070   0.438   0.832   5.360 -0.0242  0.8179  1.9966
 6378TIP3    H219071   0.556   0.868   5.273 -1.2054 -1.7635 -0.7345
 6379TIP3   OH219072   2.992   3.403   4.400  0.2909  0.2327 -0.3886
 6379TIP3    H119073   3.015   3.311   4.401  0.4567  0.2865  1.0170
 6379TIP3    H219074   3.006   3.433   4.490 -0.5117  1.4349 -0.6491
 6380TIP3   OH219075   4.038   3.478   3.211  0.5119 -0.2154 -0.0518
 6380TIP3    H119076   4.075   3.563   3.237 -0.5470 -0.0309  0.9204
 6380TIP3    H219077   3.980   3.499   3.138  2.1085 -0.4689 -1.4136
 6381TIP3   OH219078   3.086   3.754   4.728  0.3003  0.1622  0.5944
 6381TIP3    H119079   3.145   3.817   4.769  0.1636  0.9040 -0.3209
 6381TIP3    H219080   3.007   3.757   4.781 -0.6186  2.5750 -0.8354
 6382TIP3   OH219081   1.826   1.285   4.047 -0.0702  0.4736  0.0306
 6382TIP3    H119082   1.805   1.195   4.021 -2.0935  1.0571 -0.4404
 6382TIP3    H219083   1.815   1.284   4.142 -0.1714  0.2439  0.0195
 6383TIP3   OH219084   4.550   2.040   5.167  0.6813 -0.2730  0.6628
 6383TIP3    H119085   4.576   1.948   5.166  1.2415 -0.1206 -1.0974
 6383TIP3    H219086   4.487   2.048   5.095  1.3073  0.8794  0.2190
 6384TIP3   OH219087   3.863   1.292   4.824  0.0998  0.5983  0.3299
 6384TIP3    H119088   3.926   1.362   4.811 -0.6128  1.4585  1.4256
 6384TIP3    H219089   3.820   1.313   4.907 -0.9330 -0.5087  0.0936
 6385TIP3   OH219090   2.002   2.018   5.406 -0.2836  0.0719 -0.3389
 6385TIP3    H119091   1.961   1.983   5.485  0.5735  0.7255  0.3975
 6385TIP3    H219092   2.032   1.941   5.358 -1.1277 -0.3446 -0.2100
 6386TIP3   OH219093   3.841   2.136   3.939  0.3974  0.2528 -0.2513
 6386TIP3    H119094   3.935   2.116   3.939  0.0169 -1.5921 -0.7410
 6386TIP3    H219095   3.798   2.051   3.951 -1.1748  1.3226  2.1121
 6387TIP3   OH219096   0.555   2.786   2.225 -0.5127  0.5766 -0.1491
 6387TIP3    H119097   0.499   2.714   2.196 -0.2624 -0.6021  2.1838
 6387TIP3    H219098   0.644   2.753   2.215 -0.4373 -0.2432  2.8141
 6388TIP3   OH219099   4.285   1.774   6.243 -0.5618  0.6854  0.1559
 6388TIP3    H119100   4.356   1.836   6.227 -0.2963  0.6284  1.1234
 6388TIP3    H219101   4.251   1.754   6.155  1.1108  0.1245 -0.3773
 6389TIP3   OH219102   3.579   1.359   4.321  0.0996 -0.1902 -0.2196
 6389TIP3    H119103   3.500   1.376   4.268 -0.5901  0.2701  0.9465
 6389TIP3    H219104   3.651   1.393   4.267 -0.6353  0.6324 -0.7068
 6390TIP3   OH219105   2.279   4.082   6.444  0.2441 -0.0418 -0.0498
 6390TIP3    H119106   2.196   4.049   6.478  0.2222  1.0715  0.9956
 6390TIP3    H219107   2.257   4.121   6.360 -0.3403  0.4558  0.3296
 6391TIP3   OH219108   1.644   2.210   5.946  0.5891 -0.5515 -0.2421
 6391TIP3    H119109   1.734   2.236   5.927  0.2034  0.1550 -1.1593
 6391TIP3    H219110   1.590   2.278   5.904 -0.3511 -0.5245  0.9786
 6392TIP3   OH219111   3.092   4.060   3.901  0.1572 -0.2629 -0.2088
 6392TIP3    H119112   3.112   3.972   3.935  0.2616 -0.6212 -1.1786
 6392TIP3    H219113   3.175   4.107   3.907  0.6854 -0.9393 -1.7811
 6393TIP3   OH219114   3.541   6.220   0.891 -0.8952 -0.0033  0.2053
 6393TIP3    H119115   3.481   6.294   0.899 -0.4875  0.1192  2.2573
 6393TIP3    H219116   3.628   6.258   0.894 -0.6855 -0.5054  0.4981
 6394TIP3   OH219117   1.425   4.724   6.042  0.3809  0.6016 -0.1114
 6394TIP3    H119118   1.429   4.813   6.079  0.9351  0.4025  0.3103
 6394TIP3    H219119   1.513   4.708   6.009  0.4732 -0.0665  0.4579
 6395TIP3   OH219120   0.234   0.403   0.307  0.2303  0.5907 -0.0830
 6395TIP3    H119121   0.212   0.495   0.292 -2.2851  0.4265  2.1538
 6395TIP3    H219122   0.235   0.364   0.220 -1.1093  2.2350 -0.8662
 6396TIP3   OH219123   2.977   1.530   2.770  0.2755 -0.2179 -0.2936
 6396TIP3    H119124   2.941   1.570   2.690  1.0026  0.6690 -0.1818
 6396TIP3    H219125   3.071   1.524   2.753  0.4541  0.1053  0.5499
 6397TIP3   OH219126   1.255   3.846   6.000  0.1140 -0.0588 -0.1761
 6397TIP3    H119127   1.198   3.904   5.950  0.5505  0.3095 -0.2521
 6397TIP3    H219128   1.312   3.806   5.935  1.1100  0.9025  0.0792
 6398TIP3   OH219129   3.046   4.623   3.628  0.0383  0.2653 -0.2044
 6398TIP3    H119130   2.990   4.659   3.697 -0.5123  1.9058 -1.4563
 6398TIP3    H219131   3.005   4.540   3.604 -0.0493 -0.0726  1.0795
 6399TIP3   OH219132   1.591   4.403   6.603 -0.1667 -0.2157  0.1992
 6399TIP3    H119133   1.590   4.331   6.667  0.7891  1.7173  2.4639
 6399TIP3    H219134   1.683   4.426   6.594 -0.4844  0.8820 -0.3096
 6400TIP3   OH219135   0.167   2.116   4.324  0.7625 -0.5548 -0.0804
 6400TIP3    H119136   0.082   2.104   4.367  1.3848 -0.8957  1.0723
 6400TIP3    H219137   0.172   2.045   4.261  0.4658 -0.9131  0.2955
 6401TIP3   OH219138   2.593   3.955   6.789 -0.1106 -0.5499  0.1521
 6401TIP3    H119139   2.667   3.894   6.782 -0.4904 -1.0407  0.3454
 6401TIP3    H219140   2.554   3.954   6.702 -0.2133 -0.7137  0.1983
 6402TIP3   OH219141   3.654   1.517   6.233  0.3890  0.4595 -0.1296
 6402TIP3    H119142   3.570   1.495   6.272  0.3983 -0.1272 -0.4470
 6402TIP3    H219143   3.679   1.440   6.183  0.2318  1.3217 -1.5635
 6403TIP3   OH219144   8.437   3.675   4.075 -0.6835 -0.8068 -0.0927
 6403TIP3    H119145   8.409   3.650   4.163  0.4906  0.7038  0.7348
 6403TIP3    H219146   8.397   3.761   4.060 -0.2641 -0.7151 -0.7237
 6404TIP3   OH219147   1.758   1.930   5.903  0.1510 -0.0482  0.2748
 6404TIP3    H119148   1.766   1.887   5.818  2.4079  0.0416  0.4267
 6404TIP3    H219149   1.707   2.009   5.885 -0.0282 -0.3999 -0.8391
 6405TIP3   OH219150   2.277   2.526   6.314 -0.3329  0.8991 -0.1884
 6405TIP3    H119151   2.229   2.452   6.277  0.7603  0.3808 -0.5941
 6405TIP3    H219152   2.246   2.533   6.404  1.3285 -1.6058  0.6119
 6406TIP3   OH219153   1.624   1.186   5.018 -0.2648 -0.3660  0.4677
 6406TIP3    H119154   1.574   1.235   5.083 -0.8926 -0.8839  0.3828
 6406TIP3    H219155   1.660   1.111   5.066 -0.4779 -0.5853  0.2867
 6407TIP3   OH219156   0.766   7.582   3.757  0.2470  0.2109 -0.1689
 6407TIP3    H119157   0.816   7.539   3.688 -0.6155  0.4711 -0.9739
 6407TIP3    H219158   0.700   7.518   3.782  1.0959 -0.2027  1.0213
 6408TIP3   OH219159   2.590   3.495   5.762 -0.0554 -0.0423  0.1583
 6408TIP3    H119160   2.522   3.563   5.757 -0.8091 -0.8315 -0.5295
 6408TIP3    H219161   2.671   3.540   5.737 -0.3470  0.8773  0.8544
 6409TIP3   OH219162   2.864   1.702   4.895  0.1312  0.1652 -0.0911
 6409TIP3    H119163   2.812   1.782   4.901  0.4761  0.4940 -1.1986
 6409TIP3    H219164   2.941   1.719   4.948 -0.0542  0.3530  0.1205
 6410TIP3   OH219165   2.984   2.448   5.816 -0.2442 -0.4615  0.1296
 6410TIP3    H119166   2.899   2.446   5.860 -0.1748  0.0469  0.2928
 6410TIP3    H219167   3.047   2.424   5.883 -0.0282  1.3333  0.5867
 6411TIP3   OH219168   2.524   1.110   5.818 -0.0749  0.0119 -0.3405
 6411TIP3    H119169   2.438   1.137   5.786  0.4432  2.7641  0.4712
 6411TIP3    H219170   2.509   1.085   5.909  0.0984  1.2821  0.0492
 6412TIP3   OH219171   3.442   1.775   4.185  0.1977  0.3158 -0.4739
 6412TIP3    H119172   3.474   1.841   4.246 -1.1916  0.5317  0.0320
 6412TIP3    H219173   3.466   1.809   4.099 -1.2909  1.9541 -0.2832
 6413TIP3   OH219174   1.804   2.300   3.300 -0.0940  0.6737  0.0569
 6413TIP3    H119175   1.813   2.212   3.262  1.6192  1.3270 -1.1383
 6413TIP3    H219176   1.790   2.357   3.224  2.9633  1.9580  0.3724
 6414TIP3   OH219177   2.088   3.435   6.086 -0.3792 -0.1682  0.4010
 6414TIP3    H119178   2.029   3.510   6.086 -0.3401 -0.1338  1.1110
 6414TIP3    H219179   2.030   3.359   6.095 -0.2139 -0.0362  2.8579
 6415TIP3   OH219180   1.365   2.139   3.663 -0.3296 -0.2789  0.0221
 6415TIP3    H119181   1.417   2.091   3.599  0.6162  0.0912  0.5122
 6415TIP3    H219182   1.421   2.212   3.689 -1.5986  0.8676 -0.4137
 6416TIP3   OH219183   2.670   4.689   3.778 -0.1137 -0.1762 -0.2407
 6416TIP3    H119184   2.647   4.671   3.869  0.3491  0.0612 -0.0718
 6416TIP3    H219185   2.748   4.745   3.784 -0.0167 -0.2510 -0.7840
 6417TIP3   OH219186   4.254   0.482   4.263  0.1276  0.5596 -0.3115
 6417TIP3    H119187   4.213   0.448   4.343  1.5771 -1.5456 -0.4227
 6417TIP3    H219188   4.251   0.577   4.272  0.3928  0.3363  2.3002
 6418TIP3   OH219189   5.070   1.063   4.798  0.1353 -0.5894  0.4580
 6418TIP3    H119190   5.053   0.971   4.781 -1.4625 -0.0988 -0.7043
 6418TIP3    H219191   5.120   1.093   4.723 -2.3582  0.3058 -0.8870
 6419TIP3   OH219192   2.177   1.451   6.588 -0.2010 -0.4711  0.6231
 6419TIP3    H119193   2.244   1.385   6.574 -0.2657 -0.1661 -1.2178
 6419TIP3    H219194   2.099   1.415   6.546 -0.1514  0.8985 -0.6742
 6420TIP3   OH219195   3.200   2.494   4.392  0.8890 -0.1911 -0.6957
 6420TIP3    H119196   3.254   2.536   4.460  0.5386 -2.1245  0.8071
 6420TIP3    H219197   3.259   2.431   4.351  1.1378  1.0598 -2.3405
 6421TIP3   OH219198   1.925   1.550   5.020  0.3450  0.1120  0.0821
 6421TIP3    H119199   1.944   1.640   4.996  0.2941  0.2274  0.4778
 6421TIP3    H219200   2.004   1.501   4.996 -0.4039 -0.0904 -2.0536
 6422TIP3   OH219201   2.267   1.941   6.182 -0.5255  0.0751  0.3027
 6422TIP3    H119202   2.353   1.921   6.145 -0.7520  0.3059 -0.3548
 6422TIP3    H219203   2.214   1.864   6.161 -0.6120  0.1361  0.2996
 6423TIP3   OH219204   3.817   3.034   4.700 -0.1811 -0.8329 -0.7330
 6423TIP3    H119205   3.790   2.982   4.776  2.1119  0.4349  0.9970
 6423TIP3    H219206   3.847   2.969   4.636 -0.5341 -1.8150  0.0859
 6424TIP3   OH219207   1.323   2.363   5.139 -0.4219 -0.1013 -0.2133
 6424TIP3    H119208   1.323   2.423   5.213 -0.6380 -0.3331 -0.0262
 6424TIP3    H219209   1.256   2.299   5.160  0.3043 -0.8221 -0.0798
 6425TIP3   OH219210   2.451   1.432   6.016  0.0248  0.1233 -0.0303
 6425TIP3    H119211   2.367   1.397   6.047  0.7238 -0.5296  1.1457
 6425TIP3    H219212   2.486   1.480   6.091  1.0668 -0.2574 -0.2705
 6426TIP3   OH219213   3.119   0.565   6.306  0.1496  0.1913 -0.4674
 6426TIP3    H119214   3.100   0.651   6.267  0.3948  0.2293 -0.5050
 6426TIP3    H219215   3.057   0.558   6.379 -0.0972  0.2556 -0.6704
 6427TIP3   OH219216   7.732   7.886   6.360 -0.3562 -0.8639 -0.1186
 6427TIP3    H119217   7.641   7.889   6.389 -0.1640 -1.6416  0.5874
 6427TIP3    H219218   7.757   7.794   6.368  0.4372 -0.6877 -0.4809
 6428TIP3   OH219219   0.894   1.337   5.334 -0.3580  0.6153  0.3561
 6428TIP3    H119220   0.851   1.363   5.415 -1.0578  0.6951 -0.0359
 6428TIP3    H219221   0.952   1.266   5.359 -2.0925 -0.7408  0.5738
 6429TIP3   OH219222   8.148   0.372   0.176 -0.1947  0.2250 -0.2904
 6429TIP3    H119223   8.119   0.311   0.109  0.2246 -2.4588  1.8699
 6429TIP3    H219224   8.232   0.337   0.206 -0.8016  0.8214  2.2477
 6430TIP3   OH219225   5.114   6.886   1.037  0.4339  0.1065 -0.4688
 6430TIP3    H119226   5.069   6.862   1.118  1.5863  0.1469  0.2065
 6430TIP3    H219227   5.184   6.820   1.029  0.0179 -0.1943 -1.6965
 6431TIP3   OH219228   0.166   1.745   5.988  0.3408 -0.4108 -0.2818
 6431TIP3    H119229   0.224   1.821   5.984 -0.8364  0.4346 -1.5450
 6431TIP3    H219230   0.090   1.769   5.936 -0.4823 -2.0973  0.0855
 6432TIP3   OH219231   0.627   7.474   5.810 -0.0342 -0.6487 -0.0658
 6432TIP3    H119232   0.614   7.449   5.901 -0.7310 -0.2554 -0.0589
 6432TIP3    H219233   0.656   7.565   5.814  0.7333 -0.8847 -0.1919
 6433TIP3   OH219234   0.949   4.316   5.573  0.0973 -0.1458  0.4752
 6433TIP3    H119235   0.981   4.237   5.617 -0.4961 -0.4746  0.3282
 6433TIP3    H219236   1.020   4.341   5.514  0.0086 -0.9972 -0.0154
 6434TIP3   OH219237   1.086   4.113   5.095 -0.0840  0.1472 -0.0869
 6434TIP3    H119238   1.171   4.082   5.065  0.6502  0.7462  1.3100
 6434TIP3    H219239   1.079   4.081   5.185 -0.4393  1.8397  0.5076
 6435TIP3   OH219240   3.926   1.978   6.305 -0.3498 -0.4346 -0.3180
 6435TIP3    H119241   3.899   2.070   6.306  0.5800 -0.1658  0.0855
 6435TIP3    H219242   4.002   1.976   6.247 -0.1106 -0.8807  0.0042
 6436TIP3   OH219243   1.480   3.133   5.629  0.0028 -0.1705  0.3914
 6436TIP3    H119244   1.400   3.163   5.585  0.5496  0.0342 -0.4888
 6436TIP3    H219245   1.548   3.141   5.562  0.1221 -3.7290  0.0075
 6437TIP3   OH219246   2.571   2.162   4.843 -0.2521 -0.0829  0.0597
 6437TIP3    H119247   2.512   2.106   4.893 -1.9399  1.2208 -0.4291
 6437TIP3    H219248   2.603   2.226   4.907 -0.9233  0.4215 -0.1078
 6438TIP3   OH219249   3.534   1.650   5.028  0.8308 -0.3351 -0.4741
 6438TIP3    H119250   3.538   1.626   4.936  0.0208  0.0644 -0.6225
 6438TIP3    H219251   3.618   1.623   5.064  1.7738  0.9175 -1.6782
 6439TIP3   OH219252   7.081   7.692   5.088 -0.5591  0.0245  0.0395
 6439TIP3    H119253   7.076   7.788   5.089 -0.9831  0.0009  0.1043
 6439TIP3    H219254   7.080   7.667   5.180 -0.1505 -0.0275  0.0307
 6440TIP3   OH219255   2.054   3.694   5.458  0.4806  0.2382  0.3719
 6440TIP3    H119256   2.045   3.605   5.424 -0.0274  0.8201 -1.0639
 6440TIP3    H219257   2.124   3.732   5.406 -1.1959  1.5692 -1.0059
 6441TIP3   OH219258   1.745   0.660   5.458  0.0499  0.4415  0.0796
 6441TIP3    H119259   1.721   0.569   5.477  0.2454  0.7841  2.1581
 6441TIP3    H219260   1.841   0.658   5.453  0.0917  0.6266  0.7332
 6442TIP3   OH219261   3.582   3.044   4.507 -0.5461 -0.0873 -0.0568
 6442TIP3    H119262   3.612   2.975   4.566  1.3146  0.0708 -0.8019
 6442TIP3    H219263   3.655   3.058   4.446 -1.2692  1.8672 -0.5175
 6443TIP3   OH219264   3.043   3.018   3.994  0.2205  0.1260 -0.0697
 6443TIP3    H119265   3.007   2.987   3.911  1.8973  0.9903 -1.1586
 6443TIP3    H219266   3.010   2.957   4.059  0.6065 -1.8545 -1.6607
 6444TIP3   OH219267   3.007   0.414   3.699 -0.5693 -0.4174  0.1002
 6444TIP3    H119268   3.076   0.422   3.634 -0.0355 -0.6492  0.6351
 6444TIP3    H219269   3.040   0.349   3.761 -0.0432  1.5377  1.9082
 6445TIP3   OH219270   0.096   0.487   0.029 -0.6967  0.2289 -0.5698
 6445TIP3    H119271   0.070   0.398   0.004 -0.3369  0.7630 -2.9175
 6445TIP3    H219272   0.040   0.544  -0.023 -0.0847  1.3803  0.0235
 6446TIP3   OH219273   3.435   4.197   2.354 -0.1981  0.1837 -0.6230
 6446TIP3    H119274   3.403   4.286   2.340 -1.3017  0.0406  0.9633
 6446TIP3    H219275   3.399   4.171   2.438  0.7913 -1.4768 -0.6934
 6447TIP3   OH219276   1.645   2.919   6.770 -0.0073 -0.0993  0.0132
 6447TIP3    H119277   1.668   2.956   6.855 -1.5851  0.2272  0.3070
 6447TIP3    H219278   1.587   2.984   6.731 -0.1943 -0.7747 -0.8415
 6448TIP3   OH219279   3.172   2.680   4.629  0.4879 -0.2438  0.4596
 6448TIP3    H119280   3.215   2.764   4.612  0.9527 -0.2044  1.7618
 6448TIP3    H219281   3.080   2.702   4.642  0.8300  0.2577  2.1670
 6449TIP3   OH219282   2.733   3.252   4.328  0.0461 -0.8844  0.0436
 6449TIP3    H119283   2.803   3.292   4.379 -0.1674  2.1733 -1.9144
 6449TIP3    H219284   2.656   3.258   4.384  0.2910  0.3942  0.2651
 6450TIP3   OH219285   4.094   1.628   5.694  0.1769  0.3142 -0.6812
 6450TIP3    H119286   4.030   1.557   5.681  0.4235  0.1550 -1.0322
 6450TIP3    H219287   4.046   1.694   5.744 -0.0465 -0.1116 -0.3261
 6451TIP3   OH219288   5.274   6.141   0.275 -0.6043  0.6868 -0.3647
 6451TIP3    H119289   5.354   6.192   0.265 -0.6775  1.0332  0.8112
 6451TIP3    H219290   5.203   6.205   0.265 -0.7592  0.3569 -1.5591
 6452TIP3   OH219291   2.631   3.316   5.560  0.2829  0.8913 -0.4222
 6452TIP3    H119292   2.699   3.274   5.614  0.1552 -0.0411 -0.9818
 6452TIP3    H219293   2.580   3.368   5.622  0.2845  0.0109  0.3146
 6453TIP3   OH219294   2.773   3.286   5.099 -0.6297  0.1185 -0.0565
 6453TIP3    H119295   2.858   3.263   5.137  0.9188  1.3197 -2.6827
 6453TIP3    H219296   2.728   3.334   5.169  2.3570  2.7519  0.1879
 6454TIP3   OH219297   4.540   3.784   2.739  0.0555 -0.4614  0.1538
 6454TIP3    H119298   4.477   3.852   2.761  0.5177  0.2252 -0.6137
 6454TIP3    H219299   4.536   3.777   2.643  1.1688 -0.3767  0.0943
 6455TIP3   OH219300   2.995   2.651   6.418 -0.0003  0.7457 -0.1888
 6455TIP3    H119301   3.076   2.631   6.464  0.1940  3.1225  0.5361
 6455TIP3    H219302   2.946   2.568   6.418  1.1606  0.0365  1.9075
 6456TIP3   OH219303   1.362   1.839   6.089  0.3764  0.4258  0.4402
 6456TIP3    H119304   1.445   1.886   6.102  1.4191 -0.1251 -3.5432
 6456TIP3    H219305   1.385   1.747   6.099 -0.1481  0.3469  0.9757
 6457TIP3   OH219306   7.363   8.009   5.635 -0.2183 -0.3288  0.0422
 6457TIP3    H119307   7.413   7.954   5.696  0.3615 -1.4462 -1.4358
 6457TIP3    H219308   7.393   7.983   5.548 -1.0015  1.3043 -0.7385
 6458TIP3   OH219309   3.992   2.558   3.750  0.0362  0.0218 -0.3296
 6458TIP3    H119310   3.901   2.531   3.764 -0.2703  0.9428 -0.4670
 6458TIP3    H219311   4.044   2.484   3.780 -0.6760  0.4941  2.1881
 6459TIP3   OH219312   1.857   4.813   4.421 -0.4287 -0.1788 -0.2422
 6459TIP3    H119313   1.932   4.755   4.414  0.5610  0.9071  1.0568
 6459TIP3    H219314   1.841   4.844   4.332 -0.3769 -1.6916 -0.7851
 6460TIP3   OH219315   2.642   1.537   5.028  0.2300  0.4377 -0.1318
 6460TIP3    H119316   2.726   1.492   5.019  2.1072  3.5578  0.9821
 6460TIP3    H219317   2.636   1.591   4.949  0.0599  1.4849  0.6035
 6461TIP3   OH219318   2.626   3.079   5.998  0.0485 -0.1350 -0.1329
 6461TIP3    H119319   2.692   3.148   6.004  1.6233 -1.4946 -1.6197
 6461TIP3    H219320   2.588   3.090   5.911 -3.5222  2.2267  1.5894
 6462TIP3   OH219321   3.331   1.323   4.208  0.0243 -0.1364  0.0972
 6462TIP3    H119322   3.298   1.411   4.223 -0.6630 -0.6918  1.9799
 6462TIP3    H219323   3.272   1.286   4.142  0.0836  0.6701 -0.4128
 6463TIP3   OH219324   3.384   1.831   6.362  0.1412  0.6316  0.3677
 6463TIP3    H119325   3.422   1.840   6.449 -0.8066 -2.4954  1.1788
 6463TIP3    H219326   3.457   1.806   6.306  0.1682 -0.6959  0.9726
 6464TIP3   OH219327   1.490   2.906   5.955 -0.1021 -0.9132  0.1305
 6464TIP3    H119328   1.566   2.849   5.941 -0.6368 -1.9203  1.2872
 6464TIP3    H219329   1.449   2.911   5.868  0.5376 -1.4403 -0.2138
 6465TIP3   OH219330   3.506   1.276   4.765  0.8124  0.5952 -0.6746
 6465TIP3    H119331   3.549   1.269   4.850  1.5103  2.3679 -0.8748
 6465TIP3    H219332   3.426   1.224   4.774  1.4667 -0.2112  0.6654
 6466TIP3   OH219333   2.110   2.102   5.998 -0.1465  0.2424 -0.3763
 6466TIP3    H119334   2.181   2.068   6.053  0.4028  1.7087 -0.1594
 6466TIP3    H219335   2.115   2.050   5.917 -0.3312 -1.2476  0.5575
 6467TIP3   OH219336   2.843   2.150   5.057  0.1277  0.0533  0.2159
 6467TIP3    H119337   2.846   2.055   5.044  0.4018  0.3456 -2.2234
 6467TIP3    H219338   2.786   2.163   5.133 -1.5743 -1.9671 -0.6616
 6468TIP3   OH219339   7.476   7.748   5.167 -0.1942 -0.4641  0.1539
 6468TIP3    H119340   7.442   7.813   5.105  1.4333  0.4312  0.1578
 6468TIP3    H219341   7.416   7.674   5.160 -1.2493  0.4743 -0.9288
 6469TIP3   OH219342   0.520   1.493   5.098 -0.2172  0.2175  0.1059
 6469TIP3    H119343   0.568   1.560   5.148  1.0060 -0.2078 -0.4596
 6469TIP3    H219344   0.479   1.541   5.026  1.7300  0.2162 -1.0572
 6470TIP3   OH219345   1.073   3.727   4.635  0.8460  0.3615 -0.2665
 6470TIP3    H119346   1.150   3.742   4.689  1.5455 -0.1640 -1.1097
 6470TIP3    H219347   1.022   3.808   4.642  1.5929  0.7992  0.0858
 6471TIP3   OH219348   4.379   4.491   4.987 -0.1550  0.2632  0.5528
 6471TIP3    H119349   4.382   4.396   4.995  1.3056  0.2594 -0.0782
 6471TIP3    H219350   4.350   4.507   4.898 -1.4142  0.4244  0.9710
 6472TIP3   OH219351   2.849   1.863   5.500 -0.2308 -0.2172 -0.1203
 6472TIP3    H119352   2.940   1.886   5.478 -0.4978 -1.1392 -2.3765
 6472TIP3    H219353   2.829   1.914   5.578  2.0321  0.4714  0.0376
 6473TIP3   OH219354   2.398   1.756   6.462  0.1738 -0.2840 -0.1557
 6473TIP3    H119355   2.385   1.728   6.371  1.6752 -0.9810 -0.1519
 6473TIP3    H219356   2.413   1.851   6.455 -5.2570  0.7686 -0.1257
 6474TIP3   OH219357   4.697   0.177   4.522 -0.0049 -0.4309  0.5603
 6474TIP3    H119358   4.711   0.106   4.459  1.9112 -0.1724  0.6565
 6474TIP3    H219359   4.645   0.241   4.474  1.1324 -0.3957 -0.6607
 6475TIP3   OH219360   3.205   3.854   5.128  0.2521 -0.0061  0.2252
 6475TIP3    H119361   3.228   3.947   5.137 -0.8873  0.1897  1.1528
 6475TIP3    H219362   3.275   3.818   5.073  0.3376  1.5424 -0.7192
 6476TIP3   OH219363   3.725   6.063   0.439  0.2012 -0.0684  0.5190
 6476TIP3    H119364   3.785   6.123   0.394 -2.3688  1.9118 -0.4330
 6476TIP3    H219365   3.726   5.984   0.385 -0.6204  1.2093 -1.4670
 6477TIP3   OH219366   3.115   2.587   5.620 -0.0026 -0.0668  0.0973
 6477TIP3    H119367   3.090   2.519   5.683 -1.4956  0.1935 -0.2083
 6477TIP3    H219368   3.051   2.657   5.632  0.5112  0.5733 -0.7696
 6478TIP3   OH219369   2.515   3.521   4.751  0.4898  0.1146  0.2810
 6478TIP3    H119370   2.442   3.461   4.737  0.9156 -0.1256 -0.9793
 6478TIP3    H219371   2.474   3.603   4.778 -0.1395 -0.5071  1.2369
 6479TIP3   OH219372   2.647   4.707   5.911  0.1055  0.3464  0.0169
 6479TIP3    H119373   2.562   4.747   5.895  0.4082  0.6889 -0.7636
 6479TIP3    H219374   2.710   4.774   5.886  0.6034  0.6240  1.9510
 6480TIP3   OH219375   3.435   1.956   4.414 -0.9100 -0.0861  0.0097
 6480TIP3    H119376   3.352   1.927   4.376 -2.7533  1.1627  2.8857
 6480TIP3    H219377   3.444   1.905   4.494 -0.0353  1.3827  0.8791
 6481TIP3   OH219378   0.117   1.544   2.107 -0.6159 -0.2145 -0.4571
 6481TIP3    H119379   0.134   1.478   2.175  0.1929  0.7409  0.2752
 6481TIP3    H219380   0.022   1.558   2.111 -0.6142 -0.3821  0.2709
 6482TIP3   OH219381   2.008   2.519   2.552 -0.1119  0.1084 -0.2243
 6482TIP3    H119382   1.989   2.448   2.614  0.1692 -0.3042 -0.6135
 6482TIP3    H219383   2.060   2.581   2.602  0.8436 -0.6331 -0.2981
 6483TIP3   OH219384   2.540   3.948   6.493  0.2578  0.9257  0.1552
 6483TIP3    H119385   2.473   3.939   6.425  0.7455  1.3068 -0.3860
 6483TIP3    H219386   2.601   4.014   6.458  1.7162 -0.4796 -0.0161
 6484TIP3   OH219387   0.896   1.440   4.927 -0.1330 -0.0270 -0.2158
 6484TIP3    H119388   0.987   1.417   4.949  0.1958 -1.0549 -2.4718
 6484TIP3    H219389   0.843   1.373   4.969  0.2531 -0.2512 -0.0822
 6485TIP3   OH219390   6.586   7.787   0.184 -0.1257  0.2117  0.0896
 6485TIP3    H119391   6.525   7.713   0.173  0.0314  0.1507 -0.3501
 6485TIP3    H219392   6.534   7.864   0.164 -0.1825  0.1956  0.1708
 6486TIP3   OH219393   2.670   1.998   6.264 -0.3603  0.2647 -0.3964
 6486TIP3    H119394   2.614   1.998   6.187  0.5357  1.4039 -1.0671
 6486TIP3    H219395   2.609   1.996   6.338 -1.2453  0.0975 -1.1223
 6487TIP3   OH219396   5.162   4.412   6.401 -0.6493 -0.0555  0.0101
 6487TIP3    H119397   5.084   4.389   6.451 -0.7143  1.3749  0.5874
 6487TIP3    H219398   5.216   4.332   6.403 -1.7505 -0.8071  0.2448
 6488TIP3   OH219399   1.402   3.435   6.219 -0.1289 -0.4305 -0.4291
 6488TIP3    H119400   1.371   3.375   6.151 -0.7590  0.1471 -0.6632
 6488TIP3    H219401   1.498   3.428   6.216 -0.1848 -1.1006 -0.7368
 6489TIP3   OH219402   8.422   2.343   4.749 -0.7634  0.0553  0.3493
 6489TIP3    H119403   8.364   2.307   4.816 -2.2749  2.5039  0.4309
 6489TIP3    H219404   8.370   2.344   4.669  0.0126 -0.0469 -0.1632
 6490TIP3   OH219405   3.396   0.768   6.553 -0.0487 -0.0514 -0.3921
 6490TIP3    H119406   3.316   0.798   6.511  1.0421  1.8262 -1.1906
 6490TIP3    H219407   3.433   0.704   6.492  0.3564  0.9606 -1.2105
 6491TIP3   OH219408   2.148   1.440   3.718  0.5236  0.2210 -0.0036
 6491TIP3    H119409   2.076   1.502   3.710 -0.7186 -1.3342 -1.1177
 6491TIP3    H219410   2.181   1.430   3.629  0.6023 -0.8375  0.1378
 6492TIP3   OH219411   0.958   1.387   6.195  0.0151 -0.3711  0.5565
 6492TIP3    H119412   0.883   1.421   6.244 -1.2341 -2.6901  0.3565
 6492TIP3    H219413   1.034   1.424   6.239 -1.2279  2.5906  0.3531
 6493TIP3   OH219414   3.600   0.696   2.669 -0.1549  0.2996  0.6154
 6493TIP3    H119415   3.678   0.745   2.643 -0.8013  0.2176 -1.5441
 6493TIP3    H219416   3.587   0.632   2.599 -2.7859  1.0253  0.3867
 6494TIP3   OH219417   2.613   1.623   4.773 -0.2613 -0.0763  0.3989
 6494TIP3    H119418   2.700   1.661   4.762 -0.9053  1.4362  0.4962
 6494TIP3    H219419   2.557   1.673   4.715 -1.1257 -0.8761  0.5316
 6495TIP3   OH219420   2.955   0.086   4.558 -0.0987  0.1812  0.6956
 6495TIP3    H119421   3.030   0.062   4.503  0.0925  0.5061  0.8116
 6495TIP3    H219422   2.994   0.116   4.640 -0.3904 -0.4574  1.0734
 6496TIP3   OH219423   2.507   1.564   6.267 -0.1474  0.2393  0.1893
 6496TIP3    H119424   2.551   1.626   6.325 -0.6400 -0.0150  0.8519
 6496TIP3    H219425   2.509   1.481   6.315 -0.8318  0.0945 -0.0277
 6497TIP3   OH219426   7.989   0.047   0.206 -0.0456  0.1126 -0.2567
 6497TIP3    H119427   8.044   0.085   0.274  1.0267 -0.9238 -0.5234
 6497TIP3    H219428   8.039   0.059   0.125 -0.8848  0.4870 -0.7268
 6498TIP3   OH219429   2.937   1.133   5.929 -0.2085  0.0380  0.1360
 6498TIP3    H119430   2.880   1.211   5.931  0.6528  0.6739  2.3654
 6498TIP3    H219431   3.001   1.150   5.998  1.1809 -1.7919 -0.6895
 6499TIP3   OH219432   2.089   3.800   6.587 -0.6212 -0.0752  0.2329
 6499TIP3    H119433   2.132   3.734   6.640 -0.9888  0.7580  1.5916
 6499TIP3    H219434   2.130   3.792   6.501 -1.3329 -2.6826  0.0995
 6500TIP3   OH219435   3.013   1.518   5.617 -0.8175  0.0472 -0.2707
 6500TIP3    H119436   2.932   1.510   5.667 -0.0034 -1.1538  0.9137
 6500TIP3    H219437   2.993   1.478   5.532 -1.8030  0.8294 -0.4101
 6501TIP3   OH219438   8.072   7.880   6.133 -0.2002 -0.9522  0.2529
 6501TIP3    H119439   8.112   7.811   6.186  0.4489  0.2150  1.3071
 6501TIP3    H219440   8.141   7.907   6.073  0.6421  1.0474  2.0577
 6502TIP3   OH219441   6.748   5.109   0.318  0.7899 -0.0621 -0.8465
 6502TIP3    H119442   6.676   5.055   0.287  1.3698 -1.4793  0.1790
 6502TIP3    H219443   6.738   5.192   0.272 -2.4710  0.3749  0.5749
 6503TIP3   OH219444   2.749   1.173   4.597 -0.0804  0.0491  0.7099
 6503TIP3    H119445   2.671   1.226   4.584 -0.2637 -0.4425 -0.2692
 6503TIP3    H219446   2.738   1.135   4.684 -0.2094  1.1599  1.1982
 6504TIP3   OH219447   7.430   7.950   4.222 -0.4533 -0.1023  0.8906
 6504TIP3    H119448   7.461   7.882   4.162 -0.1737  0.0950  0.8073
 6504TIP3    H219449   7.511   7.987   4.259 -0.5471  1.1026 -0.0813
 6505TIP3   OH219450   4.926   0.591   6.175 -0.1209  0.0630  0.4292
 6505TIP3    H119451   4.921   0.499   6.200 -0.8732 -0.0954 -0.2882
 6505TIP3    H219452   4.838   0.624   6.190 -0.1698  0.3590 -0.5006
 6506TIP3   OH219453   1.822   2.156   6.425 -0.2170 -0.0495 -0.1819
 6506TIP3    H119454   1.821   2.199   6.511  0.5550 -1.1213  0.3723
 6506TIP3    H219455   1.915   2.136   6.410 -0.6779 -2.4030  0.0237
 6507TIP3   OH219456   8.096   6.997   6.509 -0.6046 -0.0920 -0.2536
 6507TIP3    H119457   8.191   6.992   6.501 -0.5508  1.6078 -0.9977
 6507TIP3    H219458   8.063   6.936   6.444 -0.0194  0.8376 -1.4531
 6508TIP3   OH219459   1.279   3.008   3.744 -0.0642 -0.2639  0.3017
 6508TIP3    H119460   1.232   2.925   3.737  1.6673 -1.2421  0.1533
 6508TIP3    H219461   1.238   3.052   3.819 -1.1803 -1.1134  0.1989
 6509TIP3   OH219462   3.150   1.465   5.912 -0.2629 -0.5722 -0.1078
 6509TIP3    H119463   3.070   1.514   5.891  0.4102  1.1478  1.1814
 6509TIP3    H219464   3.219   1.510   5.863 -0.1194 -2.3448 -1.5956
 6510TIP3   OH219465   1.908   2.349   5.791  0.1982 -0.1300  0.0872
 6510TIP3    H119466   1.970   2.371   5.861  0.1900  0.1340  0.0115
 6510TIP3    H219467   1.960   2.300   5.727  0.1673 -0.5152  0.3565
 6511TIP3   OH219468   3.060   1.897   5.100 -0.1418 -0.1589 -0.0638
 6511TIP3    H119469   3.130   1.834   5.081  1.0802  0.8946  0.8626
 6511TIP3    H219470   3.069   1.963   5.031 -0.3633 -0.1392 -0.0716
 6512TIP3   OH219471   3.056   3.490   4.656  0.4855 -0.4339 -0.1824
 6512TIP3    H119472   3.085   3.572   4.697  0.6942 -0.1526 -0.8841
 6512TIP3    H219473   2.983   3.461   4.711 -0.7180  1.1188 -0.8978
 6513TIP3   OH219474   3.779   1.100   4.397  0.5866 -0.3136 -0.0275
 6513TIP3    H119475   3.808   1.125   4.309  1.0804  0.3883  0.3236
 6513TIP3    H219476   3.688   1.128   4.402  0.7538  0.2606 -0.0955
 6514TIP3   OH219477   0.904   0.972   5.171 -0.2841  0.1224 -0.0833
 6514TIP3    H119478   0.979   0.969   5.231  0.0316 -0.6437 -0.5134
 6514TIP3    H219479   0.939   1.011   5.091 -0.9198  1.9989  0.5056
 6515TIP3   OH219480   2.533   3.305   4.501  0.4556 -0.0632 -0.0705
 6515TIP3    H119481   2.543   3.400   4.496 -2.1296  0.4545  3.1499
 6515TIP3    H219482   2.450   3.288   4.456 -0.4647 -0.4617  1.7654
 6516TIP3   OH219483   1.456   3.004   5.209  0.6387  0.1061 -0.6552
 6516TIP3    H119484   1.497   2.970   5.129 -0.1310 -1.6289 -0.3505
 6516TIP3    H219485   1.365   2.977   5.201  0.2016  1.3571  0.0564
 6517TIP3   OH219486   2.047   4.090   5.518  0.2652  0.0144  0.2157
 6517TIP3    H119487   1.988   4.141   5.462 -0.1639  1.3444  1.8579
 6517TIP3    H219488   1.999   4.010   5.537 -0.6746  0.7450  0.8953
 6518TIP3   OH219489   1.551   1.918   4.158 -0.0151  0.1537  0.2467
 6518TIP3    H119490   1.496   1.977   4.210  1.3211  1.9872 -0.3560
 6518TIP3    H219491   1.503   1.905   4.077  0.0034  0.9872  0.1007
 6519TIP3   OH219492   1.323   0.995   6.096 -0.3814 -0.3051  0.0822
 6519TIP3    H119493   1.241   1.044   6.099  0.2608  0.7470  0.5196
 6519TIP3    H219494   1.308   0.922   6.156 -0.5411  0.6017  1.1599
 6520TIP3   OH219495   3.194   2.912   4.946  0.8929  0.5722  0.1663
 6520TIP3    H119496   3.135   2.837   4.946  0.5662  0.8244  0.2880
 6520TIP3    H219497   3.264   2.888   4.886  0.0532  0.7397 -0.8853
 6521TIP3   OH219498   1.185   1.767   5.882  0.4397  0.1408 -0.2609
 6521TIP3    H119499   1.236   1.832   5.930 -1.7489  2.6858 -1.2564
 6521TIP3    H219500   1.110   1.748   5.939 -0.8999  1.3668 -1.5722
 6522TIP3   OH219501   3.407   5.136   5.227 -0.1471 -0.0974  0.4510
 6522TIP3    H119502   3.500   5.160   5.229  0.1298 -1.1150  0.3469
 6522TIP3    H219503   3.381   5.134   5.319  0.3335 -1.2656  0.5701
 6523TIP3   OH219504   4.352   3.555   3.811  0.1073  0.1938 -0.4138
 6523TIP3    H119505   4.297   3.548   3.733 -0.6789 -0.3708  0.1852
 6523TIP3    H219506   4.355   3.466   3.846 -0.2434  0.6122  0.6898
 6524TIP3   OH219507   4.111   0.894   5.164 -0.3353  0.2736 -0.3676
 6524TIP3    H119508   4.032   0.939   5.196 -0.7915 -0.1494 -0.9034
 6524TIP3    H219509   4.121   0.819   5.222 -1.2975 -0.6259 -1.3505
 6525TIP3   OH219510   2.628   0.413   5.395 -0.1705  0.2490  0.2382
 6525TIP3    H119511   2.690   0.392   5.325  0.0788  0.8181  0.2834
 6525TIP3    H219512   2.606   0.328   5.434  1.0401  0.0932  0.6102
 6526TIP3   OH219513   2.383   1.070   5.049  0.3073 -0.3833 -0.0917
 6526TIP3    H119514   2.311   1.026   5.004 -0.5835  0.4359  0.5191
 6526TIP3    H219515   2.341   1.133   5.107  1.4866 -0.7948  1.2386
 6527TIP3   OH219516   2.129   4.453   6.457 -0.0535 -0.5252  0.0806
 6527TIP3    H119517   2.085   4.520   6.510  2.1821  1.1561 -0.1098
 6527TIP3    H219518   2.148   4.383   6.519  1.7773  1.0669  1.3974
 6528TIP3   OH219519   3.821   3.308   6.438  0.3319 -0.2738  0.2305
 6528TIP3    H119520   3.764   3.235   6.416  0.1278  0.0626 -0.3473
 6528TIP3    H219521   3.762   3.382   6.455  0.6366  0.3497 -1.3962
 6529TIP3   OH219522   4.699   2.979   5.847  0.5942 -0.3210 -0.0446
 6529TIP3    H119523   4.716   3.067   5.881 -0.1345 -0.6212  1.1341
 6529TIP3    H219524   4.677   2.993   5.755 -0.4442  0.8366  0.3646
 6530TIP3   OH219525   3.660   1.605   4.766  0.0266  0.5694  0.4175
 6530TIP3    H119526   3.742   1.613   4.814  0.0112 -1.9848  0.9705
 6530TIP3    H219527   3.675   1.534   4.703 -2.1835 -0.9834  1.5542
 6531TIP3   OH219528   1.055   3.072   5.450  0.0427  0.3105  0.4833
 6531TIP3    H119529   1.007   3.087   5.368 -0.2654  1.7096  0.9052
 6531TIP3    H219530   1.019   3.137   5.511  0.5628 -0.4444  1.6124
 6532TIP3   OH219531   3.186   0.890   6.411 -0.2152 -0.2835  0.0715
 6532TIP3    H119532   3.108   0.906   6.358  0.2568  0.4055 -0.4236
 6532TIP3    H219533   3.170   0.938   6.493 -0.8666 -1.2019  0.4836
 6533TIP3   OH219534   3.439   0.584   4.957 -0.1110 -0.4506  0.0700
 6533TIP3    H119535   3.353   0.613   4.987 -0.8036 -1.4214 -0.9305
 6533TIP3    H219536   3.420   0.525   4.884  1.4644  0.5785 -1.2186
 6534TIP3   OH219537   3.365   2.261   4.411  0.4161 -0.3941 -0.3368
 6534TIP3    H119538   3.400   2.263   4.500 -0.6807 -1.7869  0.1313
 6534TIP3    H219539   3.360   2.169   4.388  0.8488 -0.0435 -1.9192
 6535TIP3   OH219540   7.229   7.375   3.551  0.2494  0.3469  0.1750
 6535TIP3    H119541   7.148   7.425   3.558  0.1882  0.3021 -0.1950
 6535TIP3    H219542   7.233   7.349   3.459  2.0915  2.6960 -0.4723
 6536TIP3   OH219543   3.518   1.812   4.663  0.4585 -0.8299 -0.2944
 6536TIP3    H119544   3.566   1.744   4.710 -0.7918 -1.1941  0.4977
 6536TIP3    H219545   3.481   1.868   4.733  1.2793  0.5337 -0.9263
 6537TIP3   OH219546   0.089   2.318   6.416 -0.1793 -0.6675  0.5899
 6537TIP3    H119547   0.098   2.407   6.380 -0.7433 -0.8664 -0.0598
 6537TIP3    H219548   0.176   2.279   6.404  0.0678 -0.2086  0.8692
 6538TIP3   OH219549   3.164   4.857   6.090  0.7246 -0.8031  0.0393
 6538TIP3    H119550   3.189   4.777   6.044  1.0458 -1.2537  0.9751
 6538TIP3    H219551   3.232   4.920   6.067 -0.9999  0.0815 -2.9352
 6539TIP3   OH219552   2.346   3.740   6.822  0.1581 -0.2451 -0.1645
 6539TIP3    H119553   2.381   3.697   6.744 -0.7416  0.4509 -0.9610
 6539TIP3    H219554   2.336   3.832   6.797  0.9142  0.2215  1.1313
 6540TIP3   OH219555   1.267   3.244   5.476 -0.1767 -0.5244 -0.4351
 6540TIP3    H119556   1.204   3.173   5.467  1.7480 -2.2589 -0.5182
 6540TIP3    H219557   1.276   3.279   5.387 -0.8425 -0.4057 -0.4609
 6541TIP3   OH219558   2.047   3.401   4.656 -0.1281 -1.2305  0.3656
 6541TIP3    H119559   2.097   3.368   4.730  0.3406  0.2678  0.7330
 6541TIP3    H219560   2.111   3.448   4.603 -0.2975 -2.9283 -1.4103
 6542TIP3   OH219561   1.069   7.891   4.315 -0.3551  0.1832 -0.6219
 6542TIP3    H119562   1.157   7.920   4.292 -1.3097  2.2155 -1.8084
 6542TIP3    H219563   1.083   7.814   4.371  2.1461  0.2954 -1.0431
 6543TIP3   OH219564   0.511   4.811   5.358 -0.0290 -0.3844 -0.2525
 6543TIP3    H119565   0.583   4.748   5.361  0.3707  0.0897  0.2937
 6543TIP3    H219566   0.535   4.870   5.287  1.2421  1.0834  1.3531
 6544TIP3   OH219567   3.727   1.777   4.346  0.4995  0.3380 -0.5691
 6544TIP3    H119568   3.704   1.753   4.436 -1.8296 -2.3633 -1.8016
 6544TIP3    H219569   3.710   1.871   4.341 -1.9844  0.0159  1.0978
 6545TIP3   OH219570   4.123   2.042   3.953  0.1036 -0.1797 -0.2805
 6545TIP3    H119571   4.141   2.065   4.044 -1.4430 -2.7201  0.7302
 6545TIP3    H219572   4.187   1.973   3.933  0.1011  0.0131 -0.9626
 6546TIP3   OH219573   2.857   2.813   5.394  0.0692 -0.2192  0.2118
 6546TIP3    H119574   2.771   2.850   5.411  0.6690  0.7581  1.2097
 6546TIP3    H219575   2.840   2.732   5.345 -1.6883 -2.5864  4.5191
 6547TIP3   OH219576   3.242   3.174   4.645  0.0709  0.5913 -0.3961
 6547TIP3    H119577   3.299   3.250   4.652  0.2224  0.3958  0.6335
 6547TIP3    H219578   3.172   3.201   4.586 -0.0576  1.6411  0.2361
 6548TIP3   OH219579   0.369   5.297   4.124  0.7668  0.9072 -0.6182
 6548TIP3    H119580   0.460   5.320   4.106  2.4790 -1.2791  4.3508
 6548TIP3    H219581   0.343   5.357   4.195 -1.0448  0.2295 -0.6894
 6549TIP3   OH219582   4.084   3.730   4.536  0.2939 -0.1072 -0.5944
 6549TIP3    H119583   4.043   3.684   4.462 -1.0970  0.0839  0.0477
 6549TIP3    H219584   4.140   3.796   4.494  0.8597 -1.1358 -1.4938
 6550TIP3   OH219585   3.764   2.461   3.502  0.0675  0.1860  0.5328
 6550TIP3    H119586   3.767   2.550   3.467 -0.0245 -0.7202 -1.8617
 6550TIP3    H219587   3.716   2.469   3.585 -0.0212  2.3300  0.3020
 6551TIP3   OH219588   1.735   1.420   6.693 -0.1125  0.2959 -0.8530
 6551TIP3    H119589   1.640   1.413   6.707  0.0762 -0.0349  0.2812
 6551TIP3    H219590   1.766   1.475   6.765  0.8487 -1.2880 -0.0535
 6552TIP3   OH219591   4.302   1.994   4.958  0.0241  0.2243 -0.1738
 6552TIP3    H119592   4.248   1.916   4.972 -0.2636  0.6573  1.2249
 6552TIP3    H219593   4.246   2.054   4.910 -1.1559  1.1009  2.2331
 6553TIP3   OH219594   5.416   1.220   5.344 -0.0329  0.2694  0.9782
 6553TIP3    H119595   5.436   1.299   5.395  1.3110  0.6583 -0.1293
 6553TIP3    H219596   5.402   1.251   5.255  0.4593 -0.7273  0.5387
 6554TIP3   OH219597   3.219   2.454   4.783 -0.3014  0.2314  0.3032
 6554TIP3    H119598   3.147   2.398   4.811  0.1759 -0.4132  0.2659
 6554TIP3    H219599   3.178   2.537   4.759 -1.2626 -0.7133 -1.4587
 6555TIP3   OH219600   0.434   7.062   5.992  0.1294  0.4159  0.2744
 6555TIP3    H119601   0.489   6.984   5.987 -0.6270 -0.1938  1.2741
 6555TIP3    H219602   0.388   7.066   5.909  0.2312 -0.1603  0.1921
 6556TIP3   OH219603   1.718   2.375   3.564 -0.2331  0.5941  0.0536
 6556TIP3    H119604   1.754   2.352   3.478 -1.6947 -0.2630 -0.3527
 6556TIP3    H219605   1.738   2.299   3.619 -0.6466  0.4907  0.0605
 6557TIP3   OH219606   2.993   0.448   5.648 -0.6840 -0.1731 -0.4870
 6557TIP3    H119607   2.917   0.491   5.686 -0.3790  0.1079 -0.1810
 6557TIP3    H219608   2.958   0.381   5.590 -1.1683  0.3252 -0.7754
 6558TIP3   OH219609   4.759   0.330   2.944 -0.4778 -0.0710  0.0860
 6558TIP3    H119610   4.838   0.365   2.986 -0.8686  0.2841  0.5311
 6558TIP3    H219611   4.742   0.389   2.871 -1.7170  1.2827  1.4392
 6559TIP3   OH219612   2.878   4.136   5.243  0.0627 -0.4018 -0.3062
 6559TIP3    H119613   2.818   4.193   5.292 -0.5986 -0.7136 -0.7393
 6559TIP3    H219614   2.929   4.196   5.188  0.3008 -0.1157  0.2250
 6560TIP3   OH219615   0.753   6.743   3.556 -0.7322 -0.0993  0.1582
 6560TIP3    H119616   0.741   6.649   3.570  0.3844 -0.3610 -0.5725
 6560TIP3    H219617   0.803   6.772   3.633 -1.8347  0.0760  0.8217
 6561TIP3   OH219618   2.572   3.240   4.923  0.0106 -0.1963  0.4485
 6561TIP3    H119619   2.607   3.234   5.012  0.1896 -0.5578  0.3579
 6561TIP3    H219620   2.585   3.331   4.898 -2.1097  0.4484  1.6179
 6562TIP3   OH219621   2.441   2.452   3.658 -0.2315 -0.2617 -0.2614
 6562TIP3    H119622   2.418   2.396   3.584  0.3180  1.1840 -1.5541
 6562TIP3    H219623   2.536   2.442   3.667 -0.0192  0.9863 -0.9647
 6563TIP3   OH219624   3.134   3.036   5.252 -0.2986 -0.4331 -0.0579
 6563TIP3    H119625   3.072   2.971   5.216  0.0945 -0.0233 -1.5187
 6563TIP3    H219626   3.105   3.119   5.214  2.2837 -0.5052 -2.3200
 6564TIP3   OH219627   3.466   3.068   3.250  0.3958  0.4810 -0.0928
 6564TIP3    H119628   3.370   3.066   3.244  0.3524  0.8420  0.4792
 6564TIP3    H219629   3.484   3.130   3.320  1.0242 -0.2501  0.4004
 6565TIP3   OH219630   4.653   4.502   0.535  0.3539 -0.6452 -0.0990
 6565TIP3    H119631   4.572   4.498   0.483  0.2132 -1.2912  0.1702
 6565TIP3    H219632   4.697   4.580   0.503 -0.4036 -0.2543 -0.2145
 6566TIP3   OH219633   1.516   3.241   4.540  0.5415 -0.1709 -0.2021
 6566TIP3    H119634   1.534   3.274   4.452 -0.7736  2.1009  0.3315
 6566TIP3    H219635   1.423   3.218   4.538  0.4889 -0.0374  0.6244
 6567TIP3   OH219636   8.110   5.371   1.635 -0.5732  0.1982  0.4751
 6567TIP3    H119637   8.109   5.464   1.655 -0.2087  0.8842 -2.4029
 6567TIP3    H219638   8.068   5.364   1.549 -2.0257 -2.4900  1.3412
 6568TIP3   OH219639   1.837   0.059   5.157  0.4100  0.2583 -0.1141
 6568TIP3    H119640   1.821  -0.005   5.087  2.0237 -0.3214  0.0124
 6568TIP3    H219641   1.931   0.075   5.153  0.2781  1.3537  0.9718
 6569TIP3   OH219642   8.122   7.012   6.198 -0.1252 -0.1831 -0.2855
 6569TIP3    H119643   8.055   6.952   6.232 -0.6730  0.6086  0.0575
 6569TIP3    H219644   8.190   6.955   6.161 -0.9768 -0.9926 -0.6086
 6570TIP3   OH219645   5.463   1.251   6.557  0.0881 -0.0209 -0.0704
 6570TIP3    H119646   5.404   1.324   6.538 -0.2137  0.0539  1.0778
 6570TIP3    H219647   5.460   1.243   6.653  3.0450  0.9298  0.1501
 6571TIP3   OH219648   3.985   0.281   5.451 -0.0093  0.1853 -0.0922
 6571TIP3    H119649   3.949   0.350   5.396 -1.1735  0.0427  0.4743
 6571TIP3    H219650   3.974   0.314   5.541 -0.1397 -0.5204  0.1593
 6572TIP3   OH219651   3.883   0.836   4.306 -0.1388  0.2969 -0.1853
 6572TIP3    H119652   3.954   0.864   4.247 -0.4190 -0.2121 -0.7691
 6572TIP3    H219653   3.855   0.916   4.350  1.0798  0.4347  0.3524
 6573TIP3   OH219654   2.097   0.408   6.236  0.2627  0.6760 -0.6933
 6573TIP3    H119655   2.141   0.354   6.302  1.9665  2.2698 -0.4724
 6573TIP3    H219656   2.121   0.498   6.259 -1.1097  1.4136 -2.0596
 6574TIP3   OH219657   4.761   1.704   4.607  0.5812  0.0217  0.1165
 6574TIP3    H119658   4.740   1.618   4.572  0.7544 -0.2433  0.6538
 6574TIP3    H219659   4.677   1.740   4.634  0.6784 -0.5846  1.2462
 6575TIP3   OH219660   3.665   0.688   5.332  0.4895 -0.1987 -0.3723
 6575TIP3    H119661   3.665   0.650   5.419  2.0659  1.9269  0.6104
 6575TIP3    H219662   3.616   0.770   5.342  0.1858 -0.2121 -1.6310
 6576TIP3   OH219663   5.518   3.469   5.399 -0.2775  0.4060  0.1619
 6576TIP3    H119664   5.559   3.489   5.483 -1.5741  0.5468  0.7722
 6576TIP3    H219665   5.533   3.375   5.386  3.2288  1.1026 -1.2844
 6577TIP3   OH219666   3.967   0.532   5.347 -0.1496 -0.0540 -0.2250
 6577TIP3    H119667   4.048   0.583   5.357  0.2424 -0.5286 -0.9491
 6577TIP3    H219668   3.932   0.560   5.262 -0.4487 -0.2643 -0.1693
 6578TIP3   OH219669   4.469   1.932   2.812 -0.3411 -0.0657 -0.0070
 6578TIP3    H119670   4.423   1.862   2.857 -0.9104 -0.3040 -0.9491
 6578TIP3    H219671   4.403   1.973   2.755  0.7058 -0.7506 -1.7603
 6579TIP3   OH219672   6.645   2.442   2.856 -0.4218  0.0174  0.4400
 6579TIP3    H119673   6.589   2.365   2.862 -0.0635 -0.1194  2.2976
 6579TIP3    H219674   6.724   2.418   2.904  0.7994  0.6056 -1.2160
 6580TIP3   OH219675   1.908   7.586   5.319  0.9359 -0.0641 -0.5945
 6580TIP3    H119676   1.858   7.561   5.396  1.2047  1.7363  0.1763
 6580TIP3    H219677   1.969   7.513   5.306  0.8661 -0.4058  0.8719
 6581TIP3   OH219678   4.735   0.450   1.620 -0.6076  0.0890  0.4311
 6581TIP3    H119679   4.789   0.512   1.570 -0.8810 -0.7641 -0.9113
 6581TIP3    H219680   4.798   0.401   1.673 -0.3230  0.9946  0.9466
 6582TIP3   OH219681   5.974   4.151   3.218 -0.7125  0.0382  0.1382
 6582TIP3    H119682   6.069   4.162   3.219 -0.5587 -0.7560 -2.3571
 6582TIP3    H219683   5.943   4.219   3.158 -1.6477 -0.2824  0.2553
 6583TIP3   OH219684   4.618   2.860   4.708 -0.2023 -0.2128 -0.1967
 6583TIP3    H119685   4.630   2.839   4.801 -1.1708  0.4954  0.1036
 6583TIP3    H219686   4.685   2.925   4.689  0.4498 -0.8753 -0.1798
 6584TIP3   OH219687   3.243   3.808   6.565  0.4446  0.6266 -0.4748
 6584TIP3    H119688   3.299   3.739   6.527 -0.5067  0.1678 -1.0705
 6584TIP3    H219689   3.230   3.870   6.494  0.4482  0.8928 -0.2425
 6585TIP3   OH219690   4.630   1.019   5.670  0.4134  0.7673  0.3803
 6585TIP3    H119691   4.689   1.078   5.716  1.9893 -0.7522  0.3758
 6585TIP3    H219692   4.656   1.026   5.578 -0.7326  1.5529  0.1042
 6586TIP3   OH219693   3.998   0.669   5.712 -1.1175  0.0405  0.1838
 6586TIP3    H119694   4.037   0.754   5.732 -0.4204 -0.3291  0.4089
 6586TIP3    H219695   3.985   0.628   5.798  0.1414 -0.7824 -0.0104
 6587TIP3   OH219696   2.260   5.113   5.701  0.2415  0.5495  0.3917
 6587TIP3    H119697   2.322   5.041   5.715  0.2754  0.5524  0.2585
 6587TIP3    H219698   2.249   5.116   5.606  0.6463  1.0676  0.3611
 6588TIP3   OH219699   5.299   0.609   3.528  0.2221  0.1007 -0.8473
 6588TIP3    H119700   5.308   0.520   3.495  0.0940  0.1249 -0.9497
 6588TIP3    H219701   5.222   0.644   3.482 -0.8816 -0.3617  0.6063
 6589TIP3   OH219702   3.333   0.570   5.373  0.5457 -0.6676 -0.0334
 6589TIP3    H119703   3.243   0.599   5.388 -0.1078 -2.3349 -0.5937
 6589TIP3    H219704   3.380   0.649   5.349 -0.7857  0.2106  0.1964
 6590TIP3   OH219705   4.866   2.636   5.848  0.4849 -0.3075  0.4994
 6590TIP3    H119706   4.847   2.609   5.937  0.2485 -0.5193  0.3875
 6590TIP3    H219707   4.915   2.563   5.810  1.8804  0.3995  0.9071
 6591TIP3   OH219708   4.692   3.539   3.351 -0.1774 -0.1093  0.0969
 6591TIP3    H119709   4.746   3.550   3.273 -2.5683 -0.4793 -1.6857
 6591TIP3    H219710   4.658   3.627   3.369 -1.8406 -0.4910 -1.0053
 6592TIP3   OH219711   5.415   4.267   2.907  0.5072 -0.3209  0.3433
 6592TIP3    H119712   5.483   4.223   2.855  0.1209 -0.5863  0.0660
 6592TIP3    H219713   5.342   4.205   2.909  0.9725 -0.8669  2.2618
 6593TIP3   OH219714   5.853   2.915   3.482  0.1012  0.8106 -0.3272
 6593TIP3    H119715   5.918   2.900   3.413  0.4018  2.8388 -0.5023
 6593TIP3    H219716   5.772   2.876   3.448  0.1569  2.0974 -1.9845
 6594TIP3   OH219717   3.945   0.261   5.156 -0.1323  0.4047 -0.0312
 6594TIP3    H119718   3.951   0.356   5.147  1.1157  0.2458 -0.9908
 6594TIP3    H219719   4.031   0.229   5.131 -0.0877 -0.8978  1.6903
 6595TIP3   OH219720   5.478   3.872   4.130 -0.4805 -0.1060  0.3053
 6595TIP3    H119721   5.559   3.851   4.177  0.0460  0.3566 -0.3863
 6595TIP3    H219722   5.483   3.819   4.050  0.3542  1.8401 -0.9521
 6596TIP3   OH219723   3.608   3.000   1.179 -0.1689 -0.6241 -0.4978
 6596TIP3    H119724   3.560   3.053   1.244  1.2738 -0.2266  0.2580
 6596TIP3    H219725   3.562   2.916   1.180  0.0908 -0.7841  1.3939
 6597TIP3   OH219726   4.630   2.701   3.354 -0.3267 -0.3577 -0.6207
 6597TIP3    H119727   4.557   2.704   3.416  0.8756  1.0155  0.7454
 6597TIP3    H219728   4.608   2.767   3.288 -0.2128  0.2234 -0.0808
 6598TIP3   OH219729   4.712   1.276   3.850 -0.0002 -0.4503 -0.1711
 6598TIP3    H119730   4.632   1.306   3.895 -0.6510 -1.5308 -0.5911
 6598TIP3    H219731   4.748   1.210   3.909  0.3360 -0.3038 -0.2122
 6599TIP3   OH219732   5.744   0.504   4.786  0.0441 -0.3064 -0.3889
 6599TIP3    H119733   5.670   0.457   4.745 -0.6812  0.0709  0.4846
 6599TIP3    H219734   5.776   0.444   4.853 -0.8563  0.4250  0.7018
 6600TIP3   OH219735   2.958   0.535   4.651 -0.3358 -0.3371 -0.1440
 6600TIP3    H119736   2.889   0.564   4.710 -1.5997  0.4029 -1.9318
 6600TIP3    H219737   2.925   0.453   4.614 -0.6338  0.4219 -1.5941
 6601TIP3   OH219738   5.651   3.327   4.361  0.4735  0.0755 -0.2084
 6601TIP3    H119739   5.600   3.251   4.333 -0.3219 -0.6516  2.9825
 6601TIP3    H219740   5.591   3.401   4.353 -0.3297 -0.4033  1.2048
 6602TIP3   OH219741   5.986   3.159   4.933 -0.3634  0.6437  0.1699
 6602TIP3    H119742   5.997   3.228   4.868 -0.3434  0.3525 -0.1401
 6602TIP3    H219743   6.009   3.200   5.016  0.3377  0.8155 -0.1077
 6603TIP3   OH219744   5.044   1.164   3.894  1.4924  0.5562  0.2712
 6603TIP3    H119745   5.140   1.172   3.897  1.6373  0.0858 -2.0018
 6603TIP3    H219746   5.023   1.102   3.963  2.9940 -0.4445 -0.1411
 6604TIP3   OH219747   5.156   0.555   4.355 -0.0941 -0.0319 -0.1032
 6604TIP3    H119748   5.096   0.626   4.380 -1.5585 -1.2980  0.0778
 6604TIP3    H219749   5.123   0.525   4.270  0.6124 -0.3889 -0.2520
 6605TIP3   OH219750   3.910   0.581   3.333  0.1675  0.0594  0.3531
 6605TIP3    H119751   3.976   0.623   3.388  0.7187 -2.0844  1.3674
 6605TIP3    H219752   3.826   0.608   3.372  0.4635  1.4304  0.0694
 6606TIP3   OH219753   3.063   5.333   3.981 -0.0246  0.2139  0.1378
 6606TIP3    H119754   3.064   5.405   4.044 -1.5560  1.7445 -1.5618
 6606TIP3    H219755   3.050   5.255   4.035 -1.8735  1.5593  1.6967
 6607TIP3   OH219756   5.663   1.877   5.458  0.1542 -0.0328  1.0677
 6607TIP3    H119757   5.713   1.953   5.429  0.8095 -0.6193  0.6408
 6607TIP3    H219758   5.711   1.844   5.534 -0.3193  0.1846  1.4594
 6608TIP3   OH219759   7.289   1.569   4.987 -0.0281  0.3498  0.0309
 6608TIP3    H119760   7.234   1.508   4.939 -1.1729  1.9322 -0.7246
 6608TIP3    H219761   7.326   1.626   4.920  0.3235  1.0276  0.7878
 6609TIP3   OH219762   2.035   3.695   4.237  0.1942  0.3610 -0.0006
 6609TIP3    H119763   2.116   3.709   4.188  0.4948  0.3924  0.5007
 6609TIP3    H219764   2.062   3.645   4.314 -0.6698 -1.9359 -1.1463
 6610TIP3   OH219765   6.317   2.371   4.859  0.1388  0.7327  0.0592
 6610TIP3    H119766   6.318   2.417   4.775 -1.7038 -0.4600 -0.6600
 6610TIP3    H219767   6.321   2.279   4.836  1.5021  0.4399  1.3819
 6611TIP3   OH219768   4.882   2.794   6.738 -0.6338 -0.1843 -0.0233
 6611TIP3    H119769   4.815   2.834   6.682 -0.8485 -0.5654 -0.0452
 6611TIP3    H219770   4.941   2.750   6.677  0.2366  1.0356 -0.0690
 6612TIP3   OH219771   6.685   2.930   3.841  0.3647  0.4116 -0.2116
 6612TIP3    H119772   6.596   2.897   3.854  0.4404  0.1298 -0.4080
 6612TIP3    H219773   6.677   2.995   3.771  0.3351  0.2960 -0.3161
 6613TIP3   OH219774   5.383   1.280   4.114  0.1044  0.0771 -0.3248
 6613TIP3    H119775   5.462   1.227   4.124  0.4831  0.2765 -2.0704
 6613TIP3    H219776   5.379   1.298   4.020 -0.2895  2.7435  0.1866
 6614TIP3   OH219777   3.743   4.168   3.635 -0.1459  0.3889 -0.5307
 6614TIP3    H119778   3.807   4.221   3.589  0.0433  1.0678  0.5107
 6614TIP3    H219779   3.751   4.081   3.595 -0.1478  1.0185 -1.9309
 6615TIP3   OH219780   8.135   7.239   0.918 -0.2552  0.0002 -0.3134
 6615TIP3    H119781   8.158   7.265   1.007 -0.5651 -1.9084  0.3523
 6615TIP3    H219782   8.088   7.314   0.882 -0.1060  0.7944  1.1201
 6616TIP3   OH219783   3.377   2.028   4.829 -0.3681  0.1170 -0.1806
 6616TIP3    H119784   3.373   2.120   4.854  0.8593  0.3610 -0.8456
 6616TIP3    H219785   3.302   1.988   4.873  1.7175  0.4898  3.9702
 6617TIP3   OH219786   5.569   2.079   5.725  0.9149  0.1343 -0.2509
 6617TIP3    H119787   5.635   2.092   5.793  1.5268 -0.8487 -0.6636
 6617TIP3    H219788   5.610   2.112   5.645  0.7897 -0.2028 -0.4527
 6618TIP3   OH219789   4.227   3.534   3.583  0.0059 -0.1103 -0.3690
 6618TIP3    H119790   4.135   3.509   3.571  0.2260 -2.1428  1.7195
 6618TIP3    H219791   4.268   3.513   3.499 -1.3414  0.3678 -1.1671
 6619TIP3   OH219792   4.544   2.108   3.052 -0.6354  0.2408  0.2800
 6619TIP3    H119793   4.508   2.053   2.982  1.9010  0.3798 -1.1875
 6619TIP3    H219794   4.503   2.193   3.040 -2.7393 -0.6307  1.0581
 6620TIP3   OH219795   4.517   1.237   4.994 -0.2922  0.1122 -1.0299
 6620TIP3    H119796   4.507   1.331   4.979  2.2280  0.6955  0.5966
 6620TIP3    H219797   4.482   1.223   5.082 -1.4727 -0.6220 -1.6211
 6621TIP3   OH219798   3.535   0.686   3.334 -0.5336  0.6335 -0.2761
 6621TIP3    H119799   3.531   0.618   3.401  0.6165  0.4593 -0.3803
 6621TIP3    H219800   3.584   0.757   3.374  1.9838 -0.2838 -1.6078
 6622TIP3   OH219801   4.228   3.727   4.876 -0.8665  0.0776 -0.7509
 6622TIP3    H119802   4.256   3.664   4.943 -0.7351 -0.1558 -1.0222
 6622TIP3    H219803   4.141   3.698   4.850  0.3089 -1.6844 -2.8999
 6623TIP3   OH219804   7.366   3.272   4.509 -1.0515  0.5709  0.1379
 6623TIP3    H119805   7.424   3.281   4.585 -0.5278  1.9265 -0.3990
 6623TIP3    H219806   7.396   3.193   4.465 -0.3384  0.6446  0.4852
 6624TIP3   OH219807   5.151   2.142   4.888 -0.0758 -0.0794 -0.2661
 6624TIP3    H119808   5.104   2.143   4.972 -1.5279 -0.3200 -1.0724
 6624TIP3    H219809   5.144   2.051   4.858 -0.2619  0.2001 -1.0535
 6625TIP3   OH219810   1.728   0.114   4.632  0.6403  0.0779  1.0819
 6625TIP3    H119811   1.733   0.026   4.669  1.7162 -0.2604  0.1554
 6625TIP3    H219812   1.635   0.137   4.637  0.2356 -1.4169  0.6051
 6626TIP3   OH219813   5.698   2.316   6.806 -0.2094 -0.0490  0.0781
 6626TIP3    H119814   5.739   2.295   6.890 -0.0604 -1.0444 -0.2374
 6626TIP3    H219815   5.608   2.285   6.815 -0.0273 -0.7266 -0.3342
 6627TIP3   OH219816   6.005   0.242   4.662 -0.0795  0.0963 -0.3345
 6627TIP3    H119817   5.943   0.171   4.679  1.7687 -1.7147 -0.8517
 6627TIP3    H219818   6.012   0.245   4.566 -0.3730  1.1697 -0.3189
 6628TIP3   OH219819   4.975   2.366   1.485 -0.4553 -0.1500 -0.0545
 6628TIP3    H119820   4.987   2.343   1.393  0.1523 -0.1293  0.0184
 6628TIP3    H219821   4.906   2.308   1.515 -0.2609 -0.5478 -0.3757
 6629TIP3   OH219822   3.434   1.259   1.592 -0.4761  0.1660 -0.2508
 6629TIP3    H119823   3.406   1.223   1.676  0.0789  0.0579 -0.1115
 6629TIP3    H219824   3.442   1.353   1.607  1.6711 -0.1059  0.3984
 6630TIP3   OH219825   4.043   0.607   4.473  1.4371  0.2193  0.1402
 6630TIP3    H119826   4.065   0.656   4.394  0.4376  0.0635 -0.2320
 6630TIP3    H219827   4.000   0.671   4.530 -0.0459 -0.2684 -0.4259
 6631TIP3   OH219828   4.885   2.616   3.273  0.6500 -0.3187  0.0120
 6631TIP3    H119829   4.954   2.670   3.312  0.4488 -2.3573  3.2984
 6631TIP3    H219830   4.804   2.648   3.313  0.2931 -1.6063  0.3231
 6632TIP3   OH219831   6.229   3.502   3.710  0.9808  0.1059  0.1248
 6632TIP3    H119832   6.256   3.593   3.718  2.5781 -0.3633  0.2635
 6632TIP3    H219833   6.154   3.493   3.769  2.1141  0.8219  1.7105
 6633TIP3   OH219834   3.183   1.901   4.371  0.6410 -0.3163  0.3970
 6633TIP3    H119835   3.144   1.878   4.287  1.8554 -2.1794  0.3081
 6633TIP3    H219836   3.153   1.833   4.431  1.2621 -0.0382  1.0320
 6634TIP3   OH219837   6.136   1.463   4.010  0.2622  0.0847  0.5334
 6634TIP3    H119838   6.114   1.541   3.960  1.1279  0.0519  0.0870
 6634TIP3    H219839   6.052   1.429   4.041 -0.2144  0.5167 -0.2768
 6635TIP3   OH219840   4.994   1.894   4.565  0.5435 -0.0426 -0.3715
 6635TIP3    H119841   4.950   1.812   4.543  0.5248 -0.1988  0.2171
 6635TIP3    H219842   4.962   1.957   4.502  0.4380 -0.4575 -0.7351
 6636TIP3   OH219843   5.961   2.587   5.051 -0.3688  0.3685 -0.6349
 6636TIP3    H119844   6.007   2.671   5.046 -1.2471  0.7913 -1.7207
 6636TIP3    H219845   5.880   2.607   5.096 -0.4574  0.0423 -0.6493
 6637TIP3   OH219846   1.599   1.360   4.700 -0.3733  0.1695 -0.5711
 6637TIP3    H119847   1.680   1.369   4.751  0.5435  0.5314 -2.0728
 6637TIP3    H219848   1.616   1.407   4.619 -2.2575  0.6252 -0.7345
 6638TIP3   OH219849   3.721   2.929   2.736  0.9621  0.2238  0.1752
 6638TIP3    H119850   3.754   3.018   2.721  0.9027 -0.2112 -3.0256
 6638TIP3    H219851   3.631   2.931   2.703  1.2095 -1.1863 -0.6464
 6639TIP3   OH219852   1.656   4.175   0.089 -0.0069 -0.9325  0.1856
 6639TIP3    H119853   1.629   4.171  -0.002 -1.3524  1.6830  0.4217
 6639TIP3    H219854   1.710   4.097   0.102 -0.1535 -1.5509 -2.7066
 6640TIP3   OH219855   7.001   0.039   3.888  0.5632 -0.3564 -0.7510
 6640TIP3    H119856   6.955  -0.012   3.954  2.8806 -0.3996  0.8944
 6640TIP3    H219857   6.946   0.032   3.809 -1.0887 -2.1613  0.5163
 6641TIP3   OH219858   0.225   7.913   4.854 -0.5287 -0.5939 -0.1419
 6641TIP3    H119859   0.231   8.009   4.850 -1.4616 -0.6096 -3.0528
 6641TIP3    H219860   0.134   7.894   4.832  0.1851 -2.2408 -1.7612
 6642TIP3   OH219861   5.881   2.952   5.103 -0.7540  0.3590 -0.1033
 6642TIP3    H119862   5.932   3.020   5.058  0.8451  0.3716  1.6601
 6642TIP3    H219863   5.840   2.997   5.177  0.2580 -0.5466  1.0371
 6643TIP3   OH219864   4.935   1.096   3.635  0.3075  0.0006 -0.1126
 6643TIP3    H119865   4.840   1.110   3.633  0.3087  0.0936  0.4165
 6643TIP3    H219866   4.962   1.128   3.721  0.8790  0.3352 -0.4159
 6644TIP3   OH219867   2.664   4.017   3.690  0.5745  0.9811  0.3167
 6644TIP3    H119868   2.748   3.972   3.700  0.6758  1.3829  1.2859
 6644TIP3    H219869   2.615   3.994   3.769 -0.6669 -0.1694 -0.7497
 6645TIP3   OH219870   5.967   2.175   5.177  0.1590  0.2514 -0.2174
 6645TIP3    H119871   6.018   2.099   5.147  0.2498  0.0873  0.3510
 6645TIP3    H219872   5.910   2.195   5.103 -0.6380 -1.0519  0.0216
 6646TIP3   OH219873   5.470   4.514   5.952  0.3230  0.1778 -0.4737
 6646TIP3    H119874   5.515   4.435   5.981 -1.4499 -0.7425 -0.1467
 6646TIP3    H219875   5.537   4.582   5.952  1.5916 -1.0567  0.4296
 6647TIP3   OH219876   6.221   2.477   6.438 -0.1612  0.4290  0.5419
 6647TIP3    H119877   6.222   2.544   6.369  0.1488 -0.2615 -0.1349
 6647TIP3    H219878   6.217   2.527   6.519 -0.5813  1.2581  0.0248
 6648TIP3   OH219879   2.114   1.878   5.756  0.4269 -0.7054 -0.1488
 6648TIP3    H119880   2.160   1.812   5.704 -0.5232 -0.2618 -1.5750
 6648TIP3    H219881   2.048   1.829   5.804  0.1247 -0.8880 -0.7432
 6649TIP3   OH219882   7.005   0.536   3.877  0.3870  0.1288 -0.2203
 6649TIP3    H119883   6.986   0.515   3.786  1.4389  0.6528 -0.5626
 6649TIP3    H219884   6.957   0.618   3.893 -0.2337 -0.2457 -0.1362
 6650TIP3   OH219885   8.262   5.036   0.767  0.7611  0.0066 -0.0976
 6650TIP3    H119886   8.293   5.121   0.798  0.8243  0.3354 -1.0461
 6650TIP3    H219887   8.234   5.052   0.677 -1.0714 -0.5382  0.3495
 6651TIP3   OH219888   7.583   3.957   6.611 -0.3068 -0.0870  0.1547
 6651TIP3    H119889   7.648   3.956   6.541  1.2061 -0.7231  1.5209
 6651TIP3    H219890   7.617   4.019   6.675 -0.8574 -0.6777  1.0404
 6652TIP3   OH219891   5.217   2.753   3.944  0.0494 -0.7118 -0.2138
 6652TIP3    H119892   5.211   2.690   3.872 -2.8067 -0.6810 -0.0712
 6652TIP3    H219893   5.153   2.820   3.922 -0.1261 -0.1738  1.8347
 6653TIP3   OH219894   5.661   2.523   2.872  0.8275  0.2101 -0.5924
 6653TIP3    H119895   5.666   2.433   2.905  0.8342  0.0707 -0.9707
 6653TIP3    H219896   5.586   2.561   2.917  0.4010 -0.2011 -0.9519
 6654TIP3   OH219897   6.218   2.482   5.096 -0.1330 -0.2503 -0.2551
 6654TIP3    H119898   6.157   2.548   5.065 -0.6516 -0.0504  1.1675
 6654TIP3    H219899   6.258   2.447   5.016 -0.6307  1.0203 -1.0766
 6655TIP3   OH219900   4.868   1.706   4.876  0.7284  0.2870 -0.4905
 6655TIP3    H119901   4.822   1.670   4.800  1.0009 -2.0485  0.4047
 6655TIP3    H219902   4.940   1.645   4.892  0.4679  0.5266  1.8509
 6656TIP3   OH219903   6.570   2.352   3.713  0.0822  0.8015 -0.5865
 6656TIP3    H119904   6.586   2.446   3.708  0.3320  0.8222  0.3703
 6656TIP3    H219905   6.601   2.318   3.629  2.4349  1.2463  0.0412
 6657TIP3   OH219906   8.314   6.935   0.224  1.0676  0.5798  0.3809
 6657TIP3    H119907   8.332   6.956   0.133 -1.6836 -0.5726 -0.4915
 6657TIP3    H219908   8.248   6.999   0.251  0.6265 -0.1384  1.0353
 6658TIP3   OH219909   5.796   1.370   5.415  0.0938 -0.3403  0.4091
 6658TIP3    H119910   5.779   1.395   5.505  1.5205  1.2528  0.2707
 6658TIP3    H219911   5.838   1.284   5.421 -0.7192 -0.6878  1.1910
 6659TIP3   OH219912   5.401   2.425   3.918 -0.2536  0.1179  0.3107
 6659TIP3    H119913   5.389   2.356   3.853 -0.0578 -1.1894  1.6472
 6659TIP3    H219914   5.312   2.454   3.939 -0.3178  0.5368 -0.5219
 6660TIP3   OH219915   6.716   4.367   3.116  0.3605  0.2396  0.2810
 6660TIP3    H119916   6.731   4.274   3.135  0.6739  0.3020  0.3296
 6660TIP3    H219917   6.794   4.412   3.149  0.2563  0.5098  0.1614
 6661TIP3   OH219918   8.017   2.592   4.597 -0.0518  0.4030 -0.4539
 6661TIP3    H119919   8.000   2.535   4.672 -0.0124  0.0187 -0.7340
 6661TIP3    H219920   7.941   2.579   4.540 -0.5832  1.4883  0.0064
 6662TIP3   OH219921   3.864   0.961   5.219 -0.5156  0.4115 -1.0039
 6662TIP3    H119922   3.852   0.947   5.313  2.0293 -1.2243 -0.8704
 6662TIP3    H219923   3.790   0.915   5.179 -0.1182 -1.2367  0.1023
 6663TIP3   OH219924   4.687   2.699   4.517 -0.0472  0.5830  0.6925
 6663TIP3    H119925   4.620   2.731   4.456  1.7602  1.2737 -1.0014
 6663TIP3    H219926   4.673   2.751   4.596 -1.3142  0.9423  0.2552
 6664TIP3   OH219927   3.418   1.269   6.147 -0.2261  0.3873 -0.3884
 6664TIP3    H119928   3.511   1.275   6.128  0.1007  0.1961  1.0970
 6664TIP3    H219929   3.402   1.177   6.166 -0.5369  0.5669  0.2429
 6665TIP3   OH219930   1.135   1.492   5.292 -0.1377 -0.3077  0.1141
 6665TIP3    H119931   1.091   1.420   5.337 -0.4088  0.2774  0.7893
 6665TIP3    H219932   1.066   1.555   5.272 -0.0520 -0.6463 -1.3024
 6666TIP3   OH219933   2.525   1.737   4.039 -0.2876 -0.2888  0.1496
 6666TIP3    H119934   2.555   1.813   4.089  2.8126 -1.4281  0.1274
 6666TIP3    H219935   2.566   1.747   3.953 -0.7294 -1.4291 -0.2030
 6667TIP3   OH219936   4.654   4.183   4.472 -0.1222 -0.2028  0.0062
 6667TIP3    H119937   4.595   4.126   4.423  0.9955 -0.6195 -0.8647
 6667TIP3    H219938   4.670   4.136   4.554  1.2823 -1.4361 -0.9658
 6668TIP3   OH219939   5.276   2.570   5.247  0.0123  0.4877 -0.5582
 6668TIP3    H119940   5.245   2.533   5.165  0.0683 -1.5531  0.3116
 6668TIP3    H219941   5.355   2.620   5.223  0.9476 -1.3954 -1.5203
 6669TIP3   OH219942   4.202   1.595   4.273  0.0951 -0.2006 -0.1841
 6669TIP3    H119943   4.123   1.646   4.294  0.4756  0.3198 -0.0094
 6669TIP3    H219944   4.238   1.570   4.358 -0.1636 -0.8796 -0.2725
 6670TIP3   OH219945   5.742   3.368   3.854  0.0067 -0.6001  0.1643
 6670TIP3    H119946   5.677   3.341   3.919 -1.2943 -2.1223 -1.7154
 6670TIP3    H219947   5.816   3.308   3.869 -0.2791 -0.9363  0.2262
 6671TIP3   OH219948   3.970   3.023   4.267  0.1950 -0.0942  0.1035
 6671TIP3    H119949   4.006   2.982   4.188 -2.2251 -1.9715 -0.0706
 6671TIP3    H219950   3.962   2.951   4.329  0.0755  0.9863  1.3507
 6672TIP3   OH219951   6.352   1.537   4.150 -0.2143 -0.2495  0.0217
 6672TIP3    H119952   6.325   1.622   4.186 -1.8442 -1.0567  0.7896
 6672TIP3    H219953   6.275   1.506   4.103 -0.0815 -1.8856  0.8562
 6673TIP3   OH219954   6.002   0.757   6.038  0.0536 -0.3477  0.4132
 6673TIP3    H119955   6.049   0.676   6.060 -0.6892 -0.8118  0.3063
 6673TIP3    H219956   5.933   0.730   5.978  1.7643  0.8531 -2.2054
 6674TIP3   OH219957   6.634   2.803   5.885 -0.8014  0.5017  0.2406
 6674TIP3    H119958   6.643   2.852   5.803 -1.8878 -1.2678 -0.9731
 6674TIP3    H219959   6.708   2.743   5.885  0.2627  1.7891  1.4964
 6675TIP3   OH219960   3.911   0.668   3.838 -0.2549  0.4097 -0.8207
 6675TIP3    H119961   3.817   0.651   3.825 -0.2983  0.8328 -1.0602
 6675TIP3    H219962   3.943   0.590   3.883 -0.5225 -0.1849 -1.6372
 6676TIP3   OH219963   5.427   1.417   5.530 -0.6406 -0.2251 -0.2140
 6676TIP3    H119964   5.498   1.479   5.544 -0.7234 -0.1102 -0.3098
 6676TIP3    H219965   5.369   1.460   5.468 -0.8045 -0.3118 -0.1214
 6677TIP3   OH219966   5.864   1.841   5.012  0.5362 -0.7898 -0.0248
 6677TIP3    H119967   5.811   1.870   4.938  0.0719  0.0223  0.6093
 6677TIP3    H219968   5.950   1.881   4.997 -0.3375  1.7235  1.2812
 6678TIP3   OH219969   4.580   2.415   5.309  0.5546  0.4904  0.0526
 6678TIP3    H119970   4.599   2.367   5.390 -0.4029  0.5238  0.3120
 6678TIP3    H219971   4.657   2.403   5.255  0.9159 -0.1315  0.6963
 6679TIP3   OH219972   7.753   2.805   5.213 -0.1739  0.0110  0.3656
 6679TIP3    H119973   7.751   2.762   5.298 -2.2525  0.8475  0.7914
 6679TIP3    H219974   7.661   2.824   5.194  0.0574 -1.6452 -2.8428
 6680TIP3   OH219975   5.584   1.549   5.249  0.4181 -0.4227  0.5860
 6680TIP3    H119976   5.532   1.587   5.320  0.4041 -0.1567  0.4321
 6680TIP3    H219977   5.529   1.558   5.171  1.2926  1.2200  0.1313
 6681TIP3   OH219978   0.844   7.873   4.189  0.2697 -0.6704  0.6864
 6681TIP3    H119979   0.850   7.838   4.099 -0.0827  0.3723  0.2489
 6681TIP3    H219980   0.933   7.868   4.222  0.6753  0.2268 -0.2247
 6682TIP3   OH219981   5.065   2.860   3.032 -0.0934  0.0627 -0.0709
 6682TIP3    H119982   4.990   2.912   3.004 -0.4891 -0.0998  0.6876
 6682TIP3    H219983   5.107   2.833   2.950 -0.8493  0.1782 -0.5014
 6683TIP3   OH219984   5.388   2.258   4.897  0.4382 -0.5539 -0.2075
 6683TIP3    H119985   5.301   2.248   4.935  0.8010 -1.5603  0.3688
 6683TIP3    H219986   5.391   2.194   4.826  0.7898 -0.6554 -0.0985
 6684TIP3   OH219987   5.938   2.359   3.200  0.1747 -0.0184  0.0437
 6684TIP3    H119988   6.006   2.310   3.155 -0.7312 -1.5079  0.2818
 6684TIP3    H219989   5.983   2.436   3.235  1.7984 -1.1766  0.5198
 6685TIP3   OH219990   3.547   2.141   2.792 -0.1801 -0.3127  0.1970
 6685TIP3    H119991   3.610   2.085   2.837 -2.3023 -0.6304  2.8895
 6685TIP3    H219992   3.530   2.212   2.854  0.3050  1.8045 -2.0177
 6686TIP3   OH219993   4.506   1.699   3.137 -0.0869 -0.7348  0.4833
 6686TIP3    H119994   4.544   1.635   3.077 -0.8329 -0.9121  0.2025
 6686TIP3    H219995   4.462   1.646   3.204  0.3477 -0.5308  0.9343
 6687TIP3   OH219996   6.521   1.017   5.285 -0.2565  0.1721 -0.1540
 6687TIP3    H119997   6.593   0.999   5.347  1.3072 -0.5738 -2.1353
 6687TIP3    H219998   6.520   1.113   5.278  0.9084  0.1710 -0.5107
 6688TIP3   OH219999   5.606   2.681   6.418 -0.2209 -0.5871 -0.5322
 6688TIP3    H120000   5.595   2.616   6.488 -0.6294 -0.9662 -0.9438
 6688TIP3    H220001   5.632   2.629   6.342 -0.8465 -0.3051 -0.9433
 6689TIP3   OH220002   3.051   2.665   4.980  0.5695 -0.0808  0.0031
 6689TIP3    H120003   2.993   2.600   4.940  0.2585  0.6167 -0.7016
 6689TIP3    H220004   3.099   2.616   5.047  0.5226 -1.0979 -0.6843
 6690TIP3   OH220005   4.984   1.444   3.866 -0.3129  0.1698 -0.0466
 6690TIP3    H120006   4.971   1.355   3.899 -2.3101  0.0865 -0.9783
 6690TIP3    H220007   5.079   1.453   3.857 -0.1068 -1.9185 -0.0854
 6691TIP3   OH220008   6.145   4.396   5.792  0.0942  0.1351  0.0403
 6691TIP3    H120009   6.187   4.480   5.813 -2.3162  0.9087  1.8502
 6691TIP3    H220010   6.162   4.341   5.868 -0.4466 -0.2209 -0.0970
 6692TIP3   OH220011   3.186   2.513   3.470 -0.0288 -0.7392  0.0496
 6692TIP3    H120012   3.248   2.470   3.412 -1.3801 -1.4290 -0.9315
 6692TIP3    H220013   3.152   2.586   3.419  1.7654  1.1183  1.4706
 6693TIP3   OH220014   2.193   3.138   5.942 -0.6325 -0.5982  0.2769
 6693TIP3    H120015   2.149   3.215   5.977 -0.7031 -0.6497  0.3019
 6693TIP3    H220016   2.137   3.065   5.967  0.1781 -0.8155  1.5269
 6694TIP3   OH220017   3.661   5.098   5.134  0.6595 -0.7122 -0.0909
 6694TIP3    H120018   3.745   5.114   5.176  1.7925 -1.3730 -2.0459
 6694TIP3    H220019   3.675   5.019   5.081 -1.5624 -1.5962  0.5505
 6695TIP3   OH220020   3.324   5.346   4.820 -0.0361  0.0376 -0.3491
 6695TIP3    H120021   3.309   5.282   4.889  2.1949  0.1772  0.3014
 6695TIP3    H220022   3.411   5.325   4.786  0.5727  2.4560 -0.3933
 6696TIP3   OH220023   0.557   7.825   4.225  0.0897 -0.1638  0.0969
 6696TIP3    H120024   0.652   7.832   4.224  0.0286  1.0577 -3.2980
 6696TIP3    H220025   0.528   7.903   4.274  0.8069 -0.7122  1.4279
 6697TIP3   OH220026   4.607   2.698   5.745  0.3358  0.6267 -0.0836
 6697TIP3    H120027   4.690   2.653   5.762 -0.3928 -0.8429 -0.3365
 6697TIP3    H220028   4.632   2.789   5.729  1.8988  0.1977 -0.1801
 6698TIP3   OH220029   2.879   1.617   3.322 -0.5071 -0.3907 -0.4193
 6698TIP3    H120030   2.826   1.557   3.374  0.7950  0.2224  1.6551
 6698TIP3    H220031   2.844   1.609   3.233 -2.0288 -2.2828  0.3234
 6699TIP3   OH220032   3.907   3.588   5.841  0.4163  0.2951  0.1957
 6699TIP3    H120033   3.835   3.607   5.781 -0.0157  0.5195  0.7787
 6699TIP3    H220034   3.969   3.537   5.789 -1.6782 -2.7626  0.5990
 6700TIP3   OH220035   3.520   2.740   4.297  0.9019 -0.2449 -0.3670
 6700TIP3    H120036   3.486   2.670   4.241  1.7197  0.5034 -1.8205
 6700TIP3    H220037   3.604   2.762   4.258  0.7097  1.4427  0.1697
 6701TIP3   OH220038   4.561   2.822   3.622  0.3702 -0.0469 -0.3770
 6701TIP3    H120039   4.577   2.917   3.621 -1.5920  0.3152  0.8291
 6701TIP3    H220040   4.649   2.784   3.618  1.2788  1.8229  0.6558
 6702TIP3   OH220041   4.343   0.089   3.271 -0.1300  0.3023  0.0148
 6702TIP3    H120042   4.351   0.015   3.211  0.2747 -1.7146  2.5194
 6702TIP3    H220043   4.273   0.065   3.331  2.7982  0.0234  3.4710
 6703TIP3   OH220044   5.436   1.932   3.104 -0.5414  0.3655  0.4043
 6703TIP3    H120045   5.375   1.975   3.043  1.3539  2.3687 -0.1409
 6703TIP3    H220046   5.453   1.997   3.171  0.3090 -0.5006  1.0432
 6704TIP3   OH220047   4.039   3.318   5.511 -0.0713  0.5187  0.2914
 6704TIP3    H120048   3.953   3.344   5.543 -0.1168 -0.2694  0.8303
 6704TIP3    H220049   4.094   3.318   5.590  0.2849  0.4687  0.0425
 6705TIP3   OH220050   5.511   2.478   4.300  0.6528  0.1708  0.2886
 6705TIP3    H120051   5.530   2.454   4.390 -3.1079 -0.2262  1.0441
 6705TIP3    H220052   5.475   2.567   4.305 -1.5215 -0.6251 -0.5343
 6706TIP3   OH220053   5.567   3.090   4.248 -0.5344 -0.0816 -0.0063
 6706TIP3    H120054   5.542   3.041   4.170 -0.3695 -0.2312  0.0347
 6706TIP3    H220055   5.649   3.051   4.276 -0.1671  0.5275 -0.2312
 6707TIP3   OH220056   4.253   1.768   3.871 -0.6447 -0.4226 -0.0567
 6707TIP3    H120057   4.204   1.807   3.798 -0.6575  1.3936  0.8666
 6707TIP3    H220058   4.300   1.694   3.833  0.3169  1.2250 -2.1733
 6708TIP3   OH220059   4.999   1.047   4.286  0.0719 -0.1071  0.3923
 6708TIP3    H120060   5.017   1.140   4.301 -2.5912  0.6985 -0.9598
 6708TIP3    H220061   4.946   1.020   4.361  0.9396 -0.5920  0.8430
 6709TIP3   OH220062   6.034   3.505   3.913  0.0180  0.4853 -0.4827
 6709TIP3    H120063   6.094   3.433   3.935  1.9661  3.0960  3.2803
 6709TIP3    H220064   5.957   3.490   3.967  0.1456  0.8745 -0.1946
 6710TIP3   OH220065   4.241   2.135   4.171  1.0334 -0.5280  0.1457
 6710TIP3    H120066   4.293   2.116   4.249  0.7335  1.6097  0.8826
 6710TIP3    H220067   4.285   2.209   4.130 -1.1361  1.0200  0.5264
 6711TIP3   OH220068   6.008   4.062   3.719 -0.1645 -0.2265  0.1163
 6711TIP3    H120069   5.948   4.066   3.644  0.3562  0.2708 -0.2772
 6711TIP3    H220070   6.028   3.969   3.730  2.2654 -0.0363 -2.3606
 6712TIP3   OH220071   4.158   1.570   5.438 -0.4216  0.7892  0.9080
 6712TIP3    H120072   4.227   1.507   5.455 -0.7835  0.1592  0.0905
 6712TIP3    H220073   4.131   1.601   5.525  0.7258  0.8864  1.2369
 6713TIP3   OH220074   5.189   2.580   3.068  0.1451  0.0681 -0.6956
 6713TIP3    H120075   5.102   2.608   3.039 -0.1229  0.5790  0.5917
 6713TIP3    H220076   5.191   2.486   3.048 -1.6275 -0.4803  1.4958
 6714TIP3   OH220077   5.247   1.797   3.611 -0.2559 -0.6291  0.3860
 6714TIP3    H120078   5.193   1.729   3.571 -0.7300  1.0272 -1.8833
 6714TIP3    H220079   5.332   1.756   3.623 -0.5609 -1.6651 -0.8915
 6715TIP3   OH220080   6.255   2.198   6.469 -0.5147 -0.4928  0.8124
 6715TIP3    H120081   6.236   2.160   6.383  3.7558 -1.1226  0.0351
 6715TIP3    H220082   6.246   2.293   6.455 -1.3995 -0.6752  0.0863
 6716TIP3   OH220083   0.888   6.833   3.782 -0.3427  0.3374 -0.4214
 6716TIP3    H120084   0.945   6.910   3.781 -0.4699  0.4526  0.7315
 6716TIP3    H220085   0.857   6.827   3.872 -0.8138 -0.7203 -0.6449
 6717TIP3   OH220086   3.443   2.387   5.255 -0.3335 -0.0657  0.2366
 6717TIP3    H120087   3.488   2.471   5.255 -1.6208  0.6865  2.6428
 6717TIP3    H220088   3.356   2.407   5.290 -1.0145 -2.2119 -0.1837
 6718TIP3   OH220089   5.035   1.930   5.169 -0.4205  0.2022 -0.0522
 6718TIP3    H120090   4.981   1.961   5.097 -0.5183  0.1800  0.0118
 6718TIP3    H220091   5.088   1.859   5.132  1.4981  1.9789 -0.8259
 6719TIP3   OH220092   3.059   0.356   6.716 -0.6548 -0.4452 -0.2257
 6719TIP3    H120093   3.036   0.288   6.653  2.0900 -0.3967 -1.3291
 6719TIP3    H220094   3.008   0.432   6.688 -0.7342 -0.9006 -1.3483
 6720TIP3   OH220095   4.184   3.148   4.447  0.3898 -0.3712  0.2601
 6720TIP3    H120096   4.132   3.229   4.441 -1.3175 -1.4571  0.0505
 6720TIP3    H220097   4.222   3.151   4.535 -0.3598  0.2672  0.5756
 6721TIP3   OH220098   3.689   0.635   6.755  0.4649  0.2516 -0.1169
 6721TIP3    H120099   3.674   0.680   6.672  1.4557 -0.1589 -0.5239
 6721TIP3    H220100   3.784   0.635   6.766  0.2416  2.1472  2.0688
 6722TIP3   OH220101   3.088   2.262   4.955  0.2317  0.6053 -0.0551
 6722TIP3    H120102   3.000   2.291   4.978  0.8852  0.8184  2.2982
 6722TIP3    H220103   3.075   2.173   4.922 -0.7120  0.0217  1.7882
 6723TIP3   OH220104   4.516   1.268   4.019 -0.3580 -0.7992  0.2818
 6723TIP3    H120105   4.462   1.199   3.981 -0.6580  0.5936 -1.9691
 6723TIP3    H220106   4.458   1.313   4.080 -0.5654 -1.6820  0.7424
 6724TIP3   OH220107   3.644   3.752   5.664  0.1260  0.0559 -0.1857
 6724TIP3    H120108   3.617   3.695   5.592  0.2902 -0.3498  0.0706
 6724TIP3    H220109   3.637   3.841   5.629  0.2379 -0.1419 -0.7129
 6725TIP3   OH220110   3.020   1.640   6.178  0.1818 -0.3034 -0.7635
 6725TIP3    H120111   3.045   1.672   6.264 -1.3595  2.5753 -1.3326
 6725TIP3    H220112   3.100   1.600   6.143  1.2406 -0.1040  1.3585
 6726TIP3   OH220113   5.514   3.088   4.936  0.0266 -0.0015 -0.0568
 6726TIP3    H120114   5.596   3.099   4.888 -0.0973  2.5289  0.2320
 6726TIP3    H220115   5.504   3.170   4.985 -2.0511 -0.7741  0.8732
 6727TIP3   OH220116   4.264   3.071   4.715  0.0834  0.2127 -0.5311
 6727TIP3    H120117   4.290   2.998   4.771 -1.3731  0.7925  0.9673
 6727TIP3    H220118   4.168   3.066   4.712 -0.0153  1.8793 -0.6182
 6728TIP3   OH220119   5.833   0.034   4.451  0.2749 -0.1324  0.1645
 6728TIP3    H120120   5.857   0.125   4.432  1.3529 -0.2873  0.7414
 6728TIP3    H220121   5.779   0.039   4.529  0.6645 -0.0127  0.4309
 6729TIP3   OH220122   3.913   2.148   3.657 -0.2112  0.3721  0.5682
 6729TIP3    H120123   3.859   2.188   3.726 -0.2373 -0.9011  1.3089
 6729TIP3    H220124   3.857   2.148   3.580 -1.1102 -0.5095  1.2117
 6730TIP3   OH220125   4.841   2.021   5.360  0.0078 -0.5400 -0.2718
 6730TIP3    H120126   4.937   2.017   5.362  0.0525  0.7690  1.5461
 6730TIP3    H220127   4.817   1.986   5.274  2.1848  0.5064 -1.3355
 6731TIP3   OH220128   5.962   3.262   5.196 -0.0914  0.4193  0.0924
 6731TIP3    H120129   5.926   3.212   5.269 -0.7194  1.7009  0.6691
 6731TIP3    H220130   5.890   3.316   5.165  0.4565  0.6505 -0.8031
 6732TIP3   OH220131   5.470   4.018   4.626 -1.0230 -0.0062 -0.8442
 6732TIP3    H120132   5.415   4.005   4.704  0.1754 -0.6809 -0.1007
 6732TIP3    H220133   5.540   3.954   4.635 -0.2249  0.7056 -1.8906
 6733TIP3   OH220134   4.740   3.158   3.881  0.3071 -0.1460  0.2433
 6733TIP3    H120135   4.805   3.099   3.918 -0.2492 -0.6147  0.4954
 6733TIP3    H220136   4.677   3.172   3.953  0.6847  1.1247  0.3367
 6734TIP3   OH220137   3.550   1.009   3.405  0.4758 -0.0156  0.5540
 6734TIP3    H120138   3.625   0.951   3.417  0.3732 -0.3273 -0.2778
 6734TIP3    H220139   3.570   1.057   3.324  1.0506  1.8544  1.7723
 6735TIP3   OH220140   5.993   1.485   3.134  0.0494  0.4014  0.6751
 6735TIP3    H120141   6.012   1.544   3.061 -2.5072  0.5682  0.0837
 6735TIP3    H220142   5.920   1.526   3.179  0.6342 -0.4680  2.4461
 6736TIP3   OH220143   4.906   2.375   4.355  0.0526 -0.6253 -0.2692
 6736TIP3    H120144   4.907   2.280   4.341  1.1792 -0.5177 -0.9989
 6736TIP3    H220145   4.835   2.389   4.417 -0.1805 -1.9433 -0.2153
 6737TIP3   OH220146   7.872   2.420   5.387  0.1116 -0.6559  0.7814
 6737TIP3    H120147   7.965   2.433   5.368  0.1581 -2.1981 -0.0728
 6737TIP3    H220148   7.828   2.439   5.304 -0.1959 -1.5334  0.7423
 6738TIP3   OH220149   5.794   3.773   4.036  0.0099  0.3422  0.5927
 6738TIP3    H120150   5.799   3.862   4.001  1.3776 -0.5343 -1.5969
 6738TIP3    H220151   5.857   3.772   4.107  2.4906  0.2478 -1.5331
 6739TIP3   OH220152   5.802   2.467   5.297  0.4475 -0.1568 -0.2422
 6739TIP3    H120153   5.823   2.396   5.236 -1.3112 -0.3281 -0.6831
 6739TIP3    H220154   5.711   2.453   5.320  1.3287 -0.6213  3.2141
 6740TIP3   OH220155   5.354   0.744   5.463  0.3568 -0.6703  0.5228
 6740TIP3    H120156   5.318   0.661   5.494 -0.5766 -1.0985 -1.6032
 6740TIP3    H220157   5.445   0.724   5.440 -0.4122 -1.6329 -1.8427
 6741TIP3   OH220158   6.700   0.996   5.812  0.2665 -0.2713  0.1349
 6741TIP3    H120159   6.658   0.940   5.746 -0.4006  0.2126  0.1444
 6741TIP3    H220160   6.687   0.949   5.894 -1.9856  0.7995  0.4281
 6742TIP3   OH220161   3.596   7.950   3.789  0.4876  0.0419  0.4034
 6742TIP3    H120162   3.674   7.900   3.763  0.4590 -0.2657  0.9111
 6742TIP3    H220163   3.616   8.040   3.763  1.1479  0.0231  0.8230
 6743TIP3   OH220164   3.824   1.345   5.305 -0.2774 -0.1436 -0.0959
 6743TIP3    H120165   3.886   1.335   5.378 -0.6626  0.8778  0.3783
 6743TIP3    H220166   3.871   1.309   5.229  1.2883  1.4424  0.0711
 6744TIP3   OH220167   4.770   2.375   5.584 -0.6353  0.5205 -0.7521
 6744TIP3    H120168   4.829   2.404   5.653  0.8524 -0.4557 -1.5730
 6744TIP3    H220169   4.758   2.282   5.599 -1.3466  0.5619 -1.0422
 6745TIP3   OH220170   8.003   3.384   4.069  0.3640 -0.0204 -0.4064
 6745TIP3    H120171   7.984   3.290   4.074  0.0903  0.1194  1.7281
 6745TIP3    H220172   8.073   3.391   4.005  1.7287 -1.9121  0.8173
 6746TIP3   OH220173   0.245   7.809   3.778  0.8057  0.0404 -0.0067
 6746TIP3    H120174   0.267   7.795   3.870  0.7600  1.8309  0.2868
 6746TIP3    H220175   0.149   7.814   3.777  0.8234  0.3533 -0.1057
 6747TIP3   OH220176   4.196   2.855   4.410  0.1779  0.4898 -0.0942
 6747TIP3    H120177   4.235   2.839   4.496  1.0177 -0.1480 -0.5827
 6747TIP3    H220178   4.171   2.947   4.411  0.1894  0.4826  0.8350
 6748TIP3   OH220179   6.920   6.877   0.694  0.0257  0.1607  0.1125
 6748TIP3    H120180   7.002   6.881   0.646 -0.7027  0.9839 -1.0963
 6748TIP3    H220181   6.882   6.793   0.670  0.6852 -0.3959  0.9816
 6749TIP3   OH220182   5.667   1.994   5.164  0.1154  0.5804 -0.2910
 6749TIP3    H120183   5.760   1.980   5.149 -0.0686 -0.0895 -0.8648
 6749TIP3    H220184   5.628   1.906   5.159 -0.1768  0.4788  2.7900
 6750TIP3   OH220185   2.835   1.310   3.944 -0.0230  0.1376  0.3937
 6750TIP3    H120186   2.811   1.278   3.857 -1.4188  3.3458 -0.4495
 6750TIP3    H220187   2.814   1.237   4.002 -0.2759 -1.5866 -1.7935
 6751TIP3   OH220188   5.078   3.507   2.847  0.0688  0.5162  0.6072
 6751TIP3    H120189   5.085   3.414   2.866 -0.4918  0.3392 -0.0331
 6751TIP3    H220190   5.065   3.548   2.933  0.5189  0.0294  0.9097
 6752TIP3   OH220191   4.923   0.633   3.472 -0.1299 -0.4554 -0.0863
 6752TIP3    H120192   4.920   0.651   3.566 -2.6403  0.5750 -0.3347
 6752TIP3    H220193   4.835   0.651   3.441  0.6887 -0.6841 -2.6775
 6753TIP3   OH220194   7.198   6.781   0.618 -0.0344  0.0560  0.3553
 6753TIP3    H120195   7.272   6.830   0.653 -0.1316  0.2417  0.3035
 6753TIP3    H220196   7.237   6.707   0.572  0.2507  1.6599 -2.0515
 6754TIP3   OH220197   2.437   3.207   5.815  0.2278  0.3486 -0.0467
 6754TIP3    H120198   2.350   3.173   5.834 -0.2581  1.7244  0.3022
 6754TIP3    H220199   2.421   3.299   5.792  1.4968  0.3874 -0.7925
 6755TIP3   OH220200   2.587   2.544   4.810 -0.1819  0.0211  0.5472
 6755TIP3    H120201   2.645   2.619   4.822 -0.0505  0.3647 -2.0846
 6755TIP3    H220202   2.508   2.581   4.771 -0.2009 -1.1826 -0.5684
 6756TIP3   OH220203   3.862   4.415   5.634  0.2998 -0.7579  0.2255
 6756TIP3    H120204   3.935   4.356   5.649 -0.0204 -1.4207 -0.7960
 6756TIP3    H220205   3.788   4.358   5.612 -0.7252 -0.1489  1.9150
 6757TIP3   OH220206   8.250   1.130   5.191  0.2061  0.6071  0.2665
 6757TIP3    H120207   8.249   1.042   5.229  1.4471  0.2217 -0.5575
 6757TIP3    H220208   8.306   1.122   5.113 -0.1464  1.9863 -0.1451
 6758TIP3   OH220209   2.219   1.445   5.328  0.1945 -0.4135  0.9704
 6758TIP3    H120210   2.249   1.479   5.244  0.7591 -0.1621  1.2660
 6758TIP3    H220211   2.298   1.407   5.367 -0.4905 -2.3349  0.5129
 6759TIP3   OH220212   3.772   3.536   4.818  0.3775  0.2451  0.0803
 6759TIP3    H120213   3.685   3.544   4.857  0.3234  0.8821 -0.1529
 6759TIP3    H220214   3.768   3.457   4.764 -0.5456  1.1020 -1.1482
 6760TIP3   OH220215   3.837   2.550   4.686 -0.1082 -0.1826  0.5098
 6760TIP3    H120216   3.777   2.521   4.617 -0.4035  0.8005  0.3605
 6760TIP3    H220217   3.919   2.569   4.640 -0.6956  1.7483  0.2333
 6761TIP3   OH220218   0.407   6.472   0.360  0.4993  0.0071 -0.3655
 6761TIP3    H120219   0.343   6.490   0.291 -0.5975  1.0827  0.9187
 6761TIP3    H220220   0.431   6.558   0.394  0.5381 -0.5492  1.0411
 6762TIP3   OH220221   3.450   2.527   4.123  0.0473 -0.0342 -0.2292
 6762TIP3    H120222   3.514   2.474   4.077 -0.4464 -2.0119  1.2782
 6762TIP3    H220223   3.380   2.541   4.059  0.1976 -1.1723 -0.6495
 6763TIP3   OH220224   2.841   3.880   5.352  0.2051 -0.2253 -0.2097
 6763TIP3    H120225   2.853   3.963   5.305  0.5920  0.1405  0.5231
 6763TIP3    H220226   2.781   3.830   5.297  0.5578  0.2427 -1.0344
 6764TIP3   OH220227   3.598   0.846   3.107  0.0460 -0.0845 -0.0125
 6764TIP3    H120228   3.648   0.804   3.037 -2.2589  0.5469 -2.1170
 6764TIP3    H220229   3.556   0.774   3.154 -0.3474 -0.3869 -0.8184
 6765TIP3   OH220230   6.130   2.310   3.750 -0.4128 -0.1092 -0.0068
 6765TIP3    H120231   6.098   2.265   3.672 -2.3186  1.6778 -0.2889
 6765TIP3    H220232   6.052   2.328   3.801  0.3282  2.6825  0.2136
 6766TIP3   OH220233   4.262   3.676   2.121  0.4081 -0.5136 -0.6081
 6766TIP3    H120234   4.275   3.769   2.139  1.5127 -0.6792 -0.5136
 6766TIP3    H220235   4.298   3.664   2.033 -2.0292 -0.3521 -1.6536
 6767TIP3   OH220236   3.955   0.459   4.802 -0.3577  0.0496 -0.2940
 6767TIP3    H120237   3.865   0.474   4.771 -0.8325 -1.2854  0.3966
 6767TIP3    H220238   3.953   0.484   4.894  0.0600  0.2863 -0.3474
 6768TIP3   OH220239   6.441   1.433   2.798  0.3970 -0.4407 -0.2043
 6768TIP3    H120240   6.499   1.508   2.782 -0.0751  0.3697  1.7458
 6768TIP3    H220241   6.432   1.391   2.712 -0.6344  2.6532 -1.6913
 6769TIP3   OH220242   2.477   7.987   5.305 -0.2195 -0.3378 -0.1306
 6769TIP3    H120243   2.427   7.915   5.343  0.2807 -0.8734 -0.4732
 6769TIP3    H220244   2.564   7.980   5.345  0.2413 -0.7592 -1.1610
 6770TIP3   OH220245   4.738   1.694   5.590  0.7664  0.6603  0.3012
 6770TIP3    H120246   4.759   1.738   5.508  2.1917 -0.4129  0.0868
 6770TIP3    H220247   4.681   1.621   5.565  1.3676  0.2108  0.2443
 6771TIP3   OH220248   3.773   0.155   4.782 -0.0258 -0.0597 -0.0215
 6771TIP3    H120249   3.734   0.207   4.852  1.0810  2.5742 -1.3272
 6771TIP3    H220250   3.861   0.134   4.814  0.6898  1.6374 -0.8427
 6772TIP3   OH220251   6.055   1.009   1.663 -0.2260 -0.0432  0.3982
 6772TIP3    H120252   6.071   1.067   1.588 -0.5474 -0.6072 -0.1158
 6772TIP3    H220253   6.088   1.058   1.738  1.6522 -0.1615 -0.3168
 6773TIP3   OH220254   6.801   2.140   3.924 -0.3233 -0.6747  0.0405
 6773TIP3    H120255   6.808   2.104   4.012  0.4468  0.3181  0.3907
 6773TIP3    H220256   6.732   2.206   3.930 -1.1355 -1.4704 -0.3992
 6774TIP3   OH220257   4.216   4.257   3.460  0.2528  0.2433 -0.6969
 6774TIP3    H120258   4.249   4.265   3.550 -0.0242  1.1466 -0.6646
 6774TIP3    H220259   4.125   4.285   3.466  0.3200  0.5991 -1.3200
 6775TIP3   OH220260   2.323   0.472   5.723  0.2372  0.3272  0.4112
 6775TIP3    H120261   2.409   0.430   5.720 -0.0308 -0.2173  0.1109
 6775TIP3    H220262   2.269   0.410   5.772  0.0485  0.7310  0.7153
 6776TIP3   OH220263   3.930   1.603   4.845 -0.4942  0.5740 -0.0299
 6776TIP3    H120264   4.016   1.574   4.874 -1.4823 -0.8669  1.6015
 6776TIP3    H220265   3.944   1.691   4.811  1.8971 -0.3139 -1.4030
 6777TIP3   OH220266   2.247   1.140   5.806 -0.5707 -0.1439  0.2864
 6777TIP3    H120267   2.212   1.113   5.892  1.0775 -1.9322  0.4194
 6777TIP3    H220268   2.251   1.059   5.756  0.2457  0.6034 -0.8593
 6778TIP3   OH220269   5.849   3.655   3.624  0.1243 -0.3849 -0.1836
 6778TIP3    H120270   5.792   3.725   3.591  1.2686  1.0601  0.8424
 6778TIP3    H220271   5.856   3.593   3.551 -3.0078 -0.7568 -0.2322
 6779TIP3   OH220272   5.736   2.020   4.004  0.3352 -0.3279 -0.4920
 6779TIP3    H120273   5.753   2.030   3.910  1.4343  0.2124 -0.2444
 6779TIP3    H220274   5.647   2.054   4.016  0.8725  1.3397 -1.0577
 6780TIP3   OH220275   1.379   1.325   5.662 -0.5899  0.1827 -0.2814
 6780TIP3    H120276   1.388   1.420   5.653 -1.2615  0.3818  0.9127
 6780TIP3    H220277   1.295   1.314   5.707 -0.2157 -0.9444  0.1515
 6781TIP3   OH220278   5.862   3.871   4.900 -0.1248 -0.1741 -0.2142
 6781TIP3    H120279   5.902   3.941   4.849 -0.6618 -0.3527 -0.9007
 6781TIP3    H220280   5.832   3.913   4.980  2.1572 -0.2022  0.6810
 6782TIP3   OH220281   6.375   4.448   5.122 -0.1362 -0.3340  0.0893
 6782TIP3    H120282   6.288   4.488   5.115  0.1378 -0.0140 -1.7261
 6782TIP3    H220283   6.423   4.483   5.047  1.2626 -1.2485  0.5531
 6783TIP3   OH220284   8.235   1.870   4.634 -0.2310  0.6782  0.1465
 6783TIP3    H120285   8.237   1.824   4.718  0.1840  1.8129  0.7845
 6783TIP3    H220286   8.152   1.845   4.594  0.4702 -1.4667 -0.0321
 6784TIP3   OH220287   5.466   1.634   4.691  0.0898 -0.1363 -0.1926
 6784TIP3    H120288   5.381   1.678   4.701 -0.2236 -0.4814 -1.2373
 6784TIP3    H220289   5.443   1.542   4.680  0.6386 -0.3137  0.1769
 6785TIP3   OH220290   6.263   2.971   4.663 -0.5455 -0.3955  0.5397
 6785TIP3    H120291   6.311   3.053   4.670  0.9125 -0.7917 -3.3736
 6785TIP3    H220292   6.322   2.905   4.698  0.3801 -0.4034 -0.9839
 6786TIP3   OH220293   5.477   2.973   3.371  0.4139  0.4040  0.1009
 6786TIP3    H120294   5.406   2.948   3.312  0.4411  1.1994 -0.2821
 6786TIP3    H220295   5.448   3.056   3.409 -0.2108 -0.7746  2.2639
 6787TIP3   OH220296   6.468   2.694   5.038  0.5737 -0.1802 -0.4226
 6787TIP3    H120297   6.430   2.734   4.959 -1.7768 -3.0235 -0.8165
 6787TIP3    H220298   6.404   2.628   5.065  2.7550 -1.3636  2.1181
 6788TIP3   OH220299   6.749   2.574   3.311 -0.1663 -0.0354  0.7397
 6788TIP3    H120300   6.745   2.503   3.246 -0.6193 -1.7245  2.5380
 6788TIP3    H220301   6.687   2.639   3.279  1.6280  0.4375 -1.9195
 6789TIP3   OH220302   5.764   2.820   4.817 -0.2976  0.5559 -0.5045
 6789TIP3    H120303   5.775   2.808   4.911 -1.1492  1.7345 -0.2316
 6789TIP3    H220304   5.846   2.859   4.788 -0.1241  0.4221 -0.1971
 6790TIP3   OH220305   5.386   3.045   4.445 -0.9666  0.1989 -0.3752
 6790TIP3    H120306   5.338   2.964   4.427 -0.8952  0.2433 -0.7756
 6790TIP3    H220307   5.455   3.047   4.379  0.1406 -0.3083  0.7462
 6791TIP3   OH220308   0.145   3.293   3.506 -0.4439  0.0329  0.0354
 6791TIP3    H120309   0.133   3.322   3.415  0.5799 -0.0584 -0.1397
 6791TIP3    H220310   0.178   3.203   3.498  1.9635  0.8452  0.4114
 6792TIP3   OH220311   7.396   2.804   6.438  0.8042 -0.3393 -0.0856
 6792TIP3    H120312   7.413   2.710   6.444  0.6306 -0.3929 -0.4581
 6792TIP3    H220313   7.453   2.834   6.368  3.4748  0.4467  2.2957
 6793TIP3   OH220314   5.152   2.545   4.477  0.3746 -0.0419 -0.4113
 6793TIP3    H120315   5.219   2.476   4.481 -0.4796 -0.9433 -1.4361
 6793TIP3    H220316   5.071   2.498   4.459 -0.8955  0.8179  2.7549
 6794TIP3   OH220317   8.473   3.412   4.505 -0.9527 -0.5613  0.1668
 6794TIP3    H120318   8.455   3.327   4.465  0.8129 -0.9096  0.0791
 6794TIP3    H220319   8.507   3.391   4.592 -0.5495  0.0525  0.1618
 6795TIP3   OH220320   6.143   4.070   2.334  0.0761 -0.8138  0.3863
 6795TIP3    H120321   6.118   4.120   2.412 -0.1755 -0.7320  0.2538
 6795TIP3    H220322   6.235   4.092   2.321 -0.5646  1.2985 -0.9094
 6796TIP3   OH220323   6.222   3.875   3.130  0.2385 -0.4536 -0.2337
 6796TIP3    H120324   6.291   3.861   3.195 -1.0275 -0.1894  1.1783
 6796TIP3    H220325   6.254   3.948   3.077  0.1441  1.0253  1.7037
 6797TIP3   OH220326   7.022   2.466   3.949  0.3827 -0.0245 -0.1246
 6797TIP3    H120327   7.036   2.483   3.856 -0.4320 -1.7589 -0.5715
 6797TIP3    H220328   6.968   2.539   3.979 -2.2636 -1.2447 -1.7999
 6798TIP3   OH220329   6.739   3.277   3.378  0.0131 -0.6585  0.3180
 6798TIP3    H120330   6.764   3.343   3.312  1.0914 -0.3686  1.0057
 6798TIP3    H220331   6.643   3.283   3.382  0.2214  2.7071  2.2296
 6799TIP3   OH220332   5.625   4.163   2.748 -0.5486  0.9274 -0.0138
 6799TIP3    H120333   5.694   4.120   2.798 -0.7758  0.4887 -0.0794
 6799TIP3    H220334   5.670   4.205   2.675 -0.5190 -0.5093 -0.8207
 6800TIP3   OH220335   6.819   1.653   3.963 -0.1017 -0.3092 -0.3285
 6800TIP3    H120336   6.895   1.688   4.009 -1.5069  0.1871  1.7145
 6800TIP3    H220337   6.825   1.691   3.875  1.0839  1.1068  0.3305
 6801TIP3   OH220338   7.282   3.256   3.759 -0.5560  0.1568 -0.5494
 6801TIP3    H120339   7.189   3.276   3.765 -0.7535 -0.7048 -0.7093
 6801TIP3    H220340   7.309   3.242   3.849 -0.8299 -0.7184 -0.6062
 6802TIP3   OH220341   6.202   2.592   3.712 -0.3499  0.1497  0.4764
 6802TIP3    H120342   6.153   2.628   3.638  0.9968 -0.7548 -0.8990
 6802TIP3    H220343   6.193   2.497   3.703  2.8841 -0.1170 -0.7449
 6803TIP3   OH220344   6.821   2.067   4.458  0.3902 -0.3492  0.2210
 6803TIP3    H120345   6.784   2.142   4.505 -0.4108  0.4698 -1.6710
 6803TIP3    H220346   6.793   1.991   4.508  0.6892  0.5599  1.8245
 6804TIP3   OH220347   7.074   1.004   5.562  0.6065  0.1955  0.7904
 6804TIP3    H120348   7.158   1.046   5.583  0.6270 -0.0431  1.1968
 6804TIP3    H220349   7.092   0.910   5.567  0.6500  0.1315 -0.4872
 6805TIP3   OH220350   6.190   2.240   5.361 -0.8911  0.3486  0.6172
 6805TIP3    H120351   6.144   2.233   5.445 -0.3459 -0.8494  0.8231
 6805TIP3    H220352   6.123   2.222   5.296 -1.5257  2.1766  0.7385
 6806TIP3   OH220353   7.758   2.279   5.020 -0.2903  0.1442 -0.5721
 6806TIP3    H120354   7.835   2.327   4.989 -0.6879  1.1133 -0.0862
 6806TIP3    H220355   7.695   2.347   5.044 -1.1556 -0.6316 -0.5906
 6807TIP3   OH220356   5.455   3.506   3.459 -0.3749 -0.2750  0.1525
 6807TIP3    H120357   5.456   3.522   3.553 -0.6716 -0.6271  0.2193
 6807TIP3    H220358   5.416   3.419   3.450  0.9725 -0.8476 -0.2191
 6808TIP3   OH220359   6.876   3.353   4.678  0.1196 -0.2661  0.2560
 6808TIP3    H120360   6.913   3.436   4.708  0.9565 -0.1930 -0.9168
 6808TIP3    H220361   6.949   3.291   4.685 -0.1994 -0.6552  0.1280
 6809TIP3   OH220362   6.277   3.198   4.189 -0.0431  0.1543 -0.2422
 6809TIP3    H120363   6.208   3.185   4.254 -0.5752 -0.4781 -0.9222
 6809TIP3    H220364   6.293   3.110   4.154  2.5355 -0.0350  1.3376
 6810TIP3   OH220365   4.851   3.507   4.528  0.1660 -0.0341 -0.6759
 6810TIP3    H120366   4.820   3.598   4.532  1.1893  0.2906 -0.0912
 6810TIP3    H220367   4.910   3.498   4.603 -0.8510 -1.5327 -0.0310
 6811TIP3   OH220368   1.489   3.625   5.114 -0.1943  0.1117  0.6802
 6811TIP3    H120369   1.511   3.583   5.197  0.9792 -0.1593  0.2394
 6811TIP3    H220370   1.573   3.646   5.075 -0.6716 -2.5930 -1.8990
 6812TIP3   OH220371   6.926   2.983   2.366 -0.4790 -0.3603  0.0852
 6812TIP3    H120372   6.849   2.930   2.348 -1.1991  1.6547 -3.1613
 6812TIP3    H220373   6.930   3.046   2.294  1.9115  2.2028  2.3078
 6813TIP3   OH220374   8.332   4.261   6.848 -0.3167 -0.4158  0.3331
 6813TIP3    H120375   8.328   4.271   6.753  1.4580  1.7046  0.4596
 6813TIP3    H220376   8.341   4.166   6.861  0.5785 -0.6288 -1.6619
 6814TIP3   OH220377   6.333   4.269   1.581 -0.1737 -0.0232  0.4162
 6814TIP3    H120378   6.418   4.301   1.610  0.1390 -2.3517  2.1678
 6814TIP3    H220379   6.296   4.343   1.532  1.3795  2.2455  2.4973
 6815TIP3   OH220380   5.832   3.015   4.212  0.2020 -0.0190 -0.1694
 6815TIP3    H120381   5.874   3.056   4.288  2.2781 -1.0233 -0.7510
 6815TIP3    H220382   5.877   2.931   4.202 -2.2494 -1.3188 -0.5675
 6816TIP3   OH220383   8.030   3.339   6.241 -0.0316  0.5939  0.0029
 6816TIP3    H120384   7.998   3.325   6.330 -0.0776 -0.0916 -0.1224
 6816TIP3    H220385   7.952   3.332   6.186 -0.4631  3.6576  0.1554
 6817TIP3   OH220386   6.065   4.079   4.789 -0.2683 -0.5536 -0.7472
 6817TIP3    H120387   6.138   4.118   4.741 -0.2646  0.2515 -0.1089
 6817TIP3    H220388   6.006   4.048   4.722  1.3896 -2.6268 -1.2975
 6818TIP3   OH220389   0.384   5.608   5.528  0.5666  0.1164  0.4257
 6818TIP3    H120390   0.413   5.652   5.608  3.5391  1.0639 -1.0906
 6818TIP3    H220391   0.440   5.531   5.521 -0.8590 -0.9133  0.1657
 6819TIP3   OH220392   7.836   2.306   4.349 -0.0615 -0.0020  0.4530
 6819TIP3    H120393   7.854   2.400   4.353  0.2692 -0.0483  0.1035
 6819TIP3    H220394   7.744   2.297   4.374 -0.1086  0.4206  0.4205
 6820TIP3   OH220395   5.923   3.371   4.774 -0.3549  0.1958 -0.1628
 6820TIP3    H120396   5.892   3.449   4.820  0.4001 -0.4630  1.5001
 6820TIP3    H220397   5.935   3.400   4.683 -2.8938  1.2267 -0.2023
 6821TIP3   OH220398   5.673   2.902   3.168 -0.6595  0.3236  0.3986
 6821TIP3    H120399   5.614   2.924   3.239 -0.8245  1.6422 -0.1260
 6821TIP3    H220400   5.725   2.982   3.154  0.8141 -0.6051  0.4427
 6822TIP3   OH220401   4.718   3.064   4.204  0.2610 -0.5521 -0.2685
 6822TIP3    H120402   4.755   3.127   4.265  0.5965 -2.5449  1.6310
 6822TIP3    H220403   4.631   3.099   4.183  0.5025  0.6072  0.6179
 6823TIP3   OH220404   7.292   2.132   1.709 -0.4112 -0.0563  0.0409
 6823TIP3    H120405   7.355   2.105   1.776  0.5862 -1.3536 -1.3744
 6823TIP3    H220406   7.267   2.221   1.734 -0.2728 -0.6137  2.2630
 6824TIP3   OH220407   5.047   2.382   5.472  0.0615 -0.2952 -0.1685
 6824TIP3    H120408   4.959   2.391   5.436  0.2333  1.2783 -0.2234
 6824TIP3    H220409   5.105   2.404   5.400  0.4541  0.6793  0.4344
 6825TIP3   OH220410   5.828   1.970   2.600  0.0277  0.1503 -0.6976
 6825TIP3    H120411   5.800   1.918   2.525  0.3449 -0.1759 -0.5920
 6825TIP3    H220412   5.793   2.058   2.583 -1.3426 -0.3248 -0.4041
 6826TIP3   OH220413   5.189   3.815   4.732 -0.0525 -0.7938 -0.3471
 6826TIP3    H120414   5.156   3.822   4.643  1.4088  1.8633 -0.7074
 6826TIP3    H220415   5.112   3.827   4.788 -0.3400  1.5840 -1.2154
 6827TIP3   OH220416   6.249   3.697   4.673 -0.2695 -0.1529 -0.3924
 6827TIP3    H120417   6.246   3.745   4.591 -0.0740  0.1207 -0.2375
 6827TIP3    H220418   6.251   3.605   4.647  2.1262 -0.0289 -0.7581
 6828TIP3   OH220419   7.732   2.399   5.825 -0.1933 -0.2462  0.3634
 6828TIP3    H120420   7.796   2.358   5.768  0.9140 -1.4641  2.4137
 6828TIP3    H220421   7.776   2.476   5.860 -0.8121  0.4089 -0.2698
 6829TIP3   OH220422   5.384   3.541   6.111  0.6403 -0.8791 -0.9570
 6829TIP3    H120423   5.434   3.486   6.172  2.0187  1.4250  0.0816
 6829TIP3    H220424   5.300   3.555   6.154  1.2113 -0.1599 -0.0454
 6830TIP3   OH220425   6.846   3.221   3.921 -0.3999 -0.0007  0.1650
 6830TIP3    H120426   6.771   3.191   3.870  1.0032 -0.3553 -1.7632
 6830TIP3    H220427   6.848   3.316   3.907 -0.5949  0.0347  0.3733
 6831TIP3   OH220428   5.730   2.730   5.180  0.2397  0.0354 -0.3286
 6831TIP3    H120429   5.740   2.729   5.276  0.2990 -1.3376 -0.3432
 6831TIP3    H220430   5.805   2.781   5.149  1.5974 -1.5817  0.2151
 6832TIP3   OH220431   7.119   4.303   4.383 -0.3850 -0.5906 -0.2830
 6832TIP3    H120432   7.129   4.350   4.466 -1.1688 -1.4656  0.3121
 6832TIP3    H220433   7.159   4.361   4.318 -0.1207  0.2817  0.6449
 6833TIP3   OH220434   5.999   2.597   2.433 -0.0604 -0.5601 -0.1598
 6833TIP3    H120435   5.986   2.692   2.439  0.1939 -0.5358  0.0296
 6833TIP3    H220436   5.913   2.562   2.412 -0.8877 -0.5760  3.0317
 6834TIP3   OH220437   6.232   3.525   5.554 -0.2266 -0.7644 -0.1086
 6834TIP3    H120438   6.298   3.575   5.505 -1.3710 -0.2019 -1.1097
 6834TIP3    H220439   6.210   3.452   5.496  0.1182 -1.4242  0.5838
 6835TIP3   OH220440   6.561   3.862   5.811  0.5861  0.5579 -0.7738
 6835TIP3    H120441   6.552   3.768   5.795 -1.5229  0.8748 -1.6217
 6835TIP3    H220442   6.631   3.889   5.752  1.2734 -0.5027 -0.4602
 6836TIP3   OH220443   0.050   2.637   5.396  0.4247  0.0695 -0.0857
 6836TIP3    H120444   0.122   2.655   5.335 -0.7531  0.5038 -1.3886
 6836TIP3    H220445   0.075   2.679   5.477  1.3006  0.8611 -0.7586
 6837TIP3   OH220446   7.073   3.564   3.513 -0.5363  0.3767  0.0291
 6837TIP3    H120447   7.113   3.519   3.439 -2.1018 -1.6413  0.3735
 6837TIP3    H220448   7.002   3.616   3.474 -0.3266  0.5953 -0.0641
 6838TIP3   OH220449   1.860   6.903   0.291 -0.3582 -0.1716  0.1798
 6838TIP3    H120450   1.928   6.848   0.252  1.2483  1.0685  1.1717
 6838TIP3    H220451   1.854   6.873   0.382 -0.3979  0.3996  0.3700
 6839TIP3   OH220452   6.347   4.465   4.122  0.2146 -0.6476 -0.7548
 6839TIP3    H120453   6.413   4.489   4.187  0.0054 -1.8758 -0.0681
 6839TIP3    H220454   6.263   4.489   4.162  0.0549 -1.8321 -0.3692
 6840TIP3   OH220455   6.058   1.058   3.658  0.1801  0.2082  0.0112
 6840TIP3    H120456   6.014   1.133   3.698 -1.2620 -0.2032 -0.7599
 6840TIP3    H220457   5.991   0.990   3.652  0.5836 -0.0576 -2.2222
 6841TIP3   OH220458   5.634   3.856   5.416  0.0536  0.3865 -0.5175
 6841TIP3    H120459   5.544   3.836   5.440  0.2790  0.6966  0.6024
 6841TIP3    H220460   5.651   3.942   5.455  0.8334  0.3363 -0.7320
 6842TIP3   OH220461   4.465   3.463   3.078  0.0113 -0.0596  0.4325
 6842TIP3    H120462   4.496   3.503   2.998  0.5075 -1.8972 -0.3264
 6842TIP3    H220463   4.541   3.414   3.112 -1.0407 -1.7607  0.3942
 6843TIP3   OH220464   1.412   7.951   0.416 -0.0624  0.2889  0.2221
 6843TIP3    H120465   1.356   7.874   0.427  0.0301  0.0384 -1.0554
 6843TIP3    H220466   1.401   7.977   0.325  0.3772  1.4326  0.4807
 6844TIP3   OH220467   0.772   5.588   0.849  1.0736  0.4475  0.1882
 6844TIP3    H120468   0.690   5.580   0.898  1.5341 -0.2699  0.8548
 6844TIP3    H220469   0.829   5.522   0.887  1.4936 -0.0102 -1.2268
 6845TIP3   OH220470   7.266   0.570   5.652  0.5570  0.0788  0.6599
 6845TIP3    H120471   7.312   0.552   5.570 -0.2663  0.0208  0.2082
 6845TIP3    H220472   7.316   0.522   5.718 -0.1707 -1.8658 -0.1618
 6846TIP3   OH220473   7.624   1.561   5.262 -0.1199  0.2079  0.4226
 6846TIP3    H120474   7.658   1.650   5.253 -1.7263  0.8162  0.0439
 6846TIP3    H220475   7.671   1.524   5.336 -0.3812  1.8537  1.4446
 6847TIP3   OH220476   6.676   3.911   2.544 -0.4145 -0.1207  0.0094
 6847TIP3    H120477   6.766   3.940   2.530 -0.9433  0.7478 -1.7456
 6847TIP3    H220478   6.640   3.972   2.609  0.6539 -1.3015  1.7385
 6848TIP3   OH220479   6.862   3.269   2.951 -0.6179  0.0444  0.2312
 6848TIP3    H120480   6.840   3.323   2.875  1.3740  0.2966 -0.2037
 6848TIP3    H220481   6.851   3.326   3.026  0.1680  0.6654 -0.1172
 6849TIP3   OH220482   4.252   2.593   3.401 -0.1525 -0.1787  0.6300
 6849TIP3    H120483   4.290   2.597   3.489 -1.9105 -0.4681  1.4166
 6849TIP3    H220484   4.181   2.529   3.408 -2.5419  2.2854 -0.1316
 6850TIP3   OH220485   7.305   1.149   5.660  0.2275 -0.0065  0.1825
 6850TIP3    H120486   7.354   1.111   5.587  0.6155  0.0404  0.4176
 6850TIP3    H220487   7.290   1.240   5.635 -2.1465 -0.7011 -1.1369
 6851TIP3   OH220488   6.444   2.294   5.226  0.9751 -0.0372 -0.3231
 6851TIP3    H120489   6.446   2.199   5.227 -0.3063 -0.0941 -2.2067
 6851TIP3    H220490   6.353   2.317   5.246  1.2718  0.8101  0.1349
 6852TIP3   OH220491   6.534   3.587   3.534  0.3784 -0.3870 -0.2410
 6852TIP3    H120492   6.542   3.514   3.473 -0.9501 -0.7039 -0.0453
 6852TIP3    H220493   6.515   3.663   3.478 -0.8581 -0.6812 -0.2441
 6853TIP3   OH220494   7.059   4.876   2.837  0.0994  0.3430 -0.4810
 6853TIP3    H120495   6.994   4.945   2.823  0.4228  0.4041 -1.8237
 6853TIP3    H220496   7.015   4.812   2.893 -0.3784  1.4011  0.3577
 6854TIP3   OH220497   5.506   2.446   4.565  0.2019  0.1449  0.5121
 6854TIP3    H120498   5.433   2.385   4.576 -0.3679  0.2119 -2.4535
 6854TIP3    H220499   5.487   2.517   4.627 -1.9663 -0.1210  0.2130
 6855TIP3   OH220500   6.101   2.554   3.273  0.4646  0.3343  0.1565
 6855TIP3    H120501   6.182   2.560   3.324  1.9410 -1.9670 -1.8381
 6855TIP3    H220502   6.104   2.629   3.214  1.6693 -0.3365 -0.6399
 6856TIP3   OH220503   6.701   3.187   3.675 -0.4766  0.2202 -0.1796
 6856TIP3    H120504   6.760   3.236   3.618 -1.1872  1.5456  0.2128
 6856TIP3    H220505   6.624   3.242   3.684 -0.5563 -0.1510  1.7076
 6857TIP3   OH220506   6.676   4.260   3.549  0.2767 -0.3592 -0.1986
 6857TIP3    H120507   6.631   4.301   3.623 -0.4297 -0.0034 -0.8148
 6857TIP3    H220508   6.639   4.172   3.544 -0.7272  0.0951 -1.0058
 6858TIP3   OH220509   8.253   2.613   2.023 -0.7036 -0.1001 -0.0655
 6858TIP3    H120510   8.255   2.594   2.116 -0.4637 -0.8604 -0.2227
 6858TIP3    H220511   8.267   2.707   2.017  1.4522 -0.3671  0.5616
 6859TIP3   OH220512   5.389   3.091   1.639  0.1354  0.0020 -0.2431
 6859TIP3    H120513   5.467   3.142   1.616  0.8109 -0.3504  1.1918
 6859TIP3    H220514   5.320   3.125   1.582  1.7256 -0.7945 -2.6735
 6860TIP3   OH220515   6.328   2.082   3.206 -0.2920 -0.2987  0.6268
 6860TIP3    H120516   6.400   2.144   3.192 -1.1449  0.2096 -1.6954
 6860TIP3    H220517   6.362   1.998   3.174 -0.2848 -0.3293  0.7148
 6861TIP3   OH220518   0.262   3.513   3.669  0.5186 -0.1144 -0.0252
 6861TIP3    H120519   0.227   3.441   3.616  0.2150 -1.5188  2.0562
 6861TIP3    H220520   0.196   3.581   3.663 -0.0439 -0.6961 -0.5187
 6862TIP3   OH220521   5.977   3.964   5.325 -0.1913 -0.4745 -0.4871
 6862TIP3    H120522   6.048   3.942   5.264 -0.7242 -2.1707 -0.5137
 6862TIP3    H220523   5.972   3.889   5.383  0.0822  0.9870  1.4650
 6863TIP3   OH220524   5.847   2.384   3.833  0.6756  0.3351  0.1016
 6863TIP3    H120525   5.799   2.449   3.781 -0.9771 -1.3364 -0.5220
 6863TIP3    H220526   5.791   2.368   3.909  0.2085 -1.6339 -0.6316
 6864TIP3   OH220527   6.712   1.048   5.492  0.4549 -0.1827  0.1742
 6864TIP3    H120528   6.791   1.079   5.448 -0.5872 -0.3522 -1.8728
 6864TIP3    H220529   6.680   1.123   5.541  0.8733  0.4201 -0.4696
 6865TIP3   OH220530   4.704   1.863   3.668  0.3888 -0.4617 -0.6834
 6865TIP3    H120531   4.719   1.957   3.682 -0.5292 -0.6542  1.8130
 6865TIP3    H220532   4.770   1.820   3.722  2.0576 -1.2953 -3.3208
 6866TIP3   OH220533   3.293   5.578   4.059  0.3294  0.2585 -0.3819
 6866TIP3    H120534   3.208   5.557   4.021 -0.8793  1.6587  1.4695
 6866TIP3    H220535   3.293   5.532   4.143  0.1739  2.6140  0.9387
 6867TIP3   OH220536   6.235   3.835   4.421  0.7131 -0.4142  0.0680
 6867TIP3    H120537   6.256   3.770   4.354 -0.0756 -0.3221 -0.2691
 6867TIP3    H220538   6.309   3.895   4.420  0.1600  0.2701 -1.5676
 6868TIP3   OH220539   4.863   1.429   5.002  0.1227 -0.2697  0.1034
 6868TIP3    H120540   4.952   1.440   4.970 -0.1063 -0.2585 -0.5515
 6868TIP3    H220541   4.836   1.343   4.968 -0.8599  0.6524 -1.5297
 6869TIP3   OH220542   7.057   2.521   4.637 -0.0802  0.0555  0.0746
 6869TIP3    H120543   7.084   2.580   4.707  1.2843 -0.4827  0.0067
 6869TIP3    H220544   7.124   2.531   4.569 -0.2046 -1.0579 -0.2272
 6870TIP3   OH220545   6.877   1.770   5.012 -0.6312 -0.1120  0.0648
 6870TIP3    H120546   6.867   1.829   4.938  0.7122 -0.3198 -0.2913
 6870TIP3    H220547   6.794   1.722   5.016 -1.0291  0.5039 -0.7694
 6871TIP3   OH220548   8.332   3.395   5.291  0.3844  0.2599 -0.1467
 6871TIP3    H120549   8.250   3.347   5.306  1.0063 -0.9347 -0.4825
 6871TIP3    H220550   8.306   3.472   5.240 -0.2989 -1.1181 -1.9513
 6872TIP3   OH220551   4.910   5.449   3.789  0.3570 -0.2389  0.0658
 6872TIP3    H120552   4.873   5.367   3.755 -1.4082  1.1252 -1.4295
 6872TIP3    H220553   4.995   5.456   3.746  0.2015 -0.9154 -0.3688
 6873TIP3   OH220554   5.865   3.183   4.013 -0.3058  0.0113 -0.0317
 6873TIP3    H120555   5.864   3.122   4.087  0.9588  1.4970  1.2240
 6873TIP3    H220556   5.957   3.192   3.991 -0.3812  2.2706  0.4684
 6874TIP3   OH220557   5.373   1.914   2.782 -0.3757 -0.1176  0.0295
 6874TIP3    H120558   5.280   1.915   2.805 -0.8627  0.9470 -1.8711
 6874TIP3    H220559   5.374   1.886   2.690  1.1543  0.2908 -0.0803
 6875TIP3   OH220560   6.854   3.179   6.195  0.1175  0.3962  0.1735
 6875TIP3    H120561   6.922   3.143   6.250 -0.7514 -0.7258  0.5383
 6875TIP3    H220562   6.776   3.180   6.250 -0.0884  2.0300 -0.1110
 6876TIP3   OH220563   6.008   3.777   3.819  0.5104  0.7776 -0.1817
 6876TIP3    H120564   6.007   3.705   3.881 -0.8646  1.4045  0.5537
 6876TIP3    H220565   5.942   3.754   3.754  1.2655  0.5773 -0.8836
 6877TIP3   OH220566   6.492   3.855   4.953 -0.3283 -0.9033 -0.0050
 6877TIP3    H120567   6.416   3.847   5.011 -0.2206 -1.2061  0.0968
 6877TIP3    H220568   6.564   3.815   5.002  0.4348  1.4290  0.8664
 6878TIP3   OH220569   4.928   3.399   4.139  0.0411  0.4346 -0.0905
 6878TIP3    H120570   4.846   3.427   4.099 -0.0366 -1.8029 -1.5642
 6878TIP3    H220571   4.901   3.355   4.220 -0.2220 -0.4257 -0.6447
 6879TIP3   OH220572   5.225   2.606   3.337  0.1952  0.1004 -0.1111
 6879TIP3    H120573   5.191   2.660   3.266  2.1867  2.4726  0.6735
 6879TIP3    H220574   5.309   2.573   3.304 -0.3394 -1.3938 -0.0369
 6880TIP3   OH220575   7.135   3.392   5.013 -0.1141 -0.8822  0.3044
 6880TIP3    H120576   7.168   3.461   5.071 -0.4331 -0.9247  0.5400
 6880TIP3    H220577   7.042   3.412   5.003  0.4879  0.7444 -2.4621
 6881TIP3   OH220578   5.722   3.359   2.585  0.2443  0.3017  0.1859
 6881TIP3    H120579   5.632   3.329   2.571  0.5886 -1.6333  2.0178
 6881TIP3    H220580   5.751   3.387   2.498 -1.0830 -1.9206 -1.0167
 6882TIP3   OH220581   7.320   3.736   3.433  0.0194 -0.0138  0.3357
 6882TIP3    H120582   7.236   3.775   3.408  0.5541  0.0038 -1.4906
 6882TIP3    H220583   7.297   3.667   3.495 -1.0904  2.0050  2.2669
 6883TIP3   OH220584   5.185   3.201   2.038  0.0477  0.5474 -0.0509
 6883TIP3    H120585   5.210   3.114   2.007  0.4989  0.2951  1.0256
 6883TIP3    H220586   5.179   3.193   2.133 -1.1258  1.3751 -0.0350
 6884TIP3   OH220587   5.556   1.233   4.615 -0.0279  0.0703  0.3699
 6884TIP3    H120588   5.596   1.306   4.569  0.3097  0.1207  0.7355
 6884TIP3    H220589   5.492   1.197   4.554  0.9574 -0.3358 -0.4206
 6885TIP3   OH220590   5.944   5.091   2.198  0.3502 -0.5494  0.6095
 6885TIP3    H120591   5.907   5.171   2.235 -1.1315 -0.1734 -1.6032
 6885TIP3    H220592   5.921   5.094   2.105  0.5141 -3.4010  0.4166
 6886TIP3   OH220593   7.171   3.396   6.868  0.4095 -0.1382 -0.4785
 6886TIP3    H120594   7.113   3.421   6.796 -0.5949  1.0949  0.7338
 6886TIP3    H220595   7.117   3.407   6.947  1.3964 -1.7629  0.4362
 6887TIP3   OH220596   4.874   2.598   2.992  0.4463 -0.2925 -0.1155
 6887TIP3    H120597   4.880   2.560   3.080 -1.0073 -2.4157 -0.8958
 6887TIP3    H220598   4.827   2.680   3.005  1.9165  0.3439  1.3419
 6888TIP3   OH220599   3.370   3.921   3.503 -0.3856 -0.0459  0.2627
 6888TIP3    H120600   3.451   3.921   3.555 -0.0018 -0.0882 -0.3349
 6888TIP3    H220601   3.399   3.911   3.413 -1.1871 -2.0769  0.2095
 6889TIP3   OH220602   6.877   3.248   1.873 -0.0765 -0.1467  0.0478
 6889TIP3    H120603   6.795   3.244   1.824 -0.0763 -1.7350  0.1425
 6889TIP3    H220604   6.942   3.276   1.809 -0.7489  1.4873  0.0606
 6890TIP3   OH220605   7.244   4.301   3.523 -0.4993 -0.1956 -0.4461
 6890TIP3    H120606   7.335   4.320   3.502 -0.6520 -0.9340 -1.7836
 6890TIP3    H220607   7.194   4.343   3.454 -1.1314 -0.5898 -0.2277
 6891TIP3   OH220608   7.223   2.287   3.179 -0.2281 -0.0882  0.0808
 6891TIP3    H120609   7.170   2.293   3.259 -0.0961  0.6547  0.1167
 6891TIP3    H220610   7.301   2.340   3.198 -1.8341  3.0825 -1.8105
 6892TIP3   OH220611   4.689   1.936   3.273  0.2458 -0.7001 -0.4374
 6892TIP3    H120612   4.637   1.945   3.193 -3.0661  2.0785  1.8807
 6892TIP3    H220613   4.632   1.889   3.334  1.2161  0.5698  1.4938
 6893TIP3   OH220614   5.603   1.617   4.258 -0.6952  0.3333 -0.2624
 6893TIP3    H120615   5.662   1.636   4.331  0.4107 -0.0779 -1.0328
 6893TIP3    H220616   5.536   1.559   4.295  0.9730 -1.4881 -0.0244
 6894TIP3   OH220617   0.449   3.523   5.555  0.6470  0.1994 -0.8779
 6894TIP3    H120618   0.421   3.586   5.620  0.5016  0.0153 -0.7613
 6894TIP3    H220619   0.523   3.477   5.596 -0.7795 -1.3686  0.0048
 6895TIP3   OH220620   6.671   2.083   2.079 -0.3281  0.2740 -0.2094
 6895TIP3    H120621   6.611   2.028   2.131 -1.1892  1.0397 -0.3858
 6895TIP3    H220622   6.718   2.135   2.144 -0.3394  0.1597 -0.1096
 6896TIP3   OH220623   3.459   0.717   4.538  0.4759  0.5908  0.0738
 6896TIP3    H120624   3.534   0.760   4.578 -0.9648 -0.0207  3.5345
 6896TIP3    H220625   3.461   0.628   4.571 -2.3407  0.8425  1.0603
 6897TIP3   OH220626   4.840   1.605   2.846 -0.2185  0.4084  0.4030
 6897TIP3    H120627   4.899   1.538   2.880  0.3485  0.8233  0.2327
 6897TIP3    H220628   4.765   1.603   2.905  1.1040  1.6712  2.1494
 6898TIP3   OH220629   6.572   3.712   4.374  0.3294  0.6438  0.6580
 6898TIP3    H120630   6.629   3.645   4.335 -0.5668  0.2822 -0.0374
 6898TIP3    H220631   6.585   3.702   4.468 -2.0558 -2.5546  0.7303
 6899TIP3   OH220632   5.541   3.455   5.836  0.2115 -0.2868 -0.1123
 6899TIP3    H120633   5.555   3.468   5.930  1.4987 -0.9938 -0.1840
 6899TIP3    H220634   5.449   3.429   5.828  0.2236 -0.6908  1.0033
 6900TIP3   OH220635   4.954   3.309   1.905 -0.7351  0.0611  0.1923
 6900TIP3    H120636   5.029   3.274   1.953 -1.1517  1.6329  2.0834
 6900TIP3    H220637   4.880   3.254   1.932 -1.2771  1.9071  2.7053
 6901TIP3   OH220638   4.607   3.576   3.760 -0.5490 -0.4942 -0.2326
 6901TIP3    H120639   4.627   3.661   3.721 -1.6127 -0.6827 -1.2039
 6901TIP3    H220640   4.512   3.577   3.771 -0.2611 -0.4114  2.4498
 6902TIP3   OH220641   2.056   7.388   2.941  0.0967 -0.4729 -0.0238
 6902TIP3    H120642   2.049   7.388   3.037  0.1502  1.8394  0.0184
 6902TIP3    H220643   2.103   7.308   2.920 -0.7879 -1.5252  1.8111
 6903TIP3   OH220644   5.548   3.310   4.058 -0.1319  0.0602  0.3620
 6903TIP3    H120645   5.536   3.231   4.111  2.8834  0.6887  2.1189
 6903TIP3    H220646   5.554   3.381   4.122 -1.2990  1.5352 -1.1178
 6904TIP3   OH220647   6.084   4.840   5.654  0.3332  0.6277  0.2262
 6904TIP3    H120648   6.088   4.814   5.562 -0.7430  0.4807  0.2204
 6904TIP3    H220649   6.164   4.891   5.667 -0.1618  1.7992 -1.1530
 6905TIP3   OH220650   0.173   7.541   0.484  0.1012  0.2475  0.9265
 6905TIP3    H120651   0.256   7.588   0.486 -0.3175  1.0105  0.5876
 6905TIP3    H220652   0.119   7.584   0.551  0.5949 -1.4153  2.4108
 6906TIP3   OH220653   5.023   3.083   3.249  1.0762  0.5787 -0.4524
 6906TIP3    H120654   5.039   2.997   3.209  2.0055  0.3661  0.3558
 6906TIP3    H220655   4.936   3.075   3.289  0.3523  0.6289 -1.9691
 6907TIP3   OH220656   7.405   4.613   4.470 -0.1343  0.3100  0.0214
 6907TIP3    H120657   7.470   4.683   4.484  1.0231 -0.4324 -1.4618
 6907TIP3    H220658   7.365   4.635   4.386  1.4715 -1.7135 -1.3228
 6908TIP3   OH220659   6.242   4.114   2.950  0.0791 -0.1552 -0.2508
 6908TIP3    H120660   6.268   4.090   2.861 -0.0235  0.3505 -0.4178
 6908TIP3    H220661   6.290   4.194   2.968 -0.1239 -0.0993  0.0410
 6909TIP3   OH220662   5.506   3.197   5.351 -0.3504 -0.0724  0.1325
 6909TIP3    H120663   5.416   3.195   5.317 -0.8150 -1.2307  1.4257
 6909TIP3    H220664   5.502   3.152   5.435  1.0626  1.6361  1.1516
 6910TIP3   OH220665   3.795   2.564   2.797  0.2571  0.4996  0.2022
 6910TIP3    H120666   3.877   2.604   2.766  0.6607 -1.8850 -1.9294
 6910TIP3    H220667   3.730   2.587   2.730 -0.4067  0.8083  0.9370
 6911TIP3   OH220668   6.111   4.734   5.400  0.6267 -0.1018  0.3711
 6911TIP3    H120669   6.135   4.646   5.369 -3.4195 -0.6691 -1.4541
 6911TIP3    H220670   6.127   4.791   5.324 -1.2414 -0.0810 -0.0250
 6912TIP3   OH220671   5.821   3.329   3.553 -0.1085 -0.7437  0.2303
 6912TIP3    H120672   5.826   3.401   3.615  1.0292 -1.2500  0.7490
 6912TIP3    H220673   5.836   3.250   3.606  0.4998 -1.2073 -0.6067
 6913TIP3   OH220674   5.763   3.117   6.048 -0.2216 -0.3275 -0.2055
 6913TIP3    H120675   5.669   3.137   6.050 -0.0363  0.6498 -1.0039
 6913TIP3    H220676   5.779   3.067   6.128 -0.7589  2.4753  1.6808
 6914TIP3   OH220677   3.864   7.558   2.548 -0.1704 -0.1163 -0.1169
 6914TIP3    H120678   3.808   7.614   2.495  2.6573  0.5731 -2.5114
 6914TIP3    H220679   3.939   7.612   2.570  0.6585 -1.7083  1.1250
 6915TIP3   OH220680   6.542   3.956   6.091  0.3428 -0.7816 -0.3338
 6915TIP3    H120681   6.607   4.027   6.088 -0.1617 -0.3609 -2.1034
 6915TIP3    H220682   6.562   3.903   6.014 -0.4449 -1.5377 -0.0216
 6916TIP3   OH220683   7.900   1.435   4.775  0.3611 -0.2613  0.2148
 6916TIP3    H120684   7.812   1.451   4.740  0.6258  0.1039 -0.2965
 6916TIP3    H220685   7.890   1.443   4.870 -0.2380 -0.6195  0.1887
 6917TIP3   OH220686   7.135   2.995   0.618  0.2372  0.1632  0.0444
 6917TIP3    H120687   7.062   3.047   0.584 -0.5796  0.0293  1.5754
 6917TIP3    H220688   7.196   2.989   0.544 -1.6866 -0.4582 -1.5461
 6918TIP3   OH220689   7.246   3.054   4.052  0.2596  0.5360  0.8966
 6918TIP3    H120690   7.325   3.084   4.007 -0.6316  0.9561 -0.4244
 6918TIP3    H220691   7.260   2.960   4.066  0.8311  0.5395  0.3508
 6919TIP3   OH220692   6.160   3.060   1.416 -0.3126 -0.2391 -0.3462
 6919TIP3    H120693   6.242   3.044   1.370 -1.5513 -0.1100 -2.7090
 6919TIP3    H220694   6.160   3.154   1.434 -0.3507 -0.0614 -1.2257
 6920TIP3   OH220695   6.729   3.214   4.872 -0.5216  0.0543  0.0170
 6920TIP3    H120696   6.761   3.150   4.935  2.1058 -1.3084 -2.6060
 6920TIP3    H220697   6.800   3.277   4.863 -1.3928  0.9625 -0.6078
 6921TIP3   OH220698   3.463   7.927   6.034  0.0122  0.4081  0.6732
 6921TIP3    H120699   3.557   7.945   6.031  0.0826 -0.0678 -0.0314
 6921TIP3    H220700   3.429   7.962   5.952 -0.6262  1.6115  1.4185
 6922TIP3   OH220701   7.798   3.618   4.679  0.0781  0.2199 -0.2127
 6922TIP3    H120702   7.712   3.637   4.719  1.2928 -1.4893  3.3998
 6922TIP3    H220703   7.778   3.557   4.608 -1.7860  0.6870 -0.1391
 6923TIP3   OH220704   1.594   2.187   3.921 -0.9223  0.2423  0.0323
 6923TIP3    H120705   1.507   2.173   3.959 -1.0103  0.7075  0.0044
 6923TIP3    H220706   1.633   2.257   3.974 -0.4296 -0.1991  0.2594
 6924TIP3   OH220707   6.152   3.232   6.852 -0.0217 -0.1928 -0.0479
 6924TIP3    H120708   6.128   3.165   6.789  0.7064 -1.2560  0.7825
 6924TIP3    H220709   6.168   3.184   6.934  2.5251  0.7213  0.0355
 6925TIP3   OH220710   7.597   2.863   6.614  0.3397 -0.6739  0.1210
 6925TIP3    H120711   7.547   2.876   6.695 -0.9817 -1.9929 -0.4639
 6925TIP3    H220712   7.531   2.855   6.546  1.3506 -2.0000 -0.7342
 6926TIP3   OH220713   7.983   3.025   4.917 -0.1715 -0.1802 -0.4683
 6926TIP3    H120714   7.992   3.101   4.974 -0.2680 -0.3977 -0.1589
 6926TIP3    H220715   8.071   3.009   4.883  0.5634 -2.0007  2.1367
 6927TIP3   OH220716   7.357   3.678   6.850 -0.3259  0.0719 -0.7170
 6927TIP3    H120717   7.271   3.636   6.857  0.2546 -0.6925  2.6695
 6927TIP3    H220718   7.345   3.765   6.887 -0.1415  0.7918 -2.3183
 6928TIP3   OH220719   8.310   7.325   0.456  0.6509  0.1595  0.2555
 6928TIP3    H120720   8.357   7.279   0.386  0.7150 -0.0813  0.4567
 6928TIP3    H220721   8.225   7.346   0.418  0.8049  0.3204 -0.0073
 6929TIP3   OH220722   5.686   7.750   4.657 -0.7239 -0.0264 -0.4636
 6929TIP3    H120723   5.657   7.660   4.673 -2.2559  0.6805  0.8217
 6929TIP3    H220724   5.606   7.799   4.641  0.0065  1.3532  0.0158
 6930TIP3   OH220725   5.580   2.667   5.514  0.6306 -0.1014  0.0655
 6930TIP3    H120726   5.516   2.663   5.585 -0.5871 -0.1645 -1.0312
 6930TIP3    H220727   5.569   2.585   5.466  0.6136  0.4587 -0.9023
 6931TIP3   OH220728   1.244   7.156   0.077 -0.1089  0.4334  0.0718
 6931TIP3    H120729   1.256   7.249   0.094 -2.5339  1.3129 -2.5965
 6931TIP3    H220730   1.296   7.139  -0.002  1.0472 -0.7108  1.0519
 6932TIP3   OH220731   1.313   3.777   5.246 -0.0170  0.1366  0.4198
 6932TIP3    H120732   1.367   3.856   5.254 -0.8336  0.8280 -0.7467
 6932TIP3    H220733   1.372   3.711   5.210  0.2843  0.6533 -0.0510
 6933TIP3   OH220734   5.289   3.501   3.738 -0.4107 -0.2829  0.4342
 6933TIP3    H120735   5.338   3.425   3.707  0.0190 -0.3998  1.3756
 6933TIP3    H220736   5.344   3.537   3.808 -1.5029 -0.2018  1.2574
 6934TIP3   OH220737   5.621   2.742   3.401  0.4564  0.2645 -0.0692
 6934TIP3    H120738   5.606   2.730   3.308  0.3042 -0.4964  0.0501
 6934TIP3    H220739   5.562   2.813   3.426 -0.9128 -0.8057 -0.1714
 6935TIP3   OH220740   6.613   2.940   2.692  0.3184  0.3229 -0.1065
 6935TIP3    H120741   6.703   2.917   2.714 -0.0025 -1.3141 -0.3758
 6935TIP3    H220742   6.562   2.862   2.717 -1.1072  1.4730  0.6525
 6936TIP3   OH220743   4.523   2.155   5.401  0.4063 -0.2315  0.5003
 6936TIP3    H120744   4.587   2.125   5.466  1.3091  0.6156  0.0221
 6936TIP3    H220745   4.550   2.113   5.320  0.2960  0.0396  0.3225
 6937TIP3   OH220746   5.390   1.692   3.329 -0.0458  0.9095 -0.1066
 6937TIP3    H120747   5.360   1.755   3.263  0.1173  2.3500  1.1761
 6937TIP3    H220748   5.310   1.652   3.362 -0.1092 -0.1205 -1.4361
 6938TIP3   OH220749   8.183   3.802   4.329 -0.9341  0.0969  0.5560
 6938TIP3    H120750   8.250   3.734   4.323 -0.9787  0.0819  0.2428
 6938TIP3    H220751   8.101   3.757   4.311 -1.0662  0.0573  1.2256
 6939TIP3   OH220752   1.044   7.661   2.042  0.2741  0.4010  0.0456
 6939TIP3    H120753   1.057   7.630   2.132  0.0465  1.4726  0.4554
 6939TIP3    H220754   1.125   7.708   2.021  0.4317 -0.0707 -0.4027
 6940TIP3   OH220755   7.626   4.042   3.647  1.0316  0.4499  0.6671
 6940TIP3    H120756   7.567   4.051   3.722 -0.7738  2.1402 -0.9163
 6940TIP3    H220757   7.675   4.125   3.646  2.1404 -0.1943  0.8731
 6941TIP3   OH220758   6.560   2.828   3.526  0.1900  0.1469 -0.0556
 6941TIP3    H120759   6.644   2.873   3.533  0.5766 -0.8986  2.8725
 6941TIP3    H220760   6.503   2.891   3.481  2.3005  1.1708 -1.3903
 6942TIP3   OH220761   8.079   2.725   6.285 -0.1995 -0.0469 -0.0120
 6942TIP3    H120762   8.009   2.774   6.329  1.1632  0.4948  1.6049
 6942TIP3    H220763   8.159   2.773   6.307  0.5393  0.4237 -3.3612
 6943TIP3   OH220764   6.544   3.452   4.156 -0.1331 -0.5393 -0.0079
 6943TIP3    H120765   6.519   3.360   4.152 -1.1809 -0.2638  0.0134
 6943TIP3    H220766   6.639   3.452   4.148 -0.1264 -1.6272  0.0735
 6944TIP3   OH220767   6.497   1.959   3.846 -0.3950 -0.3743  0.0696
 6944TIP3    H120768   6.472   2.049   3.824 -2.4411 -1.1318 -0.9337
 6944TIP3    H220769   6.590   1.954   3.826 -0.3301  1.4386 -0.1765
 6945TIP3   OH220770   5.476   7.956   1.025 -0.3198  0.0809  0.1368
 6945TIP3    H120771   5.428   8.015   0.967 -1.2208 -1.5352 -0.7760
 6945TIP3    H220772   5.551   7.928   0.973 -0.2710 -0.1468  0.3308
 6946TIP3   OH220773   8.051   3.401   4.724 -0.0058  0.0999  0.0676
 6946TIP3    H120774   8.101   3.469   4.680  0.8851  0.3716  1.4615
 6946TIP3    H220775   7.974   3.446   4.760 -0.0227  0.1424 -0.0242
 6947TIP3   OH220776   7.163   3.270   4.321  0.2351 -0.0981 -0.2419
 6947TIP3    H120777   7.111   3.196   4.354 -0.7990  0.5858 -0.3082
 6947TIP3    H220778   7.240   3.272   4.378 -2.0667  1.7700  2.9732
 6948TIP3   OH220779   7.061   1.054   0.822 -0.0167  0.6036  0.3633
 6948TIP3    H120780   7.134   1.047   0.883  0.5533  0.6168 -0.3039
 6948TIP3    H220781   7.099   1.030   0.737 -0.7044  0.9513 -0.0462
 6949TIP3   OH220782   8.320   2.533   5.966  0.0321  0.0162 -0.0406
 6949TIP3    H120783   8.299   2.625   5.979  0.7966  0.0618  0.8773
 6949TIP3    H220784   8.412   2.533   5.938 -0.1771 -0.4221 -0.7512
 6950TIP3   OH220785   5.964   3.887   4.556 -0.0457  0.0971  0.0561
 6950TIP3    H120786   6.055   3.877   4.526 -0.1256  2.0869 -0.9205
 6950TIP3    H220787   5.928   3.956   4.501 -2.4090 -1.1965 -0.0891
 6951TIP3   OH220788   8.210   2.446   5.489 -0.6662 -0.4639  0.3432
 6951TIP3    H120789   8.235   2.537   5.476 -2.1585  0.3864  3.0198
 6951TIP3    H220790   8.195   2.412   5.401 -0.2489  1.9047 -0.6719
 6952TIP3   OH220791   7.826   1.022   5.267  0.1782 -1.0618  0.3708
 6952TIP3    H120792   7.875   0.982   5.338  0.9318 -0.1264  0.3978
 6952TIP3    H220793   7.888   1.084   5.227 -1.3848  1.1485  1.2624
 6953TIP3   OH220794   4.982   2.398   5.777 -0.2778  0.6542  0.4422
 6953TIP3    H120795   5.077   2.412   5.784 -0.0890  0.0075 -0.6124
 6953TIP3    H220796   4.957   2.357   5.859  0.5799 -0.3006  0.2358
 6954TIP3   OH220797   6.544   3.837   3.745  0.6176  0.0511 -0.1762
 6954TIP3    H120798   6.549   3.893   3.668  0.5296  0.5402  0.1737
 6954TIP3    H220799   6.482   3.769   3.721  0.5888  0.2051 -0.5369
 6955TIP3   OH220800   4.870   7.823   6.601 -0.6442  0.1155 -0.0108
 6955TIP3    H120801   4.797   7.792   6.654  0.2421 -0.4088  0.9297
 6955TIP3    H220802   4.878   7.757   6.531 -1.4730  0.5194 -0.4910
 6956TIP3   OH220803   1.269   2.829   2.616 -0.3149  0.4490 -0.2003
 6956TIP3    H120804   1.326   2.775   2.670  0.8763  0.8851 -0.9916
 6956TIP3    H220805   1.215   2.767   2.568 -0.4755  0.0261  0.5260
 6957TIP3   OH220806   7.069   3.944   3.994  0.0585 -0.0303  0.1949
 6957TIP3    H120807   7.162   3.928   3.985  0.3866  1.3628  0.9188
 6957TIP3    H220808   7.054   4.028   3.950 -0.8672 -0.2943 -0.0130
 6958TIP3   OH220809   6.693   2.384   2.279  0.1678 -0.1421 -0.3342
 6958TIP3    H120810   6.699   2.454   2.214  1.7647 -1.4814 -1.6826
 6958TIP3    H220811   6.724   2.424   2.360 -0.3680  1.1218 -0.7410
 6959TIP3   OH220812   6.239   2.681   5.599  0.2411  0.1327 -0.2551
 6959TIP3    H120813   6.335   2.681   5.606  0.3128 -0.7226 -1.1441
 6959TIP3    H220814   6.221   2.632   5.519 -0.9538  0.0191  0.0766
 6960TIP3   OH220815   8.116   2.777   3.427  0.5238 -0.6268  0.1013
 6960TIP3    H120816   8.114   2.780   3.523  0.0746  1.1738  0.0535
 6960TIP3    H220817   8.027   2.753   3.402  0.0206  1.2319  0.0797
 6961TIP3   OH220818   6.405   3.461   2.607  0.3995 -0.3573 -0.3093
 6961TIP3    H120819   6.460   3.392   2.570  1.3659  1.1017 -1.6888
 6961TIP3    H220820   6.463   3.536   2.617 -1.0508  0.8487 -0.6457
 6962TIP3   OH220821   7.493   3.593   2.463 -0.0252  0.5851  0.1507
 6962TIP3    H120822   7.437   3.582   2.540 -1.4708 -0.6824 -1.0146
 6962TIP3    H220823   7.465   3.522   2.404  1.1319  1.4423 -1.4628
 6963TIP3   OH220824   7.046   2.684   6.469  0.3059  0.3147 -0.1488
 6963TIP3    H120825   7.058   2.714   6.559 -0.8557  0.3142  0.0055
 6963TIP3    H220826   6.970   2.625   6.472 -0.6455  1.4507 -1.3853
 6964TIP3   OH220827   5.571   2.476   4.939 -0.1766  0.3755  0.6790
 6964TIP3    H120828   5.535   2.531   5.009 -2.4812 -0.4490  0.2088
 6964TIP3    H220829   5.496   2.422   4.911  1.2066 -0.6691 -1.0944
 6965TIP3   OH220830   8.151   4.477   6.182 -0.1923  0.0891 -0.5068
 6965TIP3    H120831   8.183   4.563   6.210 -0.7914  0.2323 -0.2501
 6965TIP3    H220832   8.223   4.417   6.202 -0.3353  0.3040  0.6828
 6966TIP3   OH220833   6.189   6.737   3.986  0.5807 -0.5262 -0.3889
 6966TIP3    H120834   6.153   6.648   3.983 -0.9729  0.1486 -3.1416
 6966TIP3    H220835   6.131   6.789   3.930  3.1666  1.6196 -1.1938
 6967TIP3   OH220836   7.944   4.426   2.524 -0.0525  0.2355 -0.1044
 6967TIP3    H120837   7.950   4.483   2.601  0.1065 -0.7054  0.5884
 6967TIP3    H220838   8.000   4.351   2.546 -1.6890 -1.0503 -0.2480
 6968TIP3   OH220839   7.066   2.057   5.448 -0.0744  0.4246 -0.4916
 6968TIP3    H120840   7.137   2.003   5.412  0.5437  1.6304 -1.1349
 6968TIP3    H220841   6.998   1.995   5.471 -0.1943 -0.4848 -3.0876
 6969TIP3   OH220842   6.664   4.307   4.798  0.2370  0.4592  0.7856
 6969TIP3    H120843   6.629   4.218   4.806  0.8412  0.1903  0.4706
 6969TIP3    H220844   6.589   4.364   4.815 -0.4505 -0.1142 -0.2476
 6970TIP3   OH220845   6.657   3.255   6.371 -0.0488 -0.2454  0.1097
 6970TIP3    H120846   6.627   3.346   6.369  0.0414 -0.2172 -0.0548
 6970TIP3    H220847   6.581   3.204   6.344  0.4375 -0.0587 -1.7195
 6971TIP3   OH220848   5.301   3.676   5.886  0.1308  0.4377  0.1543
 6971TIP3    H120849   5.333   3.639   5.968  1.2624  0.0431 -0.4585
 6971TIP3    H220850   5.300   3.771   5.902  3.4653  0.6322 -0.4280
 6972TIP3   OH220851   5.594   3.547   3.731  0.2384 -0.2542  0.5773
 6972TIP3    H120852   5.658   3.615   3.709 -0.3692 -0.0266 -0.5240
 6972TIP3    H220853   5.647   3.471   3.756  0.9630 -0.3517 -1.1726
 6973TIP3   OH220854   5.901   2.824   3.825  0.3429 -0.4296 -0.0264
 6973TIP3    H120855   5.815   2.866   3.833  0.6705  0.0603  1.0119
 6973TIP3    H220856   5.911   2.773   3.905 -0.1628 -2.7378 -1.4110
 6974TIP3   OH220857   5.603   6.001   3.698  0.5723 -0.0375 -0.1326
 6974TIP3    H120858   5.644   5.921   3.665 -0.1240 -0.0995 -0.8716
 6974TIP3    H220859   5.526   5.970   3.746  1.4414  0.0701  1.3624
 6975TIP3   OH220860   5.858   5.490   3.815  0.5983 -0.3305 -0.3003
 6975TIP3    H120861   5.886   5.581   3.807 -0.0823 -0.0186  0.8864
 6975TIP3    H220862   5.933   5.440   3.783  2.0149  0.5414  1.6042
 6976TIP3   OH220863   7.439   2.568   4.405 -0.1174 -0.6552  0.1904
 6976TIP3    H120864   7.380   2.497   4.430 -1.2470  0.4947  0.8614
 6976TIP3    H220865   7.386   2.647   4.415  1.2028  0.3033 -0.3095
 6977TIP3   OH220866   5.750   2.148   3.712  0.2520 -0.8153 -0.3821
 6977TIP3    H120867   5.780   2.229   3.755  1.0323 -1.4021  0.1890
 6977TIP3    H220868   5.818   2.127   3.649 -0.7722 -0.0981 -1.7718
 6978TIP3   OH220869   3.651   7.782   4.734  0.3691 -0.3382 -0.3365
 6978TIP3    H120870   3.613   7.749   4.653  0.9617  0.4601 -0.9390
 6978TIP3    H220871   3.735   7.819   4.708  0.6170 -0.1903  0.6624
 6979TIP3   OH220872   4.302   6.435   4.703  0.2217 -0.5118  0.0590
 6979TIP3    H120873   4.385   6.471   4.736 -0.9703  2.4290  0.0376
 6979TIP3    H220874   4.241   6.448   4.775 -0.9421  0.2017 -1.0435
 6980TIP3   OH220875   6.522   0.405   4.226 -0.0569  0.2684  0.0268
 6980TIP3    H120876   6.461   0.474   4.253 -1.5975 -0.9575 -0.2278
 6980TIP3    H220877   6.555   0.369   4.308  0.1578  0.7930  0.1720
 6981TIP3   OH220878   5.919   1.935   1.852  0.2533 -0.2390 -0.5717
 6981TIP3    H120879   5.845   1.874   1.849  1.1988 -1.4445  0.0166
 6981TIP3    H220880   5.950   1.939   1.761  1.5494 -2.3862 -0.2657
 6982TIP3   OH220881   0.747   7.100   0.299  0.7199  0.1163  0.7366
 6982TIP3    H120882   0.721   7.024   0.351  1.2717 -0.5160  0.1171
 6982TIP3    H220883   0.835   7.078   0.268  0.8312  0.9548  0.4412
 6983TIP3   OH220884   5.506   2.698   3.899 -0.5298 -1.0221 -0.1210
 6983TIP3    H120885   5.468   2.610   3.900  0.8235 -1.6545  2.4172
 6983TIP3    H220886   5.490   2.731   3.811 -2.4043 -3.2245 -0.6435
 6984TIP3   OH220887   6.843   2.897   3.482  0.3472  0.4624  0.2984
 6984TIP3    H120888   6.863   2.990   3.497 -0.4711  0.6083  0.5504
 6984TIP3    H220889   6.871   2.853   3.561  0.6931  0.5072  0.1990
 6985TIP3   OH220890   3.809   4.037   2.984  1.1605 -0.3184  0.1213
 6985TIP3    H120891   3.864   3.978   2.931 -0.0434 -1.1120 -0.2778
 6985TIP3    H220892   3.768   4.095   2.920  0.2755 -0.7993  0.2422
 6986TIP3   OH220893   6.399   2.234   3.871 -0.2587  0.5393  0.3068
 6986TIP3    H120894   6.466   2.258   3.807 -1.9034 -3.2120 -3.1086
 6986TIP3    H220895   6.323   2.288   3.848 -0.3746  0.2735  0.0616
 6987TIP3   OH220896   6.586   4.928   3.104  0.3331  0.4198  0.0776
 6987TIP3    H120897   6.522   4.936   3.033 -1.0061 -1.8057  0.9816
 6987TIP3    H220898   6.636   4.849   3.083 -0.1559 -0.3353  1.6114
 6988TIP3   OH220899   5.566   2.766   4.455 -0.2055  0.4778 -0.0894
 6988TIP3    H120900   5.537   2.737   4.541  0.6048  1.5092  0.5492
 6988TIP3    H220901   5.488   2.761   4.399 -1.5165  2.7578  1.4628
 6989TIP3   OH220902   7.113   3.252   2.553  0.1227  0.1053  0.3041
 6989TIP3    H120903   7.041   3.190   2.544  0.2791  0.1734 -1.7376
 6989TIP3    H220904   7.160   3.223   2.631 -1.0324 -1.0610  0.5808
 6990TIP3   OH220905   5.964   0.084   5.782  0.3301 -0.0596  0.4840
 6990TIP3    H120906   5.890   0.099   5.841 -0.4257 -0.9309 -0.2098
 6990TIP3    H220907   5.957   0.153   5.716  1.2881  1.0303  1.5071
 6991TIP3   OH220908   6.861   3.839   5.385  0.1439 -0.0733  0.3633
 6991TIP3    H120909   6.901   3.914   5.341  0.5118 -0.7783 -0.5209
 6991TIP3    H220910   6.799   3.878   5.447  0.8867  0.9787  0.4607
 6992TIP3   OH220911   4.448   3.338   2.022  0.4585 -0.1450 -0.0825
 6992TIP3    H120912   4.353   3.345   2.015  0.5762  1.0674 -0.5048
 6992TIP3    H220913   4.479   3.428   2.025  1.6986 -0.5045 -1.3004
 6993TIP3   OH220914   6.612   2.051   4.963  0.7469  0.0718  0.0701
 6993TIP3    H120915   6.634   2.142   4.982  0.8097 -0.1584  1.1548
 6993TIP3    H220916   6.577   2.018   5.046 -0.6273 -0.4817 -0.7203
 6994TIP3   OH220917   6.497   2.962   5.195  0.1853  0.1584  0.0945
 6994TIP3    H120918   6.450   3.028   5.143 -1.5943 -0.2839  1.1044
 6994TIP3    H220919   6.479   2.879   5.151 -0.0402 -0.0212  0.5218
 6995TIP3   OH220920   0.843   1.263   0.739 -0.1381 -0.0872 -0.3309
 6995TIP3    H120921   0.830   1.313   0.820  0.5365 -0.0577 -0.2371
 6995TIP3    H220922   0.929   1.292   0.707 -0.1441 -0.5302 -0.7461
 6996TIP3   OH220923   0.310   2.742   2.043  0.3871  0.0678 -0.6493
 6996TIP3    H120924   0.254   2.695   2.106  0.6492  1.7724  0.9024
 6996TIP3    H220925   0.336   2.675   1.980  0.8484 -1.9109  1.5638
 6997TIP3   OH220926   0.455   1.824   1.100  0.1012 -0.3176  0.4367
 6997TIP3    H120927   0.549   1.818   1.120  0.2834 -0.0432 -0.3362
 6997TIP3    H220928   0.440   1.916   1.081 -0.2103 -0.4628 -0.0230
 6998TIP3   OH220929   6.550   0.761   4.301  0.1455  0.6060  0.1353
 6998TIP3    H120930   6.479   0.814   4.336 -0.1087  0.4761 -0.1761
 6998TIP3    H220931   6.596   0.727   4.378  0.5736  1.6243  0.3370
 6999TIP3   OH220932   8.119   4.245   2.602 -0.2745  0.3321  0.0699
 6999TIP3    H120933   8.212   4.264   2.594 -0.2278  0.1961  0.2804
 6999TIP3    H220934   8.109   4.156   2.567 -0.0364 -0.3444  1.6618
 7000TIP3   OH220935   0.138   3.413   3.259  0.7862  0.0343 -0.6301
 7000TIP3    H120936   0.146   3.507   3.272  3.2980 -0.3409  0.8609
 7000TIP3    H220937   0.101   3.403   3.171  1.2006  2.3664 -1.0928
 7001TIP3   OH220938   8.057   2.830   3.689  0.2255 -0.2015 -0.4531
 7001TIP3    H120939   8.041   2.790   3.774  1.7657 -0.7669 -0.4136
 7001TIP3    H220940   7.979   2.881   3.671  0.5692  1.2662  2.0671
 7002TIP3   OH220941   1.527   7.915   0.819  0.1907 -0.5842  0.0266
 7002TIP3    H120942   1.435   7.894   0.803  0.0844 -0.0722 -0.0369
 7002TIP3    H220943   1.525   7.991   0.876  0.5804 -1.4261  1.1901
 7003TIP3   OH220944   7.187   1.815   2.610 -0.4090  0.1596 -0.1007
 7003TIP3    H120945   7.245   1.752   2.654 -0.1985  0.2940 -0.1872
 7003TIP3    H220946   7.217   1.901   2.640 -0.1102  0.2655 -0.6896
 7004TIP3   OH220947   7.127   3.495   3.058  0.0496 -0.2170  0.0075
 7004TIP3    H120948   7.074   3.443   3.118  0.5243 -0.9289 -0.1799
 7004TIP3    H220949   7.212   3.504   3.103  0.7391 -1.5976 -0.9640
 7005TIP3   OH220950   1.835   1.617   4.000  0.5330 -0.0856  0.3545
 7005TIP3    H120951   1.825   1.531   3.959  1.0756 -0.0625  0.1674
 7005TIP3    H220952   1.921   1.646   3.973  0.9108 -0.0743  1.5324
 7006TIP3   OH220953   8.027   3.503   3.283 -0.5903 -0.1899  0.4844
 7006TIP3    H120954   7.966   3.576   3.272  1.3526  1.4467  0.2478
 7006TIP3    H220955   8.061   3.512   3.372  0.0107 -0.5268  0.2970
 7007TIP3   OH220956   8.203   2.091   6.502 -0.1518 -0.1429 -0.1265
 7007TIP3    H120957   8.258   2.129   6.570  2.2647  0.2724 -2.2835
 7007TIP3    H220958   8.257   2.023   6.461 -1.6844 -0.6236 -1.4381
 7008TIP3   OH220959   1.332   3.000   3.173  0.1745  0.4619 -0.2052
 7008TIP3    H120960   1.403   3.059   3.149  0.7347  0.7272  2.0623
 7008TIP3    H220961   1.356   2.917   3.132  1.0797  0.9048 -0.5926
 7009TIP3   OH220962   7.528   4.043   3.367 -0.2543 -0.2013  0.0466
 7009TIP3    H120963   7.559   3.954   3.354 -2.5636 -1.0969  0.6009
 7009TIP3    H220964   7.535   4.057   3.462 -2.1807 -0.6580  0.2649
 7010TIP3   OH220965   7.174   4.487   3.713  0.3458  0.4692  0.1131
 7010TIP3    H120966   7.087   4.453   3.734 -0.7764  2.8278 -0.5732
 7010TIP3    H220967   7.197   4.443   3.631 -0.7203  0.6782 -0.3190
 7011TIP3   OH220968   1.643   2.772   2.420  0.1681  0.4644 -0.4968
 7011TIP3    H120969   1.616   2.840   2.358 -2.0925 -0.2015 -0.2926
 7011TIP3    H220970   1.567   2.714   2.426  0.6717  0.0379  2.2605
 7012TIP3   OH220971   6.733   4.506   6.176 -0.0178  0.3092 -1.2722
 7012TIP3    H120972   6.750   4.568   6.105 -0.4930  2.1364  0.1936
 7012TIP3    H220973   6.820   4.490   6.214  0.2210 -0.5810 -2.1431
 7013TIP3   OH220974   7.430   1.808   1.583 -0.2508  0.7204  0.3065
 7013TIP3    H120975   7.461   1.862   1.655  0.2398 -0.7209  1.1989
 7013TIP3    H220976   7.378   1.739   1.625  0.5671 -0.5041 -0.6441
 7014TIP3   OH220977   5.219   0.992   5.388  0.7331 -0.5279 -0.1762
 7014TIP3    H120978   5.280   1.063   5.373  0.2304  0.0750  0.6351
 7014TIP3    H220979   5.274   0.915   5.400  1.3705  0.1736  1.4632
 7015TIP3   OH220980   6.593   3.708   4.648  0.1989  0.1758  0.3936
 7015TIP3    H120981   6.586   3.614   4.632  0.3253  0.6079 -2.3802
 7015TIP3    H220982   6.523   3.727   4.711 -2.1110 -1.1837 -1.6943
 7016TIP3   OH220983   6.596   4.574   2.260  0.0985  0.8990 -0.2889
 7016TIP3    H120984   6.640   4.619   2.332  1.2185 -0.4129 -0.1458
 7016TIP3    H220985   6.664   4.561   2.194 -0.7722  1.5247 -1.3283
 7017TIP3   OH220986   7.485   3.594   3.721 -0.3404 -0.4342 -0.0867
 7017TIP3    H120987   7.532   3.675   3.701 -2.6735  1.1435  0.6722
 7017TIP3    H220988   7.394   3.621   3.735 -0.9716 -3.0469  1.2118
 7018TIP3   OH220989  -0.004   3.862   3.283 -0.2362  0.9051  0.2189
 7018TIP3    H120990  -0.033   3.839   3.195 -0.2930 -0.8224  0.6600
 7018TIP3    H220991   0.091   3.872   3.275 -0.1517  0.0365  0.0968
 7019TIP3   OH220992   6.233   6.129   3.509 -0.2255  0.1546 -0.3954
 7019TIP3    H120993   6.207   6.047   3.550  0.5586  0.0712 -0.0403
 7019TIP3    H220994   6.295   6.103   3.441  1.0885  0.5408  0.6318
 7020TIP3   OH220995   6.913   3.942   0.139 -0.0466 -0.0251  0.3946
 7020TIP3    H120996   6.869   3.953   0.223  1.3680  1.4366  0.9580
 7020TIP3    H220997   6.908   4.028   0.097  0.1292 -0.4820 -0.5841
 7021TIP3   OH220998   6.376   2.442   4.078  0.4005  0.2178 -0.2318
 7021TIP3    H120999   6.448   2.425   4.018  1.8759  0.2055  1.5286
 7021TIP3    H221000   6.348   2.355   4.107  0.5968  0.2819  0.1546
 7022TIP3   OH221001   0.887   4.085   3.775  0.0776 -0.3033  0.3855
 7022TIP3    H121002   0.808   4.138   3.778  0.0714 -0.2369 -0.8453
 7022TIP3    H221003   0.948   4.134   3.721  1.0115 -0.3044  1.4090
 7023TIP3   OH221004   8.269   2.751   4.748  0.0278  0.0418  0.0709
 7023TIP3    H121005   8.341   2.717   4.695 -0.2343 -0.4093  0.0017
 7023TIP3    H221006   8.190   2.735   4.695 -0.2838 -0.8065  0.7823
 7024TIP3   OH221007   0.540   3.300   2.682  0.0050  0.6628 -0.0069
 7024TIP3    H121008   0.546   3.276   2.590 -0.5046 -0.6365  0.2819
 7024TIP3    H221009   0.562   3.220   2.729 -0.0298  1.2353  0.9974
 7025TIP3   OH221010   8.254   3.022   5.241 -0.1964 -0.5231  0.7472
 7025TIP3    H121011   8.306   2.956   5.195  0.4308  0.5256 -0.1031
 7025TIP3    H221012   8.176   3.033   5.187  0.5922  0.7902 -0.1595
 7026TIP3   OH221013   7.342   3.241   3.127  0.0667 -0.1480 -0.6368
 7026TIP3    H121014   7.403   3.170   3.147 -0.5455 -0.4225  0.3004
 7026TIP3    H221015   7.298   3.213   3.047 -1.0484 -1.4172  0.3938
 7027TIP3   OH221016   1.134   2.505   4.802 -0.3188 -0.8492 -1.2095
 7027TIP3    H121017   1.088   2.525   4.721 -3.4240 -2.4327  0.0580
 7027TIP3    H221018   1.142   2.409   4.802  0.2017 -0.8200  0.0449
 7028TIP3   OH221019   0.598   2.590   1.978 -0.2506 -0.2705 -0.0436
 7028TIP3    H121020   0.645   2.521   1.934  1.1517  1.0355 -0.6260
 7028TIP3    H221021   0.506   2.572   1.961  0.0996 -2.0168 -0.1104
 7029TIP3   OH221022   7.363   2.033   1.028  0.2353 -0.1399 -0.2108
 7029TIP3    H121023   7.419   2.078   1.092 -0.6356  1.3287 -0.4505
 7029TIP3    H221024   7.335   1.953   1.074 -0.8218  1.1571  1.4906
 7030TIP3   OH221025   0.509   3.363   1.493 -0.1082  0.2428  0.3652
 7030TIP3    H121026   0.439   3.364   1.428  0.2069  2.3726  0.0175
 7030TIP3    H221027   0.493   3.440   1.548  0.2646 -0.9146  2.1434
 7031TIP3   OH221028   0.633   3.316   4.695  0.5460  0.3195  0.6255
 7031TIP3    H121029   0.553   3.314   4.643  0.3413  0.1024  0.9465
 7031TIP3    H221030   0.634   3.403   4.735  0.9569  0.6633 -0.1352
 7032TIP3   OH221031   7.436   5.237   3.068  0.0895 -0.0413  0.2408
 7032TIP3    H121032   7.402   5.152   3.038 -0.3503  0.3135 -0.2861
 7032TIP3    H221033   7.483   5.217   3.149  2.1171 -1.1675 -1.1838
 7033TIP3   OH221034   6.973   4.727   5.654 -0.5965 -0.2074 -0.3694
 7033TIP3    H121035   6.932   4.649   5.617 -1.8246 -0.6928  1.8705
 7033TIP3    H221036   7.023   4.694   5.729 -1.4766  1.1504  0.8650
 7034TIP3   OH221037   1.073   3.273   5.731  0.4745  0.2561  0.3924
 7034TIP3    H121038   1.098   3.360   5.763  0.6192  0.0716  0.7747
 7034TIP3    H221039   1.115   3.212   5.791  0.4323 -0.0829  0.0792
 7035TIP3   OH221040   0.778   0.451   2.024  0.3426  0.3123 -0.1811
 7035TIP3    H121041   0.695   0.409   2.003 -0.1481  0.2522  1.7497
 7035TIP3    H221042   0.845   0.386   2.004 -0.0963  0.2293 -1.3936
 7036TIP3   OH221043   1.061   5.774   4.872  0.5371 -0.4862 -0.0445
 7036TIP3    H121044   1.026   5.685   4.880  1.9503 -1.0394  0.0477
 7036TIP3    H221045   1.136   5.776   4.930 -0.8012  1.4786  1.7119
 7037TIP3   OH221046   7.508   5.317   3.630  0.2559 -0.0101  0.2748
 7037TIP3    H121047   7.505   5.233   3.585 -0.3943  0.5098 -0.6674
 7037TIP3    H221048   7.420   5.329   3.666  0.3102  0.3075  0.3083
 7038TIP3   OH221049   7.153   3.113   5.305  0.5705  0.2121 -0.1232
 7038TIP3    H121050   7.184   3.146   5.389 -1.1878  2.0156 -0.1495
 7038TIP3    H221051   7.060   3.097   5.318  0.5658 -0.8470 -1.3362
 7039TIP3   OH221052   4.301   7.350   0.231 -0.1055  0.1883  0.1633
 7039TIP3    H121053   4.250   7.309   0.301 -2.0450  0.4714 -1.0500
 7039TIP3    H221054   4.324   7.278   0.173 -0.2169  0.2505  0.0416
 7040TIP3   OH221055   1.034   5.201   5.519  0.6703  0.5522  0.0467
 7040TIP3    H121056   1.102   5.258   5.554  1.8826 -0.9772  0.2275
 7040TIP3    H221057   1.044   5.206   5.424  3.5305 -2.5161  0.0763
 7041TIP3   OH221058   6.637   4.046   2.787 -0.4907 -0.1537  0.6610
 7041TIP3    H121059   6.630   4.031   2.881  1.5473 -2.1095  0.5387
 7041TIP3    H221060   6.716   4.099   2.776 -1.2132  0.8321  0.1077
 7042TIP3   OH221061   0.395   4.224   2.061  0.0728 -0.3930 -0.1842
 7042TIP3    H121062   0.403   4.296   2.125  0.8923 -0.8662  0.2538
 7042TIP3    H221063   0.383   4.268   1.977 -0.6269  0.2433  0.2418
 7043TIP3   OH221064   0.134   3.326   5.064 -0.3089  0.2238  0.2367
 7043TIP3    H121065   0.128   3.319   5.159  1.0529  0.9127  0.3941
 7043TIP3    H221066   0.068   3.391   5.040 -0.6120  0.0956  0.7194
 7044TIP3   OH221067   0.664   3.104   3.266  0.1235  0.1853  0.2065
 7044TIP3    H121068   0.599   3.084   3.198 -0.0134 -2.0457  0.9643
 7044TIP3    H221069   0.748   3.086   3.225  0.4064  4.2457 -1.1795
 7045TIP3   OH221070   7.248   2.384   4.476  0.1290 -0.1492  0.2280
 7045TIP3    H121071   7.310   2.350   4.542  0.9629 -1.5136 -1.2153
 7045TIP3    H221072   7.173   2.325   4.483 -0.4897  0.7416  1.1169
 7046TIP3   OH221073   7.541   2.669   4.800 -0.5199 -0.2185 -0.3179
 7046TIP3    H121074   7.464   2.647   4.852 -0.3132 -1.1993 -0.4134
 7046TIP3    H221075   7.514   2.745   4.749 -1.1918 -0.1238  0.1698
 7047TIP3   OH221076   7.101   3.044   3.188 -0.7756  0.2881 -0.4367
 7047TIP3    H121077   7.077   3.133   3.217  1.1601  0.1880  1.5749
 7047TIP3    H221078   7.163   3.014   3.253  0.1061 -1.8179 -2.2104
 7048TIP3   OH221079   8.305   3.554   2.062 -0.4731  0.3211  0.6051
 7048TIP3    H121080   8.348   3.497   1.999 -0.8899  1.5446 -0.8214
 7048TIP3    H221081   8.253   3.495   2.117  2.8763 -1.1534  2.2870
 7049TIP3   OH221082   1.706   2.601   1.816 -0.3401 -0.3880  0.3181
 7049TIP3    H121083   1.676   2.690   1.833  0.8918 -0.0687  0.8069
 7049TIP3    H221084   1.763   2.579   1.890 -0.0181 -1.3037 -0.1842
 7050TIP3   OH221085   5.420   2.660   2.562 -0.4649 -0.0834 -0.2755
 7050TIP3    H121086   5.339   2.661   2.613 -0.6338 -0.3785 -0.5372
 7050TIP3    H221087   5.487   2.692   2.622 -0.6408 -0.5489  0.1655
 7051TIP3   OH221088   0.311   6.374   5.205 -0.2244  0.6830  0.2211
 7051TIP3    H121089   0.260   6.298   5.174 -2.0578  0.8197  2.7752
 7051TIP3    H221090   0.324   6.427   5.126 -0.9414 -1.1201 -1.1661
 7052TIP3   OH221091   6.843   2.235   3.670 -0.4055  0.2279 -0.4771
 7052TIP3    H121092   6.831   2.183   3.750  0.9691 -1.1542 -1.1690
 7052TIP3    H221093   6.763   2.219   3.620 -0.6521 -0.0004 -0.0217
 7053TIP3   OH221094   1.244   2.614   2.988  0.0213  0.0568  0.7506
 7053TIP3    H121095   1.225   2.536   3.039  0.9951 -0.8363 -0.2123
 7053TIP3    H221096   1.317   2.655   3.033  1.7262 -1.4143 -0.5703
 7054TIP3   OH221097   6.825   2.332   3.022  0.5698  0.4013  0.4646
 7054TIP3    H121098   6.875   2.412   3.032 -1.2097  1.3148  2.5042
 7054TIP3    H221099   6.890   2.262   3.033  1.8125  1.5527  0.6115
 7055TIP3   OH221100   0.782   4.528   3.307  0.1185  0.0652 -0.5993
 7055TIP3    H121101   0.710   4.493   3.253 -0.2764 -1.3133  0.7847
 7055TIP3    H221102   0.861   4.488   3.270 -0.4822 -4.0198  2.1409
 7056TIP3   OH221103   6.776   2.247   1.888 -0.1006  0.4780  0.2139
 7056TIP3    H121104   6.868   2.220   1.884 -0.0582  0.6369  0.1285
 7056TIP3    H221105   6.735   2.183   1.946 -0.3505 -0.7543 -1.3056
 7057TIP3   OH221106   8.048   5.017   4.177 -0.0026 -0.2586  0.2734
 7057TIP3    H121107   8.140   5.011   4.151 -0.3439  1.1660 -1.2993
 7057TIP3    H221108   8.000   5.031   4.096 -1.7059 -1.5802  1.0091
 7058TIP3   OH221109   7.247   4.039   4.393  0.1830 -0.1408 -0.2305
 7058TIP3    H121110   7.197   3.963   4.423 -0.6175  0.7821  0.8334
 7058TIP3    H221111   7.187   4.113   4.406  0.7382  0.6119 -1.7801
 7059TIP3   OH221112   0.408   1.723   5.364 -0.0396  0.3528  0.6263
 7059TIP3    H121113   0.497   1.733   5.328  0.2591 -0.7443  1.0290
 7059TIP3    H221114   0.390   1.629   5.355 -0.9600  0.4959  1.0174
 7060TIP3   OH221115   8.169   3.417   6.780 -0.1827  0.1980 -0.3001
 7060TIP3    H121116   8.140   3.452   6.865  0.2198  0.0579 -0.1045
 7060TIP3    H221117   8.091   3.423   6.724 -0.6753 -0.4353  0.3032
 7061TIP3   OH221118   7.933   2.156   2.196 -0.6791  0.1906 -0.3738
 7061TIP3    H121119   8.028   2.150   2.188 -0.8637  1.4057 -4.3951
 7061TIP3    H221120   7.906   2.069   2.225  1.8135  0.6432  3.7452
 7062TIP3   OH221121   0.553   3.316   6.052 -0.1329  0.4678  0.1581
 7062TIP3    H121122   0.646   3.327   6.030  0.0263 -0.2320  0.4427
 7062TIP3    H221123   0.512   3.399   6.029  0.5815  0.8043  0.0937
 7063TIP3   OH221124   0.383   3.467   4.122 -0.3636  0.0756 -0.2951
 7063TIP3    H121125   0.306   3.520   4.099 -1.9126 -0.8918  2.5197
 7063TIP3    H221126   0.388   3.402   4.052 -2.5523 -0.2851 -0.1679
 7064TIP3   OH221127   7.985   3.179   3.370 -0.0174 -0.2740  0.0164
 7064TIP3    H121128   7.962   3.199   3.279 -3.6383 -0.0134  0.9409
 7064TIP3    H221129   8.004   3.264   3.409 -1.8475  0.0020  0.3565
 7065TIP3   OH221130   6.277   2.200   2.651  0.2957 -0.3390  0.2462
 7065TIP3    H121131   6.250   2.149   2.575 -0.2868  1.5389 -0.8515
 7065TIP3    H221132   6.195   2.222   2.695  0.4667  0.4196  0.1899
 7066TIP3   OH221133   3.058   4.871   3.364  0.0325 -0.0195  0.0666
 7066TIP3    H121134   3.055   4.781   3.396  0.3214 -0.1757 -0.3449
 7066TIP3    H221135   3.040   4.925   3.441 -2.2021 -0.5000 -0.0751
 7067TIP3   OH221136   6.890   3.637   5.558 -0.4040 -0.1626  0.2738
 7067TIP3    H121137   6.865   3.708   5.500 -0.2522 -1.8622 -1.9415
 7067TIP3    H221138   6.808   3.595   5.583 -0.3697 -0.4209 -0.0357
 7068TIP3   OH221139   8.224   3.501   6.107 -0.5974 -0.3018  0.3495
 7068TIP3    H121140   8.152   3.439   6.117 -0.5908 -0.1729  1.2967
 7068TIP3    H221141   8.181   3.587   6.105 -0.5819 -0.3081 -0.6297
 7069TIP3   OH221142   0.008   2.565   4.918  0.5709 -0.0697  0.0196
 7069TIP3    H121143  -0.004   2.558   5.012 -1.0375  2.2063  0.0094
 7069TIP3    H221144   0.000   2.474   4.887 -0.3022 -0.6726  1.9094
 7070TIP3   OH221145   8.423   3.112   3.896  0.1413 -0.3438 -0.5778
 7070TIP3    H121146   8.397   3.188   3.948  0.9244 -0.3539 -0.1684
 7070TIP3    H221147   8.437   3.148   3.808 -0.7151 -0.2429 -0.6828
 7071TIP3   OH221148   7.797   3.561   3.991  0.7210 -0.0770  0.0367
 7071TIP3    H121149   7.827   3.648   4.018  0.9880 -0.0969 -0.1922
 7071TIP3    H221150   7.872   3.504   4.010  0.3648 -0.3455  0.6648
 7072TIP3   OH221151   0.073   2.837   3.612 -0.2094 -0.2799  0.2126
 7072TIP3    H121152   0.069   2.762   3.554  1.0362  0.8235 -1.3441
 7072TIP3    H221153  -0.016   2.871   3.614 -0.2010 -0.1537 -1.3020
 7073TIP3   OH221154   1.018   4.522   2.450 -0.1121 -0.0890  0.7049
 7073TIP3    H121155   0.980   4.435   2.468  2.1265 -0.8360  1.9379
 7073TIP3    H221156   1.111   4.513   2.471  0.6378  1.9456 -1.4726
 7074TIP3   OH221157   6.290   2.124   2.138 -0.6245  0.1216  0.0847
 7074TIP3    H121158   6.220   2.082   2.089 -1.0609  1.1677 -0.2078
 7074TIP3    H221159   6.341   2.171   2.071  0.2329 -0.4676  0.3208
 7075TIP3   OH221160   6.946   4.249   2.066  0.2383  0.6154  0.3781
 7075TIP3    H121161   6.867   4.301   2.081  1.3537  2.7029 -0.7330
 7075TIP3    H221162   7.009   4.284   2.129  0.9108  0.4032 -0.1719
 7076TIP3   OH221163   6.876   3.489   5.035 -0.5871  0.0208  0.2892
 7076TIP3    H121164   6.917   3.553   5.094  2.2087  0.2192 -1.7776
 7076TIP3    H221165   6.870   3.534   4.951 -0.6690 -1.6799 -0.6378
 7077TIP3   OH221166   6.570   2.402   5.454  0.0330  0.0674  0.2151
 7077TIP3    H121167   6.528   2.351   5.385  0.4454  0.5056 -0.3574
 7077TIP3    H221168   6.646   2.350   5.480 -1.3312 -1.1806  1.8914
 7078TIP3   OH221169   0.677   2.765   5.480 -0.3335  0.5129  0.0799
 7078TIP3    H121170   0.656   2.701   5.412 -0.3359  1.0949 -0.4694
 7078TIP3    H221171   0.750   2.816   5.443 -0.2489  0.7449  0.5650
 7079TIP3   OH221172   5.849   4.272   2.584  0.0705  0.3793  0.1774
 7079TIP3    H121173   5.792   4.312   2.518 -0.3932  0.1092  0.4088
 7079TIP3    H221174   5.938   4.291   2.554 -0.1201 -1.4158 -1.5633
 7080TIP3   OH221175   7.547   3.084   4.407 -0.1054 -0.2962  0.0049
 7080TIP3    H121176   7.623   3.054   4.456  0.7519 -0.8295 -1.5891
 7080TIP3    H221177   7.581   3.149   4.346 -0.8662 -0.6770 -0.8558
 7081TIP3   OH221178   6.600   0.205   4.068  0.5169 -0.0812  0.1659
 7081TIP3    H121179   6.555   0.278   4.111 -0.7064 -0.5601 -0.2649
 7081TIP3    H221180   6.648   0.162   4.139  2.5505  2.0379  0.1544
 7082TIP3   OH221181   5.897   1.756   3.544 -0.4138 -0.9422 -0.0903
 7082TIP3    H121182   5.945   1.699   3.485 -0.3130 -0.2939 -0.6432
 7082TIP3    H221183   5.806   1.727   3.537 -0.5554 -0.2756 -1.2919
 7083TIP3   OH221184   7.366   3.460   5.502  0.2507  0.2722  0.2349
 7083TIP3    H121185   7.421   3.536   5.521  1.1241 -0.3405  0.1491
 7083TIP3    H221186   7.277   3.493   5.514  0.6785  0.7186  2.4432
 7084TIP3   OH221187   7.808   4.253   3.118 -0.1689 -0.5365 -0.7362
 7084TIP3    H121188   7.883   4.311   3.102 -0.0638 -0.7176 -0.9055
 7084TIP3    H221189   7.845   4.165   3.115 -0.6699 -0.7209 -2.5236
 7085TIP3   OH221190   6.862   3.706   6.253  0.2771  0.1557 -0.0231
 7085TIP3    H121191   6.793   3.651   6.215 -2.0692 -0.1870  4.4016
 7085TIP3    H221192   6.817   3.758   6.320  3.8841  1.7534  1.2809
 7086TIP3   OH221193   0.601   2.606   4.020 -0.1204 -0.2909  0.0042
 7086TIP3    H121194   0.559   2.641   3.942  0.2451 -0.9397 -0.4888
 7086TIP3    H221195   0.530   2.567   4.071 -0.4377  0.6200  0.2616
 7087TIP3   OH221196   4.831   6.489   3.880  0.4699  0.0316  0.2597
 7087TIP3    H121197   4.748   6.453   3.912  0.9635 -0.6043  0.8229
 7087TIP3    H221198   4.898   6.436   3.921  1.1770  0.8573  0.1888
 7088TIP3   OH221199   6.844   4.740   6.484  0.2519  0.1466  0.1683
 7088TIP3    H121200   6.898   4.700   6.416  0.7143  1.4214 -0.2318
 7088TIP3    H221201   6.812   4.667   6.537  0.8655 -0.7529 -0.7089
 7089TIP3   OH221202   1.028   3.961   3.990 -0.2159  0.2805 -0.1613
 7089TIP3    H121203   0.950   3.917   4.027 -0.1830 -0.0222 -0.4538
 7089TIP3    H221204   1.006   3.975   3.898  0.1898 -0.0550 -0.3073
 7090TIP3   OH221205   0.540   3.508   4.341 -0.1018 -0.3225  0.3454
 7090TIP3    H121206   0.498   3.473   4.262 -1.6706  2.9177 -0.3377
 7090TIP3    H221207   0.526   3.441   4.408 -1.5820 -1.6789 -1.2928
 7091TIP3   OH221208  -0.000   4.216   3.584  0.0884 -0.0202  0.4119
 7091TIP3    H121209  -0.046   4.285   3.632 -1.6684 -0.0203 -1.2162
 7091TIP3    H221210   0.084   4.255   3.560 -0.8678  1.5744 -0.4542
 7092TIP3   OH221211   8.372   4.640   4.558 -0.5489 -0.3798 -0.1750
 7092TIP3    H121212   8.304   4.624   4.492 -1.8472  0.1970  1.0077
 7092TIP3    H221213   8.377   4.558   4.607  0.9836 -1.0888 -1.4703
 7093TIP3   OH221214   6.707   3.485   5.674 -0.1661  0.2854  0.3334
 7093TIP3    H121215   6.656   3.531   5.741 -0.2013  1.2924 -0.3669
 7093TIP3    H221216   6.641   3.437   5.623 -0.1499 -0.3986  0.9495
 7094TIP3   OH221217   3.142   6.705   5.041  0.4439 -0.1138  0.4813
 7094TIP3    H121218   3.098   6.621   5.035  0.7395 -0.3123  1.0236
 7094TIP3    H221219   3.228   6.685   5.078  0.3854  0.4652  0.9432
 7095TIP3   OH221220   7.754   2.659   2.629 -0.1517  0.4199  0.4251
 7095TIP3    H121221   7.821   2.688   2.692 -2.0126  0.9959  2.1971
 7095TIP3    H221222   7.734   2.738   2.579  0.6233  0.1972 -0.2475
 7096TIP3   OH221223   7.476   3.108   3.934 -0.1697  0.8240  0.1179
 7096TIP3    H121224   7.562   3.121   3.974  0.1255  1.7661 -0.8219
 7096TIP3    H221225   7.495   3.084   3.844 -0.9004  1.0770 -0.1055
 7097TIP3   OH221226   8.472   3.487   2.768 -0.8851  0.5900  0.2628
 7097TIP3    H121227   8.392   3.533   2.744 -0.7967  0.1678 -0.8835
 7097TIP3    H221228   8.540   3.525   2.712  0.0236  1.9837  2.2798
 7098TIP3   OH221229   2.752   2.776   3.364  0.8642  0.3184  0.2190
 7098TIP3    H121230   2.690   2.848   3.371  2.2285  1.4537  0.9976
 7098TIP3    H221231   2.793   2.789   3.278  0.2262 -0.2692 -0.1770
 7099TIP3   OH221232   0.125   2.123   5.435  0.2113 -0.2190 -0.0070
 7099TIP3    H121233   0.068   2.173   5.493 -0.3034 -0.6415 -0.1444
 7099TIP3    H221234   0.095   2.033   5.444  0.1378 -0.2878 -0.9065
 7100TIP3   OH221235   7.985   3.019   5.767  0.2654 -0.1214  0.0562
 7100TIP3    H121236   7.993   3.039   5.860  0.0008 -1.4099  0.3666
 7100TIP3    H221237   8.018   3.097   5.723  1.7125 -0.0588  1.2259
 7101TIP3   OH221238   5.703   3.515   3.111 -0.3599  0.0621 -0.1458
 7101TIP3    H121239   5.646   3.444   3.138  1.3922 -0.5852  2.0223
 7101TIP3    H221240   5.737   3.488   3.026 -1.4598 -0.6226 -0.3730
 7102TIP3   OH221241   8.269   2.427   4.530  0.0827 -0.3197 -0.4020
 7102TIP3    H121242   8.330   2.461   4.465  1.0729  0.6800  1.0178
 7102TIP3    H221243   8.213   2.502   4.552 -0.1369 -0.6023  0.0115
 7103TIP3   OH221244   0.224   6.408   4.542 -0.0742  0.9227  0.0938
 7103TIP3    H121245   0.179   6.326   4.564 -1.1840  2.0149  2.0515
 7103TIP3    H221246   0.197   6.427   4.452 -1.0079 -0.0740  0.1488
 7104TIP3   OH221247   0.892   7.480   1.875 -0.5999  0.0819  0.3960
 7104TIP3    H121248   0.928   7.560   1.914 -0.8068  1.4424 -2.0629
 7104TIP3    H221249   0.968   7.432   1.843 -0.6100  0.3087  0.0309
 7105TIP3   OH221250   3.073   5.276   2.709 -0.3699  0.1237 -0.4365
 7105TIP3    H121251   3.145   5.322   2.665 -0.4330  0.2968 -0.3572
 7105TIP3    H221252   2.999   5.336   2.702  0.1014  0.9743  1.5626
 7106TIP3   OH221253   7.236   5.284   6.841 -0.0271  0.2390  0.2979
 7106TIP3    H121254   7.158   5.336   6.822 -0.3517 -0.5942 -0.6887
 7106TIP3    H221255   7.260   5.309   6.931 -0.1949  2.0508 -0.1475
 7107TIP3   OH221256   8.355   2.239   5.225  0.3018  0.1101 -0.2968
 7107TIP3    H121257   8.315   2.233   5.138 -2.0013  1.8622  0.5534
 7107TIP3    H221258   8.316   2.168   5.275  1.4597 -0.7617 -0.6274
 7108TIP3   OH221259   1.765   4.654   4.867 -0.3191 -0.5184 -0.3663
 7108TIP3    H121260   1.681   4.612   4.847 -1.1317  1.1368 -0.5499
 7108TIP3    H221261   1.830   4.601   4.822 -1.3680 -1.2301 -1.0657
 7109TIP3   OH221262   4.179   7.321   0.496  0.1374 -0.1784 -0.0359
 7109TIP3    H121263   4.247   7.281   0.551  0.7434 -0.3403 -0.8914
 7109TIP3    H221264   4.159   7.404   0.539 -1.3136 -1.4784  1.9122
 7110TIP3   OH221265   0.572   3.583   4.714  0.2833  1.0082  0.2711
 7110TIP3    H121266   0.610   3.651   4.770 -1.0735  3.2130 -1.3762
 7110TIP3    H221267   0.486   3.566   4.753  1.1331 -0.7473  1.4311
 7111TIP3   OH221268   0.525   4.162   3.979 -0.2382 -0.1757  0.2825
 7111TIP3    H121269   0.542   4.095   4.045  0.7258  1.8021  2.0760
 7111TIP3    H221270   0.602   4.159   3.922 -0.5479 -1.0931 -0.1000
 7112TIP3   OH221271   1.255   3.528   5.587  0.3473  0.2224 -0.3158
 7112TIP3    H121272   1.164   3.554   5.602  0.2966  0.1243 -0.4513
 7112TIP3    H221273   1.249   3.437   5.557  0.5370  0.0032  0.3216
 7113TIP3   OH221274   8.230   3.717   5.427 -0.2631 -0.3487  0.2936
 7113TIP3    H121275   8.247   3.746   5.516  0.5447  0.6513 -0.1715
 7113TIP3    H221276   8.158   3.655   5.435 -1.2187  0.8844  1.4660
 7114TIP3   OH221277   7.745   4.690   5.937 -0.0063 -0.5791  0.0079
 7114TIP3    H121278   7.743   4.746   5.859 -0.2163 -0.5881  0.0065
 7114TIP3    H221279   7.704   4.608   5.909 -1.6704  0.0283  0.5966
 7115TIP3   OH221280   1.100   5.919   0.064  0.2880  0.4238  0.1564
 7115TIP3    H121281   1.065   5.912   0.153  0.4292 -1.5965  0.0816
 7115TIP3    H221282   1.187   5.878   0.069 -0.0272 -0.4375 -1.0690
 7116TIP3   OH221283   2.236   4.604   3.851 -0.3962 -0.9581  0.2345
 7116TIP3    H121284   2.141   4.594   3.847 -0.6552  0.1697  2.8490
 7116TIP3    H221285   2.270   4.515   3.862 -1.2701 -1.1673  1.2726
 7117TIP3   OH221286   1.633   2.394   5.430 -0.2531  0.8386  0.3063
 7117TIP3    H121287   1.648   2.429   5.518  0.5551  1.8043 -0.2122
 7117TIP3    H221288   1.709   2.339   5.413  1.0146  2.8765 -0.8803
 7118TIP3   OH221289   0.375   5.263   5.462  0.3402 -0.2576  0.3249
 7118TIP3    H121290   0.471   5.263   5.462  0.3482 -1.3219  0.9601
 7118TIP3    H221291   0.351   5.170   5.457 -0.6603  0.0264 -0.3403
 7119TIP3   OH221292   0.137   4.234   5.831  0.1205  0.0524 -0.0707
 7119TIP3    H121293   0.134   4.282   5.913 -0.5165 -0.4599  0.2138
 7119TIP3    H221294   0.091   4.152   5.849  0.8219 -0.4911 -0.6604
 7120TIP3   OH221295   1.574   2.674   5.642  0.1406  0.0783  0.1557
 7120TIP3    H121296   1.580   2.709   5.552  0.6305 -1.4162 -0.3952
 7120TIP3    H221297   1.634   2.729   5.693 -0.1297  0.9308 -0.4209
 7121TIP3   OH221298   6.243   3.300   5.390  0.0084 -0.3523 -0.0765
 7121TIP3    H121299   6.206   3.299   5.301 -2.3856  1.0741  0.8596
 7121TIP3    H221300   6.235   3.210   5.420 -0.9960 -0.4470 -0.6028
 7122TIP3   OH221301   0.705   3.092   5.640  0.3289 -0.3653  0.1269
 7122TIP3    H121302   0.639   3.067   5.574  0.0724  0.7699 -0.0566
 7122TIP3    H221303   0.751   3.010   5.659  0.5338 -0.6789 -1.6127
 7123TIP3   OH221304   2.400   3.736   5.734 -0.2671  0.0547  0.6062
 7123TIP3    H121305   2.310   3.749   5.704 -0.5156  2.0601  2.1731
 7123TIP3    H221306   2.453   3.751   5.656 -1.2476 -0.7130 -0.2272
 7124TIP3   OH221307   1.942   2.766   3.000 -0.3114 -0.0194  0.6326
 7124TIP3    H121308   1.986   2.682   3.012  0.4829  0.3417  0.2798
 7124TIP3    H221309   1.999   2.815   2.941 -0.8720  0.6918  0.6730
 7125TIP3   OH221310   0.165   2.663   6.463  0.2847  0.7708 -0.3267
 7125TIP3    H121311   0.221   2.587   6.445 -1.5619 -0.5125 -0.8361
 7125TIP3    H221312   0.189   2.727   6.396  1.4330  0.4084 -0.2706
 7126TIP3   OH221313   8.120   4.337   5.332  0.0284 -0.4842 -0.3384
 7126TIP3    H121314   8.096   4.428   5.345  1.9078  0.0746 -0.6190
 7126TIP3    H221315   8.111   4.297   5.418 -0.6967 -0.0190 -0.1940
 7127TIP3   OH221316   0.801   4.631   3.764 -0.7394 -0.3822 -0.5968
 7127TIP3    H121317   0.847   4.616   3.682 -1.3565 -4.4950 -0.2883
 7127TIP3    H221318   0.858   4.593   3.831 -0.8459  1.7586  0.7367
 7128TIP3   OH221319   1.299   5.181   5.128  0.0512 -0.1951 -0.3385
 7128TIP3    H121320   1.214   5.199   5.167  0.4787 -0.8357  0.9389
 7128TIP3    H221321   1.347   5.263   5.137  0.4757 -0.5958  1.4222
 7129TIP3   OH221322   0.033   1.621   6.426  0.3701 -0.0701  0.1075
 7129TIP3    H121323   0.099   1.609   6.357 -0.1100  0.5111 -0.4647
 7129TIP3    H221324  -0.037   1.672   6.384  0.1001  0.3525  1.0469
 7130TIP3   OH221325   0.460   5.066   4.809  0.4372  0.5175 -0.0022
 7130TIP3    H121326   0.419   4.982   4.787  0.1254  1.2352 -2.2840
 7130TIP3    H221327   0.442   5.078   4.902 -1.5210 -0.8596 -0.1776
 7131TIP3   OH221328   1.206   2.890   5.233 -0.6616  0.1613 -0.1309
 7131TIP3    H121329   1.151   2.878   5.311 -1.8648  1.1937 -0.7972
 7131TIP3    H221330   1.164   2.836   5.166  1.0877 -1.7264  0.2397
 7132TIP3   OH221331   8.375   3.451   5.641  0.6077  0.1240 -0.0739
 7132TIP3    H121332   8.298   3.495   5.605  1.0227  0.2377 -0.8364
 7132TIP3    H221333   8.412   3.404   5.567  1.5791  0.5060  0.1610
 7133TIP3   OH221334   1.383   2.436   6.416  0.5087  0.2208  0.3133
 7133TIP3    H121335   1.450   2.504   6.410  2.4441 -1.5347  1.5676
 7133TIP3    H221336   1.365   2.429   6.510  0.9778 -1.6273  0.2693
 7134TIP3   OH221337   7.297   4.763   5.446 -0.1635 -0.0575 -0.2659
 7134TIP3    H121338   7.242   4.695   5.486 -0.4386 -0.7929 -1.8803
 7134TIP3    H221339   7.348   4.798   5.520 -2.4186  0.3074  1.1705
 7135TIP3   OH221340   7.888   4.314   5.609 -0.1137 -0.2835  0.1413
 7135TIP3    H121341   7.893   4.222   5.584  3.8368  0.1688 -0.9477
 7135TIP3    H221342   7.917   4.316   5.700 -2.5035 -0.3332  0.9615
 7136TIP3   OH221343   7.911   3.682   6.095 -0.0282  0.0447 -0.6074
 7136TIP3    H121344   7.916   3.617   6.025 -0.5802 -1.7204  0.9800
 7136TIP3    H221345   7.817   3.696   6.108  0.0691 -0.0206  0.1547
 7137TIP3   OH221346   7.026   5.005   5.626 -0.3666 -0.3413 -0.2611
 7137TIP3    H121347   7.017   5.017   5.721 -1.3422  0.3978 -0.4355
 7137TIP3    H221348   7.020   4.910   5.614 -0.4450 -0.4266  0.3971
 7138TIP3   OH221349   0.109   4.535   6.354 -0.4872 -0.3795 -0.3856
 7138TIP3    H121350   0.179   4.562   6.413 -0.6593 -0.0794 -0.3166
 7138TIP3    H221351   0.147   4.464   6.303 -0.0716 -0.0879 -0.4816
 7139TIP3   OH221352   0.125   2.174   5.130 -0.1342 -0.1714 -0.5402
 7139TIP3    H121353   0.103   2.182   5.038 -1.0530 -0.3305 -0.3374
 7139TIP3    H221354   0.041   2.172   5.175  0.3160  0.3338  0.3394
 7140TIP3   OH221355   5.899   2.692   6.299  0.0045  0.3238 -0.1015
 7140TIP3    H121356   5.867   2.767   6.350  1.0128 -0.1789  1.3164
 7140TIP3    H221357   5.891   2.617   6.359  3.2243  0.0682  0.0996
 7141TIP3   OH221358   0.459   2.857   5.202 -0.2658  0.0752  0.0072
 7141TIP3    H121359   0.501   2.851   5.116 -1.7298 -0.3986 -0.6752
 7141TIP3    H221360   0.514   2.919   5.250  0.1189  0.9469 -1.5224
 7142TIP3   OH221361   6.630   4.062   5.233 -0.0018  0.1419 -0.8167
 7142TIP3    H121362   6.627   3.967   5.221  1.1505  0.1613 -1.3460
 7142TIP3    H221363   6.541   4.091   5.214  0.0048 -0.6664 -2.1989
 7143TIP3   OH221364   2.682   2.421   5.043 -0.4209  0.1915  0.1537
 7143TIP3    H121365   2.599   2.450   5.004 -0.7011  0.5018  0.9710
 7143TIP3    H221366   2.658   2.348   5.100 -0.0493 -0.0943 -0.0569
 7144TIP3   OH221367   7.910   4.167   3.521  0.4081 -0.5347 -0.1113
 7144TIP3    H121368   7.938   4.230   3.587  1.4644 -1.3758  0.2543
 7144TIP3    H221369   7.817   4.186   3.507  0.0737 -0.5947  1.9038
 7145TIP3   OH221370   1.462   3.433   3.667 -0.3457 -0.1356 -0.5352
 7145TIP3    H121371   1.434   3.439   3.758 -0.0952  1.2371 -0.5321
 7145TIP3    H221372   1.388   3.395   3.621  0.2308 -2.6629  0.5457
 7146TIP3   OH221373   7.994   1.376   0.480  0.3695 -0.2637  0.1976
 7146TIP3    H121374   7.991   1.280   0.477 -0.6299 -0.2354 -0.1248
 7146TIP3    H221375   7.927   1.399   0.545  0.5868  0.2143  0.2475
 7147TIP3   OH221376   2.771   3.777   5.813 -0.0222 -0.0739  0.3198
 7147TIP3    H121377   2.804   3.865   5.796  0.5209 -0.0946  1.2559
 7147TIP3    H221378   2.804   3.725   5.739  0.4117  0.3167  0.2387
 7148TIP3   OH221379   8.338   2.084   4.480  0.1460  0.1541  0.1460
 7148TIP3    H121380   8.259   2.115   4.437 -0.3205  0.2212  1.0429
 7148TIP3    H221381   8.307   2.022   4.546  1.0039 -1.5446 -1.0011
 7149TIP3   OH221382   6.699   5.652   4.568 -0.0716 -0.1186 -0.1960
 7149TIP3    H121383   6.720   5.568   4.526 -1.3427  0.0711 -1.2177
 7149TIP3    H221384   6.781   5.678   4.610  0.1914 -2.1397  0.5938
 7150TIP3   OH221385   7.567   4.802   5.287  0.1290 -0.5282  0.4158
 7150TIP3    H121386   7.600   4.761   5.207  1.1598 -1.6556  1.4023
 7150TIP3    H221387   7.483   4.840   5.261  0.7220 -0.3532 -1.3411
 7151TIP3   OH221388   1.387   5.892   4.896  0.5712  0.0625  0.9774
 7151TIP3    H121389   1.352   5.806   4.872 -0.2000  0.4985  0.5022
 7151TIP3    H221390   1.474   5.895   4.857  0.0596  0.0295 -0.1804
 7152TIP3   OH221391   6.603   2.896   6.685  0.5973  0.0619  0.5915
 7152TIP3    H121392   6.524   2.937   6.720  0.3176  0.3887 -0.3788
 7152TIP3    H221393   6.571   2.826   6.628  0.9506  0.8361 -0.6019
 7153TIP3   OH221394   1.675   4.169   5.550  0.2088 -0.0464 -0.3388
 7153TIP3    H121395   1.727   4.112   5.607 -0.2945  0.9819  1.2082
 7153TIP3    H221396   1.718   4.165   5.465  0.6608 -2.0572 -0.0256
 7154TIP3   OH221397   2.885   2.979   4.543 -0.2803  0.1681 -0.3328
 7154TIP3    H121398   2.810   2.955   4.488 -0.3083  0.0057 -0.2235
 7154TIP3    H221399   2.870   3.071   4.564  1.4209  1.2048 -3.3126
 7155TIP3   OH221400   0.447   3.549   5.983  0.1596  0.1585  0.0094
 7155TIP3    H121401   0.425   3.611   6.053 -0.7862  0.1735 -0.3047
 7155TIP3    H221402   0.424   3.595   5.902  0.1669 -0.3195 -0.2627
 7156TIP3   OH221403   5.442   0.501   0.577  0.1483  0.3283  0.7376
 7156TIP3    H121404   5.526   0.543   0.560 -0.0474  0.8149  0.9605
 7156TIP3    H221405   5.377   0.570   0.560 -0.2572 -0.2835 -0.2506
 7157TIP3   OH221406   8.402   3.147   6.070  0.1727 -0.1974  0.5948
 7157TIP3    H121407   8.318   3.130   6.113  0.3177  1.4958  1.5867
 7157TIP3    H221408   8.383   3.215   6.006  0.5490 -0.6879 -0.0498
 7158TIP3   OH221409   1.819   3.221   4.175 -0.1236  0.1541  0.4841
 7158TIP3    H121410   1.842   3.199   4.265 -1.1266  0.5231  0.8436
 7158TIP3    H221411   1.900   3.255   4.136  0.4259 -0.4466  1.1053
 7159TIP3   OH221412   7.937   3.434   6.664  0.2631  0.8541  0.1433
 7159TIP3    H121413   7.847   3.404   6.679  0.7093 -1.3767 -1.4057
 7159TIP3    H221414   7.937   3.464   6.573  1.6858 -1.5250 -0.6693
 7160TIP3   OH221415   0.705   1.356   6.912  0.1370 -0.6199 -0.3514
 7160TIP3    H121416   0.708   1.266   6.945  1.9118 -1.3361 -2.3391
 7160TIP3    H221417   0.633   1.356   6.849  1.2087 -1.1363 -1.6069
 7161TIP3   OH221418   8.027   5.090   6.296 -0.3007  0.6279 -0.3833
 7161TIP3    H121419   7.981   5.170   6.269  0.5292  1.0991 -0.4169
 7161TIP3    H221420   8.039   5.040   6.214  0.8489  1.3480 -0.6754
 7162TIP3   OH221421   7.409   3.954   6.017  0.6050 -0.3711 -0.3246
 7162TIP3    H121422   7.356   3.946   6.097  0.4066 -3.5927 -0.7223
 7162TIP3    H221423   7.487   4.002   6.045  0.7462 -1.8496  1.9477
 7163TIP3   OH221424   7.995   2.429   4.936 -0.5475  0.2416  0.4014
 7163TIP3    H121425   8.053   2.502   4.956 -0.2364 -0.0649  0.6327
 7163TIP3    H221426   8.054   2.358   4.910 -0.5551 -1.0792  3.6380
 7164TIP3   OH221427   1.117   6.204   6.401  0.4285  0.1965 -0.3181
 7164TIP3    H121428   1.170   6.222   6.324 -0.4691  0.4731 -0.8743
 7164TIP3    H221429   1.028   6.230   6.377  0.0550 -0.1280  0.6517
 7165TIP3   OH221430   7.987   1.846   4.777 -0.4520 -0.5538 -0.0034
 7165TIP3    H121431   7.961   1.937   4.768 -1.8169 -0.6952  2.0843
 7165TIP3    H221432   7.909   1.802   4.810  0.5216 -2.2728  0.0898
 7166TIP3   OH221433   0.359   4.864   1.998  0.3290  0.0196  0.2759
 7166TIP3    H121434   0.322   4.781   1.970  2.0009 -0.8945  0.6981
 7166TIP3    H221435   0.358   4.861   2.094  4.0688 -1.2967  0.3768
 7167TIP3   OH221436   0.531   2.678   5.908 -0.7234 -0.2206 -0.3757
 7167TIP3    H121437   0.491   2.760   5.935  2.8445  1.3263  0.4808
 7167TIP3    H221438   0.476   2.610   5.949 -2.1726  1.7851  1.1024
 7168TIP3   OH221439   7.506   3.624   4.292  0.3224  0.1361 -0.2311
 7168TIP3    H121440   7.466   3.606   4.377  0.5052 -0.8989 -0.3586
 7168TIP3    H221441   7.478   3.551   4.237 -0.2458  1.0771 -1.2206
 7169TIP3   OH221442   1.661   3.778   5.643  0.3746  0.2930 -0.4568
 7169TIP3    H121443   1.632   3.690   5.619  0.3107 -0.0256  0.7733
 7169TIP3    H221444   1.593   3.810   5.702  1.5944  0.2437  1.0117
 7170TIP3   OH221445   0.716   5.023   6.160  0.5881  0.2708 -0.2701
 7170TIP3    H121446   0.671   5.073   6.092  0.3278 -0.1008 -0.3767
 7170TIP3    H221447   0.721   4.934   6.124  0.4013  0.0619  0.2167
 7171TIP3   OH221448   3.535   4.922   4.383  0.0242  0.1199  0.0125
 7171TIP3    H121449   3.548   5.015   4.402  0.3572  0.1570 -0.4018
 7171TIP3    H221450   3.538   4.879   4.469 -0.0100  0.4764  0.1908
 7172TIP3   OH221451   2.190   4.034   6.771 -0.7710 -0.2605  0.2164
 7172TIP3    H121452   2.122   3.987   6.723 -1.1031  1.2394 -0.8194
 7172TIP3    H221453   2.161   4.031   6.862 -1.3549 -1.1010  0.0087
 7173TIP3   OH221454   8.400   4.917   5.661  0.2486  0.0970  0.0070
 7173TIP3    H121455   8.494   4.929   5.675  0.5318 -0.1743 -1.5203
 7173TIP3    H221456   8.358   4.976   5.723  1.4484  0.6763  0.2736
 7174TIP3   OH221457   6.580   2.698   6.501  0.2077 -0.6313 -0.0930
 7174TIP3    H121458   6.552   2.758   6.432 -0.0695 -0.8056 -0.1320
 7174TIP3    H221459   6.551   2.612   6.472  1.4216 -0.9136 -0.4722
 7175TIP3   OH221460   1.747   2.176   5.287  0.5598 -0.7830 -0.2406
 7175TIP3    H121461   1.687   2.199   5.216 -1.5390  0.9092  2.0046
 7175TIP3    H221462   1.694   2.124   5.347  1.5562  0.0458  1.3833
 7176TIP3   OH221463   0.131   4.115   4.700  0.8571  0.5081 -0.3518
 7176TIP3    H121464   0.139   4.165   4.781 -0.6308 -1.7402  1.2541
 7176TIP3    H221465   0.040   4.128   4.673  0.2552 -1.8446  0.4690
 7177TIP3   OH221466   0.098   4.489   5.070 -0.0810  0.2585 -0.3892
 7177TIP3    H121467   0.182   4.510   5.109 -0.1699 -0.3981  0.1797
 7177TIP3    H221468   0.035   4.495   5.142  0.1021 -3.3243  0.1905
 7178TIP3   OH221469   0.586   4.113   5.284 -0.2988 -0.5823  0.5066
 7178TIP3    H121470   0.640   4.164   5.224  1.8589 -2.7399  0.5741
 7178TIP3    H221471   0.591   4.161   5.367  1.2521 -0.5778  0.4211
 7179TIP3   OH221472   3.846   6.515   1.097  0.5203  0.2420  0.0361
 7179TIP3    H121473   3.829   6.553   1.010 -1.5529  2.3270  1.3099
 7179TIP3    H221474   3.925   6.560   1.127  0.8315  0.0331 -0.4532
 7180TIP3   OH221475   1.674   3.869   4.512 -0.1033 -0.7653 -0.0154
 7180TIP3    H121476   1.761   3.832   4.503 -0.3749 -1.4304  0.1014
 7180TIP3    H221477   1.645   3.843   4.599  0.4670  1.3413  0.8288
 7181TIP3   OH221478   7.872   3.190   5.164  0.2719  0.1699 -0.1294
 7181TIP3    H121479   7.800   3.219   5.109  0.6341  0.6756 -0.3446
 7181TIP3    H221480   7.831   3.135   5.231 -0.7296  2.8949  1.5783
 7182TIP3   OH221481   0.450   4.443   2.225  0.7089 -0.2701 -0.2083
 7182TIP3    H121482   0.370   4.496   2.222  0.1323 -1.2365 -2.7630
 7182TIP3    H221483   0.461   4.423   2.318 -1.7556  0.2869  0.2451
 7183TIP3   OH221484   3.649   4.591   5.887 -0.7006 -0.3846  0.3932
 7183TIP3    H121485   3.643   4.616   5.795  0.9571 -1.1628  0.0542
 7183TIP3    H221486   3.623   4.499   5.889 -1.0079 -0.2926  0.7416
 7184TIP3   OH221487   0.306   7.787   5.711  0.3189  0.2874 -0.0753
 7184TIP3    H121488   0.375   7.722   5.701  0.4535  0.6370 -1.6999
 7184TIP3    H221489   0.239   7.761   5.647  0.3390  1.6857 -0.6934
 7185TIP3   OH221490   0.466   5.461   4.548 -0.2373  0.1503 -0.0907
 7185TIP3    H121491   0.462   5.517   4.625 -0.8444 -0.7619  0.5475
 7185TIP3    H221492   0.516   5.384   4.576 -2.5923 -1.3450  0.1703
 7186TIP3   OH221493   2.971   2.349   4.476 -0.6771  0.0255  0.5121
 7186TIP3    H121494   2.933   2.415   4.533  3.2471  0.9231  2.2643
 7186TIP3    H221495   3.054   2.386   4.448 -1.6959 -1.1354 -4.5122
 7187TIP3   OH221496   1.766   5.551   4.535  0.1778 -0.3580 -0.4650
 7187TIP3    H121497   1.810   5.532   4.619  0.5079  0.2843 -0.4803
 7187TIP3    H221498   1.718   5.472   4.514  0.7720 -0.8260 -0.0813
 7188TIP3   OH221499   1.164   3.066   5.933  0.5213  0.1018  0.1326
 7188TIP3    H121500   1.115   3.024   6.003 -0.9724  0.9788 -0.3503
 7188TIP3    H221501   1.196   2.994   5.879 -0.3120 -0.4814  0.4117
 7189TIP3   OH221502   6.288   5.288   5.688  0.0291 -0.0591 -0.1645
 7189TIP3    H121503   6.358   5.244   5.737 -0.5233 -2.8308 -1.7218
 7189TIP3    H221504   6.334   5.342   5.624  0.7622 -0.2849  0.1680
 7190TIP3   OH221505   0.029   3.974   6.731 -0.1160  0.0432 -0.0601
 7190TIP3    H121506   0.065   3.887   6.712 -1.4588 -0.9798  1.7950
 7190TIP3    H221507   0.062   3.994   6.818 -1.7173  0.3190  0.5015
 7191TIP3   OH221508   7.213   4.453   6.717  0.2527  0.1483  0.3684
 7191TIP3    H121509   7.263   4.528   6.750  0.3313 -0.4171  1.5559
 7191TIP3    H221510   7.191   4.477   6.627  1.6704  0.9027  0.2054
 7192TIP3   OH221511   1.905   4.158   5.916 -0.1880  0.2632 -0.0322
 7192TIP3    H121512   1.884   4.065   5.905 -0.7076  0.3494  0.2188
 7192TIP3    H221513   1.999   4.159   5.934  0.1997 -0.0740 -1.9479
 7193TIP3   OH221514   7.318   4.768   2.363  0.5187 -0.1828 -0.0365
 7193TIP3    H121515   7.269   4.747   2.443  0.7788 -0.1196  0.1411
 7193TIP3    H221516   7.397   4.714   2.369  0.0363 -0.9745 -0.7752
 7194TIP3   OH221517   1.554   3.994   6.065  0.4161 -0.1175 -0.0499
 7194TIP3    H121518   1.481   3.939   6.093 -1.6642  1.9890 -1.1056
 7194TIP3    H221519   1.572   3.966   5.976 -0.9530  1.1781 -0.7526
 7195TIP3   OH221520   0.682   2.419   3.034 -0.2182 -0.5778 -0.2585
 7195TIP3    H121521   0.701   2.335   2.991 -2.6707 -0.2770 -2.0671
 7195TIP3    H221522   0.652   2.476   2.963 -2.0460  0.7165  1.4998
 7196TIP3   OH221523   7.226   3.475   5.785  0.0654 -0.1878  0.2816
 7196TIP3    H121524   7.184   3.560   5.772 -1.2468 -0.9274 -0.4937
 7196TIP3    H221525   7.171   3.414   5.735  1.3313 -1.3917  0.3410
 7197TIP3   OH221526   0.909   5.128   2.661  0.5518  0.0574 -0.4124
 7197TIP3    H121527   0.990   5.168   2.694 -0.2772  0.6239  0.9977
 7197TIP3    H221528   0.854   5.202   2.637 -0.2615 -0.2644  0.4224
 7198TIP3   OH221529   7.593   6.312   4.987  0.4461 -0.0707  0.4697
 7198TIP3    H121530   7.528   6.247   4.962 -0.4862  1.1427 -0.3267
 7198TIP3    H221531   7.673   6.284   4.941 -0.1684 -0.1837 -0.5421
 7199TIP3   OH221532   6.140   1.294   0.968  0.1555  0.0938  0.4367
 7199TIP3    H121533   6.236   1.298   0.972  0.1743 -0.8301  1.4786
 7199TIP3    H221534   6.122   1.238   0.893  0.4042  1.2950 -0.5156
 7200TIP3   OH221535   8.058   3.894   3.564 -0.3601  0.0112 -0.7013
 7200TIP3    H121536   8.034   3.967   3.621 -1.3121 -0.6709 -0.2259
 7200TIP3    H221537   8.036   3.815   3.614  1.2776 -0.6209 -0.9354
 7201TIP3   OH221538   1.132   6.419   3.686  0.4917  0.2003 -0.0213
 7201TIP3    H121539   1.136   6.497   3.741 -2.1252  1.2207 -1.1951
 7201TIP3    H221540   1.164   6.447   3.601 -0.5561  0.0654 -0.4772
 7202TIP3   OH221541   6.012   3.578   6.612 -0.0404 -0.3717  0.1915
 7202TIP3    H121542   6.084   3.560   6.672  0.1598 -0.2426 -0.0115
 7202TIP3    H221543   6.040   3.540   6.529  1.4746  3.0274 -0.9099
 7203TIP3   OH221544   6.746   3.923   5.646  0.2055  0.6824  0.4736
 7203TIP3    H121545   6.758   4.004   5.598 -0.3289 -1.4031 -3.4109
 7203TIP3    H221546   6.828   3.910   5.694  2.3439  0.9777 -2.9506
 7204TIP3   OH221547   0.103   4.340   4.843  0.0334 -0.1600 -0.1137
 7204TIP3    H121548   0.107   4.383   4.928 -1.5013  1.0394 -0.6185
 7204TIP3    H221549   0.184   4.364   4.800 -0.3612  1.4299  0.0045
 7205TIP3   OH221550   0.114   5.303   5.617 -0.2107  0.4412 -0.2518
 7205TIP3    H121551   0.098   5.368   5.685 -0.0614  0.8391 -0.5975
 7205TIP3    H221552   0.206   5.316   5.592 -0.2329  0.2222 -0.4556
 7206TIP3   OH221553   1.717   4.707   3.190  0.0554 -0.1843 -0.1709
 7206TIP3    H121554   1.724   4.778   3.254 -0.3462 -1.9065  1.8385
 7206TIP3    H221555   1.673   4.636   3.237 -0.6631 -1.3552 -2.5027
 7207TIP3   OH221556   1.117   6.367   5.854  0.1783 -0.0082  0.5550
 7207TIP3    H121557   1.097   6.283   5.813 -1.1653  0.1370  0.9040
 7207TIP3    H221558   1.054   6.428   5.816 -0.1627  0.4182  1.7861
 7208TIP3   OH221559   2.359   2.671   2.421 -0.4918 -0.9638 -0.1401
 7208TIP3    H121560   2.273   2.712   2.414 -0.3011 -0.3081  1.1034
 7208TIP3    H221561   2.417   2.742   2.448  0.0579 -1.8189  0.9651
 7209TIP3   OH221562   8.094   3.177   3.804 -0.3321  0.1991 -0.3111
 7209TIP3    H121563   8.052   3.152   3.886  0.1041  1.1076  0.1929
 7209TIP3    H221564   8.035   3.146   3.736 -0.6457 -0.6418  0.3463
 7210TIP3   OH221565   6.816   4.679   5.222 -0.0359  0.3298 -0.1678
 7210TIP3    H121566   6.806   4.585   5.207  0.9091  0.3643 -1.0858
 7210TIP3    H221567   6.847   4.685   5.313  0.3331 -0.2739 -0.2498
 7211TIP3   OH221568   1.296   4.231   4.348  0.4277  0.2355  0.3285
 7211TIP3    H121569   1.249   4.242   4.266 -1.4285 -0.9465  1.2055
 7211TIP3    H221570   1.280   4.140   4.373  1.2363  0.4894  1.8316
 7212TIP3   OH221571   8.363   2.172   6.138  0.3780  0.2790  0.2113
 7212TIP3    H121572   8.408   2.150   6.219  2.1343  0.3712 -0.7104
 7212TIP3    H221573   8.275   2.138   6.149  1.4501 -2.3466  0.9874
 7213TIP3   OH221574   1.444   1.612   5.554 -0.3028  0.4537  0.4636
 7213TIP3    H121575   1.456   1.581   5.465 -0.8259  0.8351  0.2583
 7213TIP3    H221576   1.410   1.701   5.544  0.9429  1.0225  1.0371
 7214TIP3   OH221577   1.170   6.334   4.949 -0.1905 -0.6691  0.1642
 7214TIP3    H121578   1.126   6.365   5.028  0.4982  0.4076  0.1467
 7214TIP3    H221579   1.183   6.241   4.964 -0.7142 -0.6136  1.0179
 7215TIP3   OH221580   0.176   3.779   4.304  0.0869 -0.0836 -0.1280
 7215TIP3    H121581   0.162   3.735   4.220 -0.8625 -0.9712  0.4777
 7215TIP3    H221582   0.271   3.787   4.312  0.3268 -2.5853 -0.0005
 7216TIP3   OH221583   1.289   7.162   5.889  0.8197  0.4138  0.3117
 7216TIP3    H121584   1.288   7.254   5.860 -2.5166  0.9441  1.8371
 7216TIP3    H221585   1.302   7.112   5.809  0.6099  2.1726 -0.8551
 7217TIP3   OH221586   1.045   1.960   3.947 -0.4832 -0.0753 -0.3712
 7217TIP3    H121587   0.994   1.879   3.947 -0.5476 -0.0349 -0.2717
 7217TIP3    H221588   1.050   1.984   4.039 -0.0037 -0.2547 -0.3508
 7218TIP3   OH221589   1.025   5.607   6.744  0.2653  0.2378 -0.4020
 7218TIP3    H121590   0.974   5.610   6.825 -0.8532 -1.0427 -1.0409
 7218TIP3    H221591   1.078   5.527   6.752 -0.9973 -0.7414 -1.5961
 7219TIP3   OH221592   0.708   4.006   4.285  0.1385 -0.4622  0.2346
 7219TIP3    H121593   0.756   3.926   4.309  1.1594 -0.0700 -0.4650
 7219TIP3    H221594   0.775   4.064   4.248 -0.7108  0.4737  0.1451
 7220TIP3   OH221595   1.269   6.055   4.290  0.1691  0.5312  0.5202
 7220TIP3    H121596   1.342   6.020   4.238 -1.0102 -0.9786 -0.1709
 7220TIP3    H221597   1.257   6.144   4.258  1.2626  0.5628  0.1608
 7221TIP3   OH221598   0.628   4.861   4.398 -0.0886  0.0049 -0.2731
 7221TIP3    H121599   0.610   4.850   4.491 -0.2304 -0.5051 -0.3567
 7221TIP3    H221600   0.575   4.936   4.371  1.5247  1.4493  0.4984
 7222TIP3   OH221601   0.721   3.193   5.052 -0.1972  0.4635 -0.3673
 7222TIP3    H121602   0.691   3.164   4.966 -0.1660  0.6601 -0.4439
 7222TIP3    H221603   0.640   3.204   5.103 -0.2020  0.1240 -0.3014
 7223TIP3   OH221604   1.243   3.446   4.893 -0.1610  0.3514 -0.3150
 7223TIP3    H121605   1.244   3.541   4.900 -0.7575  0.3459 -0.1121
 7223TIP3    H221606   1.165   3.426   4.841 -0.4480 -0.0576  0.2607
 7224TIP3   OH221607   0.101   5.665   4.003  0.3381  0.0462 -0.3422
 7224TIP3    H121608   0.123   5.730   4.070 -1.7884  1.0892 -0.5739
 7224TIP3    H221609   0.184   5.641   3.964  1.5913 -0.3664  2.4712
 7225TIP3   OH221610   5.696   1.725   0.293 -0.2764  0.1495  0.5153
 7225TIP3    H121611   5.761   1.794   0.305 -0.8573  0.9488 -0.7056
 7225TIP3    H221612   5.612   1.767   0.313 -0.5489 -0.4685  0.6930
 7226TIP3   OH221613   0.793   1.619   4.754  0.0757 -0.1015  0.6869
 7226TIP3    H121614   0.800   1.561   4.829  1.3087 -0.8177  0.0353
 7226TIP3    H221615   0.878   1.612   4.710  0.2138  2.1168  0.5476
 7227TIP3   OH221616   0.267   5.784   6.860 -0.2434  0.0126  0.4504
 7227TIP3    H121617   0.341   5.767   6.802 -0.0735 -0.9644  0.9460
 7227TIP3    H221618   0.288   5.736   6.940 -1.1746  0.1539  0.7808
 7228TIP3   OH221619   8.357   4.097   4.657  0.2163 -0.3651  0.6563
 7228TIP3    H121620   8.341   4.013   4.702  0.2791 -1.1033 -0.6770
 7228TIP3    H221621   8.321   4.084   4.569  1.9436  0.3614 -0.1709
 7229TIP3   OH221622   4.284   7.405   3.012 -0.2191 -0.0459 -0.4016
 7229TIP3    H121623   4.320   7.416   2.924  1.7297 -1.4711  0.2126
 7229TIP3    H221624   4.202   7.358   2.998 -0.3690  0.5184 -1.5206
 7230TIP3   OH221625   8.412   3.515   5.021  0.1499 -0.2124 -0.2670
 7230TIP3    H121626   8.435   3.582   4.957  2.2136 -0.6901 -0.0377
 7230TIP3    H221627   8.367   3.448   4.970 -0.8741  0.7783 -0.6918
 7231TIP3   OH221628   2.597   5.643   6.535  0.8058 -0.4592 -0.4024
 7231TIP3    H121629   2.649   5.690   6.600  0.2242 -0.8345  0.3301
 7231TIP3    H221630   2.542   5.584   6.585 -0.4733  0.0641 -1.1600
 7232TIP3   OH221631   0.250   5.291   5.980 -0.3559  0.5684  0.5993
 7232TIP3    H121632   0.297   5.244   5.911  0.0228  0.4891  0.9053
 7232TIP3    H221633   0.302   5.274   6.059  0.3505  2.3451  0.5421
 7233TIP3   OH221634   2.454   4.150   5.345 -0.7124 -0.6795  0.1158
 7233TIP3    H121635   2.451   4.245   5.338  2.4610 -0.5784 -0.4414
 7233TIP3    H221636   2.476   4.119   5.257  1.2234 -1.7219  0.9330
 7234TIP3   OH221637   1.929   6.496   5.955 -0.1186  0.0848 -0.6453
 7234TIP3    H121638   1.928   6.402   5.970 -0.8322  0.1688 -0.1359
 7234TIP3    H221639   1.949   6.505   5.862  0.8203 -0.5398 -0.5083
 7235TIP3   OH221640   7.992   4.618   6.425 -0.1525  0.6132 -0.0788
 7235TIP3    H121641   8.075   4.580   6.455  0.1975  1.8011  0.4983
 7235TIP3    H221642   7.961   4.669   6.499 -1.4293  0.1593 -0.2827
 7236TIP3   OH221643   1.331   4.559   5.834  0.3616  0.4262  0.2310
 7236TIP3    H121644   1.395   4.492   5.856 -1.7650 -1.0272  2.1623
 7236TIP3    H221645   1.354   4.634   5.889  0.5412 -0.0020  0.7350
 7237TIP3   OH221646   2.644   3.244   6.897  0.0529 -0.4679  0.3268
 7237TIP3    H121647   2.549   3.233   6.903 -0.1784  0.4912 -1.2409
 7237TIP3    H221648   2.673   3.172   6.841  0.3103 -1.0042  1.1456
 7238TIP3   OH221649   0.892   2.850   3.639  0.7510  0.1906 -0.2862
 7238TIP3    H121650   0.862   2.928   3.686 -0.3222  0.4394 -1.3651
 7238TIP3    H221651   0.963   2.816   3.693 -0.5282  0.4065  1.5766
 7239TIP3   OH221652   8.359   4.398   4.708 -0.4811  0.6366  0.0492
 7239TIP3    H121653   8.443   4.391   4.754 -0.0627  0.6592 -0.7198
 7239TIP3    H221654   8.340   4.308   4.680 -1.0034  0.5273  0.7221
 7240TIP3   OH221655   0.350   4.650   5.096  0.6884 -0.9769  0.4566
 7240TIP3    H121656   0.292   4.718   5.131  1.0670 -0.8128  0.7642
 7240TIP3    H221657   0.437   4.674   5.128  0.7583 -1.8535  0.9188
 7241TIP3   OH221658   2.677   6.516   6.927 -0.0295  0.0022 -0.1111
 7241TIP3    H121659   2.631   6.529   6.844 -0.1147 -0.0757 -0.0773
 7241TIP3    H221660   2.717   6.429   6.919  0.4773  0.2523 -0.3109
 7242TIP3   OH221661   8.033   7.012   4.225  0.9592 -0.4336  0.4551
 7242TIP3    H121662   8.114   7.053   4.194  0.9774  0.7759  2.0546
 7242TIP3    H221663   8.060   6.924   4.252  1.3855 -0.6733 -0.7148
 7243TIP3   OH221664   1.873   5.262   4.687  0.0296  0.3557  0.5212
 7243TIP3    H121665   1.948   5.274   4.628  0.6262 -1.5930  0.8502
 7243TIP3    H221666   1.816   5.201   4.640 -0.1370 -0.1352  1.3572
 7244TIP3   OH221667   2.301   4.694   5.155 -0.3962  0.0852 -0.0821
 7244TIP3    H121668   2.363   4.622   5.152 -2.1222 -1.4632  0.1600
 7244TIP3    H221669   2.353   4.771   5.179  1.5746 -0.9408 -1.0064
 7245TIP3   OH221670   1.882   5.413   5.672  0.8136  0.0466 -0.4455
 7245TIP3    H121671   1.869   5.337   5.616 -0.4800  0.0638 -0.2059
 7245TIP3    H221672   1.901   5.377   5.758  2.8934  0.0200 -0.8955
 7246TIP3   OH221673   0.176   4.719   3.690  0.0728  0.1760 -0.5041
 7246TIP3    H121674   0.082   4.733   3.699  0.2210  1.4979 -0.8355
 7246TIP3    H221675   0.192   4.725   3.596  0.6784  1.3620 -0.3386
 7247TIP3   OH221676   1.464   3.385   4.773  0.2956 -0.0110  0.8407
 7247TIP3    H121677   1.506   3.335   4.842 -0.2235 -0.9608  0.4698
 7247TIP3    H221678   1.373   3.395   4.802  0.3606  0.5871  0.8451
 7248TIP3   OH221679   1.467   4.466   3.919 -0.0139 -0.5393  0.0200
 7248TIP3    H121680   1.477   4.371   3.911 -0.2288 -0.4068 -2.3006
 7248TIP3    H221681   1.553   4.496   3.949  0.6585 -1.3127 -1.0467
 7249TIP3   OH221682   2.729   5.636   4.738 -0.0761 -0.1771 -0.2591
 7249TIP3    H121683   2.800   5.632   4.673  0.0871 -0.4046 -0.0628
 7249TIP3    H221684   2.770   5.674   4.816  0.2009 -1.7466  0.3670
 7250TIP3   OH221685   2.647   5.148   3.447  0.0374 -0.6480  0.1114
 7250TIP3    H121686   2.614   5.149   3.537  1.0021 -2.3932  0.5238
 7250TIP3    H221687   2.598   5.216   3.402 -1.1291 -0.3923  1.7273
 7251TIP3   OH221688   0.170   5.027   5.689  0.0573  0.1890  0.0575
 7251TIP3    H121689   0.154   5.121   5.699  0.8964  0.3524 -0.1098
 7251TIP3    H221690   0.171   5.012   5.594 -0.4057 -0.0477  0.0892
 7252TIP3   OH221691   0.588   5.237   4.629  0.6089  0.5918 -0.0316
 7252TIP3    H121692   0.659   5.180   4.600  1.6904  1.8022  0.2106
 7252TIP3    H221693   0.549   5.190   4.704  1.1796 -0.0471 -0.1339
 7253TIP3   OH221694   5.700   7.456   0.681  0.1462 -0.7692  0.1832
 7253TIP3    H121695   5.655   7.476   0.763  0.5589  0.3059  0.1597
 7253TIP3    H221696   5.639   7.482   0.612  1.3467  2.0689  0.1443
 7254TIP3   OH221697   2.511   5.881   5.201 -0.2391 -0.4853 -0.1466
 7254TIP3    H121698   2.429   5.839   5.227 -0.3775  0.3244  0.7241
 7254TIP3    H221699   2.561   5.890   5.282 -0.4831  1.6149 -0.2037
 7255TIP3   OH221700   2.641   3.627   1.415  0.0347 -0.5546  0.4293
 7255TIP3    H121701   2.609   3.537   1.414 -0.5126 -0.3783  1.4926
 7255TIP3    H221702   2.689   3.636   1.333 -2.8986 -0.7435 -1.3825
 7256TIP3   OH221703   0.321   4.066   4.513  0.2099 -0.1837  0.4667
 7256TIP3    H121704   0.281   4.096   4.595 -0.6988  1.3109 -0.4879
 7256TIP3    H221705   0.247   4.038   4.459  0.8009 -1.1363  0.1510
 7257TIP3   OH221706   3.014   3.321   6.275 -0.1720  0.3905 -0.1471
 7257TIP3    H121707   3.077   3.267   6.229  0.0172 -0.1519  0.7307
 7257TIP3    H221708   2.945   3.261   6.301  0.3293  0.4422  1.3577
 7258TIP3   OH221709   1.086   5.486   4.989 -0.0662  0.0182 -0.8221
 7258TIP3    H121710   1.164   5.467   5.042 -0.7546 -0.6883 -0.0326
 7258TIP3    H221711   1.108   5.455   4.902  0.3880 -0.5555 -0.5080
 7259TIP3   OH221712   0.256   4.708   6.948  0.1752 -0.5127  0.4511
 7259TIP3    H121713   0.161   4.698   6.936  0.4473 -2.8482 -0.0568
 7259TIP3    H221714   0.293   4.630   6.906  2.3318  0.4494  0.5300
 7260TIP3   OH221715   3.850   4.056   6.079 -0.0992 -0.1935  0.1466
 7260TIP3    H121716   3.852   4.025   6.169  1.8887 -0.5205  0.0005
 7260TIP3    H221717   3.870   3.979   6.026 -2.4686 -0.2942 -0.6748
 7261TIP3   OH221718   1.604   4.499   6.233 -0.2679  0.8874  0.2292
 7261TIP3    H121719   1.578   4.475   6.144  1.4197  1.7349 -0.5258
 7261TIP3    H221720   1.669   4.433   6.258 -0.7784  0.6228  0.8392
 7262TIP3   OH221721   1.140   6.250   4.697  0.0588  0.1759  0.1971
 7262TIP3    H121722   1.135   6.277   4.788 -1.2028 -1.7651  0.7351
 7262TIP3    H221723   1.049   6.231   4.673  0.4199  0.3341 -1.3515
 7263TIP3   OH221724   0.897   2.888   5.021  0.7945 -0.2872 -0.3411
 7263TIP3    H121725   0.806   2.905   4.997  1.0309  0.1971 -0.8911
 7263TIP3    H221726   0.892   2.815   5.083  0.0851 -0.7932 -0.9759
 7264TIP3   OH221727   0.207   2.592   3.092  1.2327 -0.2339  0.1966
 7264TIP3    H121728   0.116   2.578   3.120  0.9977 -0.0079 -0.4378
 7264TIP3    H221729   0.246   2.643   3.163  1.2605 -1.5305  1.1145
 7265TIP3   OH221730   8.160   1.473   5.585 -0.0234  0.1200 -0.3123
 7265TIP3    H121731   8.197   1.392   5.550 -0.7534 -1.0232  1.5182
 7265TIP3    H221732   8.167   1.536   5.513  3.4532 -0.6714 -0.7406
 7266TIP3   OH221733   0.119   5.466   5.830  0.2246 -0.5833 -0.1003
 7266TIP3    H121734   0.032   5.459   5.870 -0.5429 -0.4101 -1.6784
 7266TIP3    H221735   0.170   5.397   5.872 -0.4017 -0.1004  1.5093
 7267TIP3   OH221736   8.252   3.752   3.341  0.9373 -0.1939 -0.6575
 7267TIP3    H121737   8.337   3.795   3.338  0.3004  1.1694  0.1920
 7267TIP3    H221738   8.198   3.810   3.394 -0.8769 -0.4353 -2.2035
 7268TIP3   OH221739   1.310   6.843   5.160  0.4523  0.4462  0.3824
 7268TIP3    H121740   1.292   6.901   5.086 -0.9663 -1.0178 -0.4684
 7268TIP3    H221741   1.365   6.774   5.122  1.3490  0.7273  1.1615
 7269TIP3   OH221742   2.306   2.848   5.485  0.2453 -0.2087 -0.0372
 7269TIP3    H121743   2.332   2.811   5.570 -0.7567 -0.6673  0.0817
 7269TIP3    H221744   2.346   2.935   5.483 -0.8398  0.3475  1.4889
 7270TIP3   OH221745   4.337   6.209   6.715  0.1100  0.0300  0.1995
 7270TIP3    H121746   4.401   6.266   6.673 -0.5987  1.0590  0.5129
 7270TIP3    H221747   4.387   6.163   6.783  1.2538 -1.5841 -1.6619
 7271TIP3   OH221748   7.764   2.603   6.282  0.0193  0.2597  1.2642
 7271TIP3    H121749   7.825   2.646   6.222  1.0243 -2.6416  0.1324
 7271TIP3    H221750   7.678   2.612   6.240  0.1542  1.4181  1.2167
 7272TIP3   OH221751   6.587   4.619   2.979 -0.0982 -0.0558 -0.2212
 7272TIP3    H121752   6.517   4.592   3.038  0.1373  1.4019  0.7567
 7272TIP3    H221753   6.643   4.542   2.970 -0.4527 -0.4575  1.0037
 7273TIP3   OH221754   2.329   6.580   6.148 -0.3800 -0.4062 -0.0527
 7273TIP3    H121755   2.401   6.520   6.164 -1.7979 -2.0727  0.2425
 7273TIP3    H221756   2.250   6.526   6.155 -1.7020  1.4950  0.3267
 7274TIP3   OH221757   1.336   4.081   5.543 -0.1841  0.1653  0.1595
 7274TIP3    H121758   1.319   4.111   5.454 -0.0841 -2.2150 -0.7052
 7274TIP3    H221759   1.426   4.107   5.560  0.6169 -1.4172 -1.3761
 7275TIP3   OH221760   8.342   5.542   5.155 -0.1542  0.2697  0.5661
 7275TIP3    H121761   8.290   5.585   5.087  1.4896 -2.2417 -2.4573
 7275TIP3    H221762   8.289   5.468   5.183 -0.1082  0.2999  0.7329
 7276TIP3   OH221763   1.735   5.173   5.551 -0.4094 -0.4078 -0.0506
 7276TIP3    H121764   1.825   5.178   5.520  0.6775 -0.0329  3.0410
 7276TIP3    H221765   1.720   5.080   5.565 -0.6482 -0.5024 -0.8729
 7277TIP3   OH221766   0.681   5.354   6.638  0.3331  0.1790  0.0834
 7277TIP3    H121767   0.662   5.300   6.562  1.5919  1.6633 -1.3176
 7277TIP3    H221768   0.668   5.296   6.713 -0.3292 -1.4632 -1.2867
 7278TIP3   OH221769   1.211   2.438   5.627 -0.4334  0.5403 -0.0442
 7278TIP3    H121770   1.252   2.480   5.551 -0.8338  1.2648  0.1435
 7278TIP3    H221771   1.129   2.403   5.594 -0.6151  0.8698  0.0607
 7279TIP3   OH221772   0.954   4.871   5.207 -0.0300 -0.1055 -0.1939
 7279TIP3    H121773   0.989   4.801   5.152  1.3327 -0.2462  0.8384
 7279TIP3    H221774   0.966   4.840   5.296 -2.6154 -0.0652  0.2290
 7280TIP3   OH221775   0.247   4.006   5.294  0.3582 -0.2768  0.1904
 7280TIP3    H121776   0.333   3.982   5.259 -0.7696 -0.6310 -2.4842
 7280TIP3    H221777   0.185   3.956   5.241 -1.5494  0.5884  1.5430
 7281TIP3   OH221778   7.423   5.022   4.164  0.3326  0.0066  0.4713
 7281TIP3    H121779   7.433   5.083   4.237 -0.3336  0.1769  0.4169
 7281TIP3    H221780   7.329   5.016   4.150  0.4504 -0.1504 -0.2700
 7282TIP3   OH221781   8.013   1.763   6.413 -0.2881 -0.1826  0.3885
 7282TIP3    H121782   8.013   1.781   6.507  0.8690 -1.4047  0.6294
 7282TIP3    H221783   7.927   1.792   6.384  0.3898  2.9551  1.2808
 7283TIP3   OH221784   2.258   2.303   2.582  0.0080 -0.6378  0.7039
 7283TIP3    H121785   2.194   2.242   2.546  0.5800 -1.2229  0.6650
 7283TIP3    H221786   2.211   2.386   2.590 -0.3053 -0.6443 -0.8238
 7284TIP3   OH221787   1.974   2.917   3.861 -0.0121 -0.3540 -0.0109
 7284TIP3    H121788   2.049   2.964   3.826 -1.2396  2.4638  0.9769
 7284TIP3    H221789   1.990   2.913   3.956 -1.2588  0.6241  0.2565
 7285TIP3   OH221790   1.364   2.259   6.198  0.3105 -0.5079 -0.0867
 7285TIP3    H121791   1.373   2.323   6.269  0.9316 -1.0478  0.3285
 7285TIP3    H221792   1.400   2.304   6.121  0.6263 -0.3040  0.1764
 7286TIP3   OH221793   0.711   1.976   5.180  0.5486 -0.7039  0.1065
 7286TIP3    H121794   0.645   2.011   5.239 -0.7934 -3.4664  0.3523
 7286TIP3    H221795   0.689   2.013   5.094 -0.4142 -0.4277  0.4658
 7287TIP3   OH221796   6.729   7.666   4.868 -0.6305  0.3641  0.5141
 7287TIP3    H121797   6.664   7.734   4.886 -1.4777 -0.4255  0.4601
 7287TIP3    H221798   6.813   7.710   4.879 -1.1706  1.5830 -0.1382
 7288TIP3   OH221799   8.368   4.321   4.381  0.2855 -0.0208 -0.3182
 7288TIP3    H121800   8.372   4.228   4.356 -1.3753 -0.6813  1.7012
 7288TIP3    H221801   8.459   4.344   4.400  0.5247 -1.7528  0.8044
 7289TIP3   OH221802   1.219   5.783   2.865  0.2199 -0.2054  0.0266
 7289TIP3    H121803   1.291   5.843   2.844  0.4195 -0.4898 -0.1099
 7289TIP3    H221804   1.141   5.825   2.828  0.7703 -1.4110 -2.6450
 7290TIP3   OH221805   7.671   0.833   0.200  0.8516 -0.2016 -0.0161
 7290TIP3    H121806   7.621   0.754   0.180  0.6590 -0.2875  0.7803
 7290TIP3    H221807   7.625   0.903   0.154 -0.5465 -0.1389  1.4470
 7291TIP3   OH221808   3.424   6.755   1.050 -0.5118 -0.0340  0.1097
 7291TIP3    H121809   3.386   6.803   0.977  2.0930 -0.1588 -1.3988
 7291TIP3    H221810   3.396   6.803   1.128  0.3656  2.7499 -1.2252
 7292TIP3   OH221811   3.380   5.718   0.446  0.0318  0.4200 -0.6478
 7292TIP3    H121812   3.338   5.687   0.526  2.3908  0.5457  0.6877
 7292TIP3    H221813   3.409   5.807   0.468 -0.2817  0.8755 -2.0352
 7293TIP3   OH221814   1.732   6.287   4.740 -0.0149  0.1689 -0.5878
 7293TIP3    H121815   1.779   6.359   4.781 -0.8199  0.5557 -0.3310
 7293TIP3    H221816   1.788   6.210   4.755  0.9431  0.7667 -1.0451
 7294TIP3   OH221817   1.830   4.467   4.649 -0.2304 -0.1023  0.2481
 7294TIP3    H121818   1.804   4.458   4.558  3.5471 -2.4147 -0.7165
 7294TIP3    H221819   1.906   4.526   4.647  0.1444 -0.4894  1.8322
 7295TIP3   OH221820   1.392   5.396   5.283 -0.1547 -0.6395  0.0190
 7295TIP3    H121821   1.401   5.394   5.379 -0.0610  1.0243  0.0507
 7295TIP3    H221822   1.350   5.480   5.264  1.8954  0.0841 -1.5497
 7296TIP3   OH221823   1.425   0.888   3.796  0.4602  0.3063  0.7879
 7296TIP3    H121824   1.362   0.898   3.725  0.6924 -0.2903  0.4889
 7296TIP3    H221825   1.373   0.890   3.876 -0.3198 -3.1095  0.4352
 7297TIP3   OH221826   8.218   3.741   5.139 -0.4585 -0.2541 -0.2024
 7297TIP3    H121827   8.248   3.824   5.102  1.3215 -0.9420 -0.3487
 7297TIP3    H221828   8.242   3.746   5.231 -1.1896 -0.2382 -0.0093
 7298TIP3   OH221829   2.379   4.550   2.663  0.4466  0.2682 -0.0264
 7298TIP3    H121830   2.377   4.522   2.571  0.1335 -2.7580  0.8377
 7298TIP3    H221831   2.466   4.525   2.693 -0.0375 -0.2469  0.9370
 7299TIP3   OH221832   4.132   2.242   5.173  0.1029  0.7143 -0.4491
 7299TIP3    H121833   4.188   2.177   5.216  0.8864  1.4791 -0.3106
 7299TIP3    H221834   4.187   2.320   5.164 -0.4498  0.9687 -1.7192
 7300TIP3   OH221835   1.559   2.114   4.851  0.0809 -0.2401  0.2358
 7300TIP3    H121836   1.591   2.167   4.778  1.6193  0.6145  1.4895
 7300TIP3    H221837   1.554   2.025   4.816  1.1513  0.0978 -0.8146
 7301TIP3   OH221838   2.511   4.027   5.814  0.1521  0.7872  0.5829
 7301TIP3    H121839   2.497   3.934   5.830  1.1287  0.3979 -0.6904
 7301TIP3    H221840   2.550   4.030   5.727  1.5693  2.2892  1.2568
 7302TIP3   OH221841   8.426   4.262   6.575  0.3401 -0.0021  0.2149
 7302TIP3    H121842   8.494   4.325   6.598  0.6168  0.0390 -0.6993
 7302TIP3    H221843   8.457   4.179   6.610  0.5895  0.1260  0.2963
 7303TIP3   OH221844   3.443   4.403   4.613 -0.6409 -0.5218  0.2528
 7303TIP3    H121845   3.452   4.311   4.590 -1.7571 -0.2591 -1.3525
 7303TIP3    H221846   3.358   4.429   4.578  0.3577  1.5121 -0.8345
 7304TIP3   OH221847   2.564   3.761   5.485 -0.5579 -0.0887 -0.0763
 7304TIP3    H121848   2.642   3.706   5.479 -1.1279 -0.8978 -0.1169
 7304TIP3    H221849   2.542   3.779   5.393  1.0917  2.3226 -0.0526
 7305TIP3   OH221850   2.522   5.484   4.324 -0.0833 -0.0685 -0.6035
 7305TIP3    H121851   2.506   5.499   4.417 -1.1806 -0.2454 -0.7453
 7305TIP3    H221852   2.571   5.560   4.295  0.9779 -0.4083  0.2985
 7306TIP3   OH221853   2.378   4.672   5.565 -0.1762  0.4365  0.2779
 7306TIP3    H121854   2.300   4.713   5.527  0.2183 -0.1340 -1.1836
 7306TIP3    H221855   2.389   4.715   5.650 -1.4898  1.2389  0.0494
 7307TIP3   OH221856   3.676   2.876   4.886  0.4450 -0.0253 -0.4672
 7307TIP3    H121857   3.614   2.837   4.824  1.0753  0.4687 -1.4260
 7307TIP3    H221858   3.708   2.802   4.937  2.0147 -0.9074 -2.6194
 7308TIP3   OH221859   2.326   1.873   4.782 -0.4080  0.2301  0.1537
 7308TIP3    H121860   2.388   1.864   4.710  0.2235  0.6766  0.6262
 7308TIP3    H221861   2.275   1.793   4.780  1.5744 -1.1117  1.0301
 7309TIP3   OH221862   8.188   4.739   5.407 -1.1042  0.2795 -0.5767
 7309TIP3    H121863   8.179   4.680   5.332 -0.1704 -0.2805 -0.2535
 7309TIP3    H221864   8.233   4.816   5.372 -0.7005  0.0333 -0.5983
 7310TIP3   OH221865   0.517   5.179   3.851  0.4248 -0.5699 -0.0491
 7310TIP3    H121866   0.504   5.249   3.788  0.9356 -0.2912  0.1507
 7310TIP3    H221867   0.548   5.223   3.930  0.1135 -0.9496  0.2845
 7311TIP3   OH221868   3.363   3.197   5.761 -0.1076  0.4419  0.3622
 7311TIP3    H121869   3.309   3.274   5.782 -1.2056 -0.5321  1.2441
 7311TIP3    H221870   3.304   3.139   5.712  1.0724  0.6680 -1.3551
 7312TIP3   OH221871   3.382   4.318   4.882  0.2752 -0.1491 -0.6914
 7312TIP3    H121872   3.403   4.350   4.794 -2.4537  1.4757 -0.8095
 7312TIP3    H221873   3.320   4.382   4.917  1.5963 -0.5510  2.5954
 7313TIP3   OH221874   1.137   5.591   4.043 -0.0305 -0.7131  0.1021
 7313TIP3    H121875   1.175   5.666   3.996 -0.0060 -0.9621 -0.2734
 7313TIP3    H221876   1.048   5.585   4.009 -0.4518 -0.0654  1.0546
 7314TIP3   OH221877   1.656   4.269   4.171 -0.1479  1.0674 -0.8937
 7314TIP3    H121878   1.647   4.174   4.175  3.1817  0.7162 -0.5715
 7314TIP3    H221879   1.705   4.285   4.091  0.4028  2.4244 -0.2989
 7315TIP3   OH221880   3.086   5.068   5.898 -0.4980 -0.0615  0.3072
 7315TIP3    H121881   3.172   5.074   5.940 -0.8719 -0.7963  1.2041
 7315TIP3    H221882   3.033   5.136   5.939 -0.0811  1.0305 -0.9253
 7316TIP3   OH221883   2.244   4.556   4.523  0.3251  0.0149  0.2343
 7316TIP3    H121884   2.325   4.519   4.488 -0.0951 -0.8967  0.2175
 7316TIP3    H221885   2.251   4.650   4.505 -0.3374 -0.5444 -3.3166
 7317TIP3   OH221886   2.521   4.735   6.246 -0.0617 -0.1217 -0.2497
 7317TIP3    H121887   2.558   4.726   6.334  0.6124  0.8645 -0.4234
 7317TIP3    H221888   2.488   4.648   6.224  0.3630 -0.5266  0.7138
 7318TIP3   OH221889   8.011   1.231   0.954 -0.1656 -0.1934  0.2687
 7318TIP3    H121890   8.077   1.258   0.889  0.9219  1.6670  2.1037
 7318TIP3    H221891   7.941   1.296   0.945 -0.0795 -0.0185  0.8504
 7319TIP3   OH221892   2.661   4.550   4.931  0.0179 -0.1776 -0.1109
 7319TIP3    H121893   2.622   4.502   4.858 -0.5265  0.4152 -0.2189
 7319TIP3    H221894   2.651   4.642   4.906  0.1287  0.0153  0.5650
 7320TIP3   OH221895   2.251   4.253   5.611 -0.0414 -0.1423 -0.1086
 7320TIP3    H121896   2.179   4.198   5.579  0.4961 -0.5627 -0.6080
 7320TIP3    H221897   2.255   4.235   5.705 -1.2159  0.6219  0.1032
 7321TIP3   OH221898   1.769   4.134   4.540  0.6567  0.4182 -0.0966
 7321TIP3    H121899   1.841   4.126   4.604 -2.2103 -0.1797  3.1955
 7321TIP3    H221900   1.727   4.048   4.540 -2.0090  1.6577  0.5217
 7322TIP3   OH221901   1.530   2.280   2.803 -0.4439 -0.6598  0.1652
 7322TIP3    H121902   1.559   2.274   2.894 -1.6077 -0.5442  0.5494
 7322TIP3    H221903   1.553   2.370   2.778 -0.5222 -0.5477  0.4844
 7323TIP3   OH221904   0.594   4.368   5.781 -0.2239 -0.3486  0.0275
 7323TIP3    H121905   0.604   4.460   5.756  0.1554  0.2589  2.2654
 7323TIP3    H221906   0.669   4.350   5.838 -2.0222 -1.0635  2.2585
 7324TIP3   OH221907   2.605   4.195   4.085  0.0208 -0.2277  0.1454
 7324TIP3    H121908   2.548   4.121   4.106 -2.5827  1.1346 -1.7242
 7324TIP3    H221909   2.650   4.169   4.005  1.9761 -1.2511  1.5499
 7325TIP3   OH221910   1.585   4.402   2.663 -0.3096 -0.9017  0.6738
 7325TIP3    H121911   1.595   4.320   2.615 -1.4780 -1.7214  1.7719
 7325TIP3    H221912   1.648   4.396   2.735  0.1498 -0.4861  0.3104
 7326TIP3   OH221913   2.398   3.796   3.522 -0.3037 -0.9894  1.0409
 7326TIP3    H121914   2.306   3.800   3.548 -0.0544 -1.1228  1.9679
 7326TIP3    H221915   2.424   3.887   3.508 -1.1781 -1.0768 -1.4445
 7327TIP3   OH221916   1.964   3.365   3.974  0.6904 -0.2960 -0.1036
 7327TIP3    H121917   2.035   3.381   4.036  0.7309 -2.2856  0.3912
 7327TIP3    H221918   1.940   3.452   3.942  1.7728  0.6017  1.4740
 7328TIP3   OH221919   3.410   2.878   0.324 -0.3956 -0.1327  0.5907
 7328TIP3    H121920   3.426   2.790   0.291 -0.9661  0.2136 -0.6417
 7328TIP3    H221921   3.434   2.935   0.251  2.5867  0.8983  2.2634
 7329TIP3   OH221922   2.505   5.545   4.657 -0.6674 -0.1168 -0.0768
 7329TIP3    H121923   2.594   5.572   4.681 -1.0021  0.1126  0.9218
 7329TIP3    H221924   2.449   5.618   4.683 -1.1920 -0.3938 -0.4114
 7330TIP3   OH221925   0.360   5.191   3.185  0.2063 -0.5026 -0.2679
 7330TIP3    H121926   0.401   5.277   3.193  0.9787 -0.8955  0.0689
 7330TIP3    H221927   0.428   5.135   3.148 -0.9571 -0.4939 -2.4713
 7331TIP3   OH221928   4.015   3.620   6.810 -0.4789  0.2378  0.4006
 7331TIP3    H121929   3.984   3.700   6.852 -2.5115 -0.0911 -0.4098
 7331TIP3    H221930   3.935   3.569   6.793  0.8411 -2.6493  2.2747
 7332TIP3   OH221931   1.057   1.511   0.151  0.5511  0.1555 -0.7975
 7332TIP3    H121932   1.088   1.465   0.073 -1.6607 -0.1332 -1.5232
 7332TIP3    H221933   1.051   1.444   0.218 -0.2632 -0.1337 -1.1609
 7333TIP3   OH221934   4.337   6.283   3.542 -0.0051  0.1158 -0.1225
 7333TIP3    H121935   4.413   6.270   3.485  0.3028  1.9056 -0.1489
 7333TIP3    H221936   4.292   6.198   3.541  2.5948 -1.3204  0.8196
 7334TIP3   OH221937   3.012   3.816   4.447 -0.5092 -0.1472  0.0045
 7334TIP3    H121938   3.015   3.770   4.531 -0.8434  1.1303  0.7349
 7334TIP3    H221939   2.980   3.903   4.469  1.8470  1.0314 -1.0666
 7335TIP3   OH221940   3.249   6.130   4.791 -0.3109 -0.2371 -0.2608
 7335TIP3    H121941   3.320   6.194   4.800 -0.5435  0.2772 -1.8762
 7335TIP3    H221942   3.237   6.095   4.879  0.9588  0.7321  0.3181
 7336TIP3   OH221943   3.058   3.092   6.876 -0.1676 -0.1830  0.5200
 7336TIP3    H121944   3.126   3.025   6.886 -0.5653 -0.6876 -0.1220
 7336TIP3    H221945   2.988   3.064   6.935 -0.2292 -0.1919  0.4429
 7337TIP3   OH221946   1.350   4.891   4.973  0.1410 -0.6746  0.0718
 7337TIP3    H121947   1.323   4.870   4.884 -0.9965  0.9487  0.0115
 7337TIP3    H221948   1.300   4.830   5.028 -0.8764 -0.1491 -0.2661
 7338TIP3   OH221949   1.818   3.660   5.223 -0.8929  0.3312 -0.4217
 7338TIP3    H121950   1.912   3.674   5.209 -0.9600  1.2338 -0.0091
 7338TIP3    H221951   1.782   3.651   5.135 -0.2653 -1.0632 -0.5419
 7339TIP3   OH221952   3.079   1.866   4.118  0.4314 -1.1047 -0.2744
 7339TIP3    H121953   3.003   1.898   4.070  1.3884  4.6272  1.6277
 7339TIP3    H221954   3.143   1.844   4.050 -0.3214  1.2812 -1.8126
 7340TIP3   OH221955   2.972   5.075   5.284 -0.2605  0.7115 -0.1288
 7340TIP3    H121956   2.954   5.079   5.190  1.1928  1.3028 -0.4059
 7340TIP3    H221957   2.981   4.982   5.303  2.7118  0.6900 -1.2847
 7341TIP3   OH221958   1.082   4.880   2.921 -0.2608  0.6644  0.6257
 7341TIP3    H121959   1.012   4.935   2.888  0.7301  1.8595  0.4579
 7341TIP3    H221960   1.055   4.855   3.009 -0.5886  1.6872  0.8226
 7342TIP3   OH221961   2.703   1.772   4.373  0.5178  0.0296  0.2186
 7342TIP3    H121962   2.725   1.700   4.313 -1.6968 -0.4237 -0.0695
 7342TIP3    H221963   2.670   1.841   4.316 -1.8487 -0.5010  0.8924
 7343TIP3   OH221964   2.854   4.559   5.175  0.5970  0.5950 -0.0380
 7343TIP3    H121965   2.789   4.519   5.233  1.9649 -0.8634  0.5319
 7343TIP3    H221966   2.817   4.551   5.088 -0.5793  0.9714  0.4240
 7344TIP3   OH221967   0.486   0.972   0.559 -0.2498  0.3562  0.2533
 7344TIP3    H121968   0.539   1.050   0.576  2.4211 -1.4964  0.7629
 7344TIP3    H221969   0.424   0.968   0.632  0.2867  1.4409  0.7684
 7345TIP3   OH221970   2.500   3.459   3.669 -0.0268  0.5015 -0.8717
 7345TIP3    H121971   2.536   3.389   3.724 -0.9029 -0.6361 -1.7417
 7345TIP3    H221972   2.573   3.520   3.659  1.2596 -1.0955 -1.4671
 7346TIP3   OH221973   3.071   3.551   6.615  0.4266  0.2703  0.0508
 7346TIP3    H121974   3.003   3.608   6.580 -0.0469  0.7449  1.7073
 7346TIP3    H221975   3.152   3.600   6.601  0.3412  0.0375 -1.2352
 7347TIP3   OH221976   1.660   4.663   5.910 -0.0251  0.4799  0.4225
 7347TIP3    H121977   1.639   4.569   5.912 -0.4563  0.5885  1.0114
 7347TIP3    H221978   1.747   4.667   5.869 -0.0970 -0.1583  0.1993
 7348TIP3   OH221979   1.906   5.032   5.251  0.2852 -0.2562 -0.5359
 7348TIP3    H121980   1.854   4.976   5.309  0.8016  1.0314  1.1997
 7348TIP3    H221981   1.850   5.107   5.233  0.5324 -0.1478 -0.8557
 7349TIP3   OH221982   7.991   4.194   4.684 -0.6915 -0.1814 -0.0231
 7349TIP3    H121983   7.994   4.131   4.612  2.1390  1.1458 -1.1613
 7349TIP3    H221984   7.962   4.275   4.644 -1.9772 -0.1281  0.9651
 7350TIP3   OH221985   1.791   1.740   6.136  0.5561  0.1314 -0.4317
 7350TIP3    H121986   1.779   1.819   6.084 -0.2235  1.7065  2.0145
 7350TIP3    H221987   1.727   1.677   6.102 -0.6895  1.5023 -0.6492
 7351TIP3   OH221988   1.897   2.036   5.083  0.6022 -0.7851  0.3777
 7351TIP3    H121989   1.869   2.046   5.174  0.8165  0.7025  0.2845
 7351TIP3    H221990   1.868   1.947   5.059  0.7909 -1.2941  1.9721
 7352TIP3   OH221991   3.198   4.554   5.634 -0.0114 -0.1998 -0.0220
 7352TIP3    H121992   3.143   4.595   5.568  2.2904  0.9351 -1.2862
 7352TIP3    H221993   3.144   4.483   5.670 -1.9207  0.2768 -1.8882
 7353TIP3   OH221994   1.751   2.896   4.652 -0.0668 -0.0219 -0.2782
 7353TIP3    H121995   1.822   2.946   4.612  0.5201 -1.8166 -1.5557
 7353TIP3    H221996   1.695   2.962   4.692  2.6657  1.3825  1.3501
 7354TIP3   OH221997   2.742   3.317   5.929  0.0256  0.2902  0.2907
 7354TIP3    H121998   2.805   3.381   5.965  1.2196 -0.7827  0.1485
 7354TIP3    H221999   2.696   3.365   5.860  0.8164  1.0411  0.2740
 7355TIP3   OH222000   7.974   0.855   0.103 -0.8016  0.3357  0.3962
 7355TIP3    H122001   7.987   0.950   0.095 -0.6197  0.1727 -1.3931
 7355TIP3    H222002   7.913   0.834   0.032  1.3481 -1.3089 -1.0309
 7356TIP3   OH222003   4.014   4.240   3.802 -0.1681  0.0642 -0.1836
 7356TIP3    H122004   3.989   4.291   3.879 -0.0127 -1.8306  1.1580
 7356TIP3    H222005   3.953   4.166   3.801 -0.2697  0.1514 -1.9835
 7357TIP3   OH222006   6.924   4.354   6.719 -0.3782 -0.0983 -0.2353
 7357TIP3    H122007   7.016   4.373   6.735  0.1362  0.5512 -3.5363
 7357TIP3    H222008   6.917   4.259   6.729  1.1458 -0.4244 -2.0473
 7358TIP3   OH222009   0.708   1.287   5.112 -0.5807  0.5046 -0.3865
 7358TIP3    H122010   0.777   1.296   5.177 -0.7161 -0.5892 -0.0753
 7358TIP3    H222011   0.659   1.368   5.117  1.4123  1.8420 -1.4782
 7359TIP3   OH222012   3.045   2.848   6.235 -0.0345  0.1680  0.0273
 7359TIP3    H122013   3.030   2.777   6.298 -1.7381 -1.4129 -2.0842
 7359TIP3    H222014   3.127   2.824   6.192  0.4705  0.5779  0.7576
 7360TIP3   OH222015   1.679   3.590   3.771 -0.5315 -0.5225 -0.3626
 7360TIP3    H122016   1.644   3.502   3.788 -0.6243  0.1544  3.4428
 7360TIP3    H222017   1.755   3.597   3.828 -0.3781  1.7844 -0.8144
 7361TIP3   OH222018   2.908   5.294   4.306 -0.5713 -0.0873 -0.0670
 7361TIP3    H122019   2.910   5.199   4.297  0.6659 -0.1666  0.8624
 7361TIP3    H222020   2.866   5.309   4.391 -0.9248  0.1979 -0.2929
 7362TIP3   OH222021   2.557   2.831   4.632 -0.0344  0.0014  0.1459
 7362TIP3    H122022   2.481   2.779   4.656  0.4483 -0.3417  0.9360
 7362TIP3    H222023   2.550   2.910   4.686 -0.7728  0.7789 -1.0572
 7363TIP3   OH222024   2.275   5.525   3.489 -0.7190  0.3368  0.3521
 7363TIP3    H122025   2.190   5.487   3.466 -0.6962  0.6779 -0.3091
 7363TIP3    H222026   2.307   5.471   3.561  0.4129 -2.4005 -2.1225
 7364TIP3   OH222027   3.938   3.582   4.342 -0.2556 -0.0146  0.5150
 7364TIP3    H122028   3.850   3.567   4.308  0.7098 -0.2054 -2.0239
 7364TIP3    H222029   3.974   3.494   4.353  0.3178  0.0955 -0.4219
 7365TIP3   OH222030   8.398   5.131   2.732  0.8829 -0.2554  0.7607
 7365TIP3    H122031   8.384   5.219   2.766  1.7383 -0.3053  1.2680
 7365TIP3    H222032   8.361   5.133   2.644  1.0461  0.6594  0.7066
 7366TIP3   OH222033   3.220   4.703   4.056  0.0624  0.3365  0.2173
 7366TIP3    H122034   3.146   4.658   4.098 -0.4919  0.8495 -0.1882
 7366TIP3    H222035   3.235   4.779   4.112  0.5244  0.0352  0.5028
 7367TIP3   OH222036   3.370   7.063   5.376 -0.0482  0.3747 -0.8417
 7367TIP3    H122037   3.319   7.066   5.457 -1.5853  1.5129 -1.8372
 7367TIP3    H222038   3.459   7.086   5.403 -0.5854  0.9485  0.4866
 7368TIP3   OH222039   2.284   3.350   5.514 -0.4806  0.2077 -0.3801
 7368TIP3    H122040   2.191   3.337   5.494 -0.4365 -0.0785 -0.4029
 7368TIP3    H222041   2.329   3.329   5.432 -0.1704 -2.6342  0.4530
 7369TIP3   OH222042   0.713   4.321   3.822  0.1051  0.2278  0.8081
 7369TIP3    H122043   0.753   4.344   3.738 -0.3055  0.7211  0.7428
 7369TIP3    H222044   0.643   4.385   3.833 -0.7295 -0.6718  0.8721
 7370TIP3   OH222045   2.476   4.489   6.415 -0.2750  0.4024 -0.4822
 7370TIP3    H122046   2.384   4.465   6.430 -0.5109  1.3629 -0.3545
 7370TIP3    H222047   2.509   4.421   6.357 -1.4496  0.7858 -1.6221
 7371TIP3   OH222048   2.451   4.469   5.110 -0.0697  0.2338 -0.0606
 7371TIP3    H122049   2.516   4.488   5.042 -0.3347 -0.6916 -0.5857
 7371TIP3    H222050   2.399   4.398   5.073 -1.7569  1.3494  0.1124
 7372TIP3   OH222051   2.715   6.300   6.393 -0.0652  0.1050 -0.0485
 7372TIP3    H122052   2.726   6.228   6.454  0.4457 -0.6319 -0.9991
 7372TIP3    H222053   2.783   6.363   6.418 -1.2808  0.8081  1.5434
 7373TIP3   OH222054   0.968   5.030   2.107  0.1123 -0.4495  0.3783
 7373TIP3    H122055   0.915   5.050   2.030  1.7888  0.4051 -0.5922
 7373TIP3    H222056   1.046   4.987   2.071  1.9703  2.0019  1.3642
 7374TIP3   OH222057   3.088   3.183   5.514  0.7630 -0.2516 -0.3457
 7374TIP3    H122058   3.120   3.104   5.556 -1.4210 -0.8473  0.2311
 7374TIP3    H222059   3.086   3.162   5.421 -1.1363 -1.4028 -0.0803
 7375TIP3   OH222060   2.242   1.602   5.092 -0.5612 -0.2224 -0.0374
 7375TIP3    H122061   2.322   1.653   5.100  0.1049 -1.4336  1.2485
 7375TIP3    H222062   2.192   1.646   5.022  1.7627 -0.1945 -1.7337
 7376TIP3   OH222063   3.656   4.572   5.410  0.7298  0.7348  0.4456
 7376TIP3    H122064   3.625   4.656   5.376 -0.1834  1.0798  2.0624
 7376TIP3    H222065   3.642   4.578   5.505  0.0089 -1.5129  0.5073
 7377TIP3   OH222066   1.807   4.283   3.825 -0.5182 -0.0775 -0.2630
 7377TIP3    H122067   1.800   4.288   3.730  1.7280  0.6271 -0.4331
 7377TIP3    H222068   1.776   4.368   3.856 -2.3383 -0.7295 -0.2820
 7378TIP3   OH222069   3.414   7.824   0.489 -0.3802  0.6846  0.4546
 7378TIP3    H122070   3.399   7.740   0.447 -1.5618  1.2328 -0.2405
 7378TIP3    H222071   3.473   7.804   0.562  0.5294 -0.4986 -0.5871
 7379TIP3   OH222072   2.274   5.753   4.623  0.2017 -0.1256  0.3837
 7379TIP3    H122073   2.307   5.843   4.624 -0.0169 -0.0213 -1.1335
 7379TIP3    H222074   2.249   5.736   4.714 -1.4150  1.9566  0.3463
 7380TIP3   OH222075   0.603   3.819   5.302  0.0502 -0.1493  0.3064
 7380TIP3    H122076   0.577   3.910   5.284  1.1517 -0.0077 -0.6679
 7380TIP3    H222077   0.627   3.784   5.216 -0.8692 -1.5354  0.6084
 7381TIP3   OH222078   1.448   5.562   4.200  0.4494 -0.7477  0.0600
 7381TIP3    H122079   1.507   5.528   4.133  1.3899 -1.3509  1.1875
 7381TIP3    H222080   1.414   5.485   4.245 -1.0190 -0.3992 -0.4064
 7382TIP3   OH222081   0.350   4.607   4.450  0.2773  0.3307  0.6015
 7382TIP3    H122082   0.401   4.639   4.375 -0.2112 -2.2187 -0.8720
 7382TIP3    H222083   0.309   4.686   4.486  1.4422  1.7591 -1.1030
 7383TIP3   OH222084   1.101   4.671   4.275 -0.0888 -0.1205 -0.1442
 7383TIP3    H122085   1.107   4.578   4.253 -1.4000  0.1584 -1.7453
 7383TIP3    H222086   1.048   4.674   4.354  0.7984 -0.7952  0.4891
 7384TIP3   OH222087   2.041   4.659   4.685  0.0316 -0.5640 -0.6581
 7384TIP3    H122088   2.076   4.689   4.769  1.3928 -0.4022 -1.2630
 7384TIP3    H222089   2.119   4.635   4.634 -0.8555 -2.1628 -1.3053
 7385TIP3   OH222090   2.718   2.873   3.901  0.8305 -0.3735  0.7410
 7385TIP3    H122091   2.737   2.929   3.976  0.4825 -2.3431  2.3420
 7385TIP3    H222092   2.797   2.821   3.889  0.4683 -0.8674  0.4669
 7386TIP3   OH222093   0.893   5.793   4.250  0.2448 -0.2686  0.1005
 7386TIP3    H122094   0.972   5.743   4.272  0.3378 -0.2738 -0.2382
 7386TIP3    H222095   0.909   5.881   4.285  0.2677 -0.3542  0.3072
 7387TIP3   OH222096   0.809   5.100   4.524 -0.0720 -0.0108 -0.4923
 7387TIP3    H122097   0.838   5.023   4.476  0.8859 -1.7473  2.7595
 7387TIP3    H222098   0.854   5.173   4.480  1.3182 -1.5900 -1.7685
 7388TIP3   OH222099   1.887   3.143   5.158 -0.6123 -0.2626  0.1396
 7388TIP3    H122100   1.822   3.081   5.190  0.7736 -1.9778 -0.2906
 7388TIP3    H222101   1.967   3.092   5.151  0.6295  1.6540  0.0203
 7389TIP3   OH222102   0.730   1.839   5.632 -0.2580 -0.0686 -0.1467
 7389TIP3    H122103   0.731   1.915   5.574 -0.0396 -1.0495 -1.4594
 7389TIP3    H222104   0.753   1.766   5.575  1.7338 -0.8097  1.5247
 7390TIP3   OH222105   1.244   4.082   3.686  0.3456 -0.3323  0.5025
 7390TIP3    H122106   1.251   4.007   3.746 -1.0337 -1.6109 -0.8665
 7390TIP3    H222107   1.218   4.155   3.741  0.2951 -1.2100  1.6594
 7391TIP3   OH222108   2.508   4.353   4.767 -0.3629 -0.3706  0.1880
 7391TIP3    H122109   2.577   4.304   4.722  1.3875  1.3493  0.9243
 7391TIP3    H222110   2.461   4.287   4.818  0.9552 -1.5309 -0.0625
 7392TIP3   OH222111   5.080   5.717   0.203 -0.1698 -0.2361  0.0672
 7392TIP3    H122112   5.101   5.796   0.252  2.6747 -1.0043  0.1823
 7392TIP3    H222113   5.044   5.748   0.120  1.1400  1.2258  0.0220
 7393TIP3   OH222114   0.920   4.245   6.309  0.0299  0.5770 -0.5237
 7393TIP3    H122115   0.910   4.267   6.401 -0.4513 -0.7226 -0.2606
 7393TIP3    H222116   1.004   4.283   6.284 -0.5194  2.2148  0.0586
 7394TIP3   OH222117   1.928   2.697   4.080 -0.2202  0.4661 -1.1040
 7394TIP3    H122118   1.937   2.605   4.053 -0.1997  0.1511 -0.0432
 7394TIP3    H222119   1.835   2.715   4.071 -0.4792 -0.1400  0.1654
 7395TIP3   OH222120   3.256   5.196   4.402 -0.0094  0.5215 -0.3528
 7395TIP3    H122121   3.277   5.111   4.362  1.1990 -0.2583  1.8519
 7395TIP3    H222122   3.173   5.180   4.448  0.1810  0.5557  0.0011
 7396TIP3   OH222123   1.969   2.812   5.418 -0.3803  0.8447  0.4209
 7396TIP3    H122124   2.052   2.784   5.457 -1.6931 -1.3424  1.7322
 7396TIP3    H222125   1.970   2.773   5.331 -0.6235 -0.3281  0.9358
 7397TIP3   OH222126   2.204   5.259   5.907  0.0451 -0.6568 -0.0236
 7397TIP3    H122127   2.278   5.265   5.967  1.0012 -0.0500 -1.2375
 7397TIP3    H222128   2.223   5.181   5.854 -0.7162 -1.1055  0.3512
 7398TIP3   OH222129   1.950   3.947   4.165 -0.5110 -0.1991  0.6942
 7398TIP3    H122130   1.875   3.948   4.106 -0.9976  0.7845  1.3350
 7398TIP3    H222131   1.950   3.858   4.202 -0.7257 -0.5340 -0.1068
 7399TIP3   OH222132   0.697   4.287   4.387  0.0596 -0.0914 -0.2400
 7399TIP3    H122133   0.615   4.318   4.424  0.2431  0.5755 -0.3777
 7399TIP3    H222134   0.692   4.192   4.393 -1.6325 -0.1696 -2.2052
 7400TIP3   OH222135   8.425   1.167   0.913 -0.1162 -0.1567 -0.0412
 7400TIP3    H122136   8.417   1.081   0.872  0.5366  0.3881 -1.3254
 7400TIP3    H222137   8.451   1.225   0.842  0.9950  0.8140  1.1394
 7401TIP3   OH222138   1.496   6.162   4.871  0.2160 -0.4104 -0.4367
 7401TIP3    H122139   1.437   6.125   4.805 -0.0762 -0.9813  0.1323
 7401TIP3    H222140   1.580   6.173   4.826  0.4078 -2.1295 -0.5143
 7402TIP3   OH222141   1.498   4.073   6.357 -0.2603  0.0043  0.1288
 7402TIP3    H122142   1.491   3.989   6.403 -0.0914 -0.1753 -0.1746
 7402TIP3    H222143   1.537   4.051   6.272  0.4002  0.4776  0.3042
 7403TIP3   OH222144   1.053   5.219   2.300  0.0332  0.0889  0.5109
 7403TIP3    H122145   0.991   5.292   2.295  0.2082  0.1778 -0.3616
 7403TIP3    H222146   1.028   5.162   2.228  2.0682  0.9917 -0.9473
 7404TIP3   OH222147   2.856   4.980   6.910 -0.7237 -0.6257 -0.2319
 7404TIP3    H122148   2.907   4.902   6.891 -1.0100 -0.8008 -0.2925
 7404TIP3    H222149   2.846   5.024   6.826 -1.4857 -1.0918 -0.3962
 7405TIP3   OH222150   3.247   6.477   4.825  0.4144  0.0771 -0.3420
 7405TIP3    H122151   3.188   6.426   4.881 -0.1963 -0.1007 -1.1365
 7405TIP3    H222152   3.333   6.438   4.839  0.1480 -0.4112 -0.0454
 7406TIP3   OH222153   4.723   3.098   4.630 -0.3166  0.2225  0.0727
 7406TIP3    H122154   4.645   3.099   4.575 -0.9770  0.0942  1.0049
 7406TIP3    H222155   4.705   3.162   4.699  0.2777 -0.0319  0.4709
 7407TIP3   OH222156   2.450   5.370   3.738  0.1966  0.2078 -0.0744
 7407TIP3    H122157   2.480   5.285   3.769  1.4439  0.8161  0.4351
 7407TIP3    H222158   2.386   5.399   3.803  1.5988  0.7480  1.0850
 7408TIP3   OH222159   2.215   3.897   2.092 -0.3571  0.1754  0.0799
 7408TIP3    H122160   2.130   3.882   2.050  1.7864 -4.3900 -3.0234
 7408TIP3    H222161   2.203   3.867   2.182 -2.4241  1.0821  0.1378
 7409TIP3   OH222162   1.637   2.708   4.418 -0.7970  0.8532  0.4780
 7409TIP3    H122163   1.723   2.687   4.381 -1.4949  0.9132 -1.2041
 7409TIP3    H222164   1.657   2.759   4.497  0.7151  0.4914  0.3448
 7410TIP3   OH222165   3.270   4.188   2.596 -0.1612  0.2230 -0.6091
 7410TIP3    H122166   3.268   4.284   2.601 -0.1874  0.2679 -1.3971
 7410TIP3    H222167   3.178   4.162   2.601  0.0337  0.0477  2.8578
 7411TIP3   OH222168   3.988   3.688   4.806  0.1118  0.2120 -0.2404
 7411TIP3    H122169   3.917   3.624   4.804 -0.1619  0.5112 -0.0705
 7411TIP3    H222170   4.002   3.711   4.714  0.9750 -0.9362 -0.4067
 7412TIP3   OH222171   2.803   2.438   1.622  0.5089  0.0530 -0.9289
 7412TIP3    H122172   2.858   2.503   1.665  1.7404 -1.2057 -0.5528
 7412TIP3    H222173   2.821   2.448   1.529  0.0479  0.8144 -0.9405
 7413TIP3   OH222174   2.384   6.386   4.151  0.2923 -0.2202  0.0861
 7413TIP3    H122175   2.421   6.299   4.164  0.3056 -0.0805  1.0207
 7413TIP3    H222176   2.397   6.431   4.234 -0.0316  0.5589 -0.2724
 7414TIP3   OH222177   2.909   1.626   4.181  0.0974  0.1636 -0.2714
 7414TIP3    H122178   2.977   1.564   4.155  0.9332  1.4734 -1.2740
 7414TIP3    H222179   2.956   1.695   4.228 -1.1415 -1.2260  3.1890
 7415TIP3   OH222180   0.610   4.891   6.830  0.2170 -0.0391  0.1720
 7415TIP3    H122181   0.588   4.827   6.898  1.5592 -0.4010  0.2705
 7415TIP3    H222182   0.688   4.936   6.864  0.8646 -0.1880 -1.1041
 7416TIP3   OH222183   3.789   5.224   6.153  0.4593 -0.2464 -0.0556
 7416TIP3    H122184   3.728   5.161   6.115 -0.1789 -0.0174  0.5817
 7416TIP3    H222185   3.843   5.252   6.079  1.5787 -2.4743 -0.0898
 7417TIP3   OH222186   1.114   2.824   5.512  0.1578  0.9005 -0.9944
 7417TIP3    H122187   1.103   2.919   5.515  0.7079  0.9980 -1.8621
 7417TIP3    H222188   1.100   2.796   5.603  0.1185  1.8202 -0.7037
 7418TIP3   OH222189   1.553   5.142   4.956 -0.0930 -0.3492  0.4398
 7418TIP3    H122190   1.564   5.137   4.861  0.3478  0.4505  0.4478
 7418TIP3    H222191   1.642   5.154   4.990 -0.3131 -0.0475  0.9174
 7419TIP3   OH222192   0.411   0.649   0.419  0.1603  0.0403 -0.1243
 7419TIP3    H122193   0.435   0.672   0.509 -1.3274 -0.6337  0.4462
 7419TIP3    H222194   0.348   0.716   0.392 -1.0133 -0.9646  0.0842
 7420TIP3   OH222195   1.562   5.542   6.542  0.6993 -0.3478 -0.0475
 7420TIP3    H122196   1.498   5.589   6.595  0.2597  0.2070 -1.0579
 7420TIP3    H222197   1.536   5.450   6.548  0.4716 -0.2514  0.4348
 7421TIP3   OH222198   3.642   4.394   6.812 -0.4749 -0.2733 -0.3940
 7421TIP3    H122199   3.648   4.298   6.809  0.8527 -0.1503 -1.8701
 7421TIP3    H222200   3.716   4.425   6.761 -0.3683  1.5764  0.8349
 7422TIP3   OH222201   0.867   4.949   6.507 -0.0738  0.1882 -0.5293
 7422TIP3    H122202   0.817   5.025   6.475  0.3961 -0.3204 -2.5458
 7422TIP3    H222203   0.924   4.985   6.575  2.2796  2.2590 -3.4856
 7423TIP3   OH222204   4.584   6.971   0.531 -0.4050 -0.1033  0.6146
 7423TIP3    H122205   4.619   7.055   0.501 -1.7580  0.0730 -0.5306
 7423TIP3    H222206   4.651   6.907   0.507 -0.0982  0.4422  0.0157
 7424TIP3   OH222207   3.413   7.466   0.134 -0.1523 -0.2128 -0.7994
 7424TIP3    H122208   3.353   7.393   0.120 -2.1615  1.2883 -0.3716
 7424TIP3    H222209   3.416   7.511   0.050  0.5283 -0.3810 -0.8684
 7425TIP3   OH222210   3.154   3.087   6.154 -1.0008 -0.9215 -0.3295
 7425TIP3    H122211   3.238   3.049   6.129 -1.2022 -1.1530 -0.6575
 7425TIP3    H222212   3.105   3.014   6.192 -0.8597 -0.6710  0.3428
 7426TIP3   OH222213   0.290   4.391   5.608  0.1183  0.0724 -0.2267
 7426TIP3    H122214   0.272   4.482   5.631  0.5179  0.4227 -1.2704
 7426TIP3    H222215   0.312   4.394   5.515  2.7541 -0.7164  0.3347
 7427TIP3   OH222216   3.255   5.363   3.778 -0.1645 -0.3769  0.2860
 7427TIP3    H122217   3.204   5.348   3.857 -0.2491 -0.6371  0.1815
 7427TIP3    H222218   3.341   5.326   3.798  0.9255  2.6419  1.5578
 7428TIP3   OH222219   2.105   4.962   4.789 -0.5724 -0.4049 -0.4567
 7428TIP3    H122220   2.089   4.917   4.706 -1.5883  0.5618 -0.7975
 7428TIP3    H222221   2.119   4.891   4.852 -0.1519 -1.1553 -1.3777
 7429TIP3   OH222222   0.825   6.181   4.205  0.0765 -0.1464  0.8738
 7429TIP3    H122223   0.887   6.138   4.264  2.5125  2.1227  0.0578
 7429TIP3    H222224   0.785   6.109   4.156  1.8810 -1.6786  1.5815
 7430TIP3   OH222225   3.689   4.656   4.260 -0.0403  0.4191  0.4168
 7430TIP3    H122226   3.785   4.650   4.260 -0.0234  0.5695 -0.9187
 7430TIP3    H222227   3.668   4.697   4.176 -1.5296 -3.5074 -1.2286
 7431TIP3   OH222228   1.306   7.013   4.898 -0.2232  0.4004 -0.3028
 7431TIP3    H122229   1.298   7.108   4.908 -0.7326  0.2181  1.2172
 7431TIP3    H222230   1.392   6.999   4.859 -0.4039  1.5190 -1.1035
 7432TIP3   OH222231   2.658   6.114   5.610 -0.3297  0.1032 -0.3707
 7432TIP3    H122232   2.625   6.165   5.537 -1.1840  1.1863  0.7513
 7432TIP3    H222233   2.584   6.061   5.639 -0.2618  0.3584  0.2862
 7433TIP3   OH222234   2.663   4.288   4.397 -0.5034  0.4493  0.3466
 7433TIP3    H122235   2.705   4.225   4.338  0.3771  1.5646 -0.2553
 7433TIP3    H222236   2.679   4.254   4.484 -0.6828 -0.5511 -0.0094
 7434TIP3   OH222237   4.382   3.792   6.304 -0.2132 -0.2144 -0.1855
 7434TIP3    H122238   4.311   3.731   6.284 -0.3634 -0.0772 -0.0682
 7434TIP3    H222239   4.358   3.830   6.389 -0.6889  0.8644 -0.8028
 7435TIP3   OH222240   3.739   3.331   4.028 -0.3714  0.7311  0.0986
 7435TIP3    H122241   3.758   3.275   3.952 -0.1206  0.0105  0.6768
 7435TIP3    H222242   3.644   3.337   4.030 -0.4576 -0.5026  0.5928
 7436TIP3   OH222243   0.894   4.019   1.815 -0.7088  0.7747  0.0160
 7436TIP3    H122244   0.962   4.032   1.748 -0.3016 -2.2929 -0.2260
 7436TIP3    H222245   0.937   4.043   1.897  0.4615 -0.4785 -0.2179
 7437TIP3   OH222246   2.293   3.306   4.871 -0.4003  0.0496 -0.2602
 7437TIP3    H122247   2.386   3.282   4.863 -0.4233 -0.5424  1.1086
 7437TIP3    H222248   2.247   3.222   4.871 -0.8135  0.2775  0.5380
 7438TIP3   OH222249   2.926   5.425   3.719 -0.2717  0.1017  0.2177
 7438TIP3    H122250   2.987   5.410   3.792  1.4582  0.2956 -1.1542
 7438TIP3    H222251   2.959   5.371   3.648 -1.6098  0.3530 -0.6140
 7439TIP3   OH222252   2.477   4.428   5.612  0.5751  0.1788  0.5341
 7439TIP3    H122253   2.411   4.361   5.593  1.4468 -0.3949 -0.5827
 7439TIP3    H222254   2.445   4.507   5.568 -1.5701  1.1413  3.7056
 7440TIP3   OH222255   2.726   3.680   5.160 -0.0367  0.1672 -0.4085
 7440TIP3    H122256   2.689   3.599   5.196  0.5191  0.2019  0.2329
 7440TIP3    H222257   2.656   3.716   5.105 -0.5509 -0.3580 -0.0956
 7441TIP3   OH222258   1.414   2.685   4.283 -0.7105 -0.7891 -0.4241
 7441TIP3    H122259   1.347   2.744   4.318  0.2756  0.0935 -0.0288
 7441TIP3    H222260   1.487   2.690   4.345  0.6175 -0.0336 -2.0273
 7442TIP3   OH222261   3.338   4.023   4.818 -0.4076 -0.2630  0.1894
 7442TIP3    H122262   3.299   4.098   4.862  1.1053 -0.1317  1.3810
 7442TIP3    H222263   3.319   4.036   4.725  1.3553  2.5670  0.1542
 7443TIP3   OH222264   6.113   4.554   5.087  0.0296 -0.3210 -0.9187
 7443TIP3    H122265   6.108   4.476   5.032  0.9207 -1.8168  1.0605
 7443TIP3    H222266   6.050   4.538   5.157  0.8407  0.3365 -0.0291
 7444TIP3   OH222267   1.787   4.282   6.158  0.3882 -0.6931 -0.2324
 7444TIP3    H122268   1.826   4.216   6.100  0.6577 -0.3649 -0.4260
 7444TIP3    H222269   1.844   4.358   6.148  0.6919 -0.7775  0.7975
 7445TIP3   OH222270   3.239   4.608   5.255  0.5641 -0.1039  0.0840
 7445TIP3    H122271   3.332   4.586   5.249  0.4720 -0.5508  0.2928
 7445TIP3    H222272   3.236   4.704   5.245  1.0841 -0.0401  0.5062
 7446TIP3   OH222273   4.100   4.304   5.061 -0.6056 -0.2406  0.1175
 7446TIP3    H122274   4.153   4.365   5.113  0.3746 -0.9947  0.0056
 7446TIP3    H222275   4.114   4.219   5.101 -0.4015 -0.7200 -0.9484
 7447TIP3   OH222276   2.323   5.661   5.160 -0.2316 -0.1275 -0.1418
 7447TIP3    H122277   2.368   5.578   5.175 -0.7245 -0.5337 -0.8953
 7447TIP3    H222278   2.297   5.690   5.247  2.0201  0.4252  0.3852
 7448TIP3   OH222279   1.255   3.190   6.674 -0.1413  0.1994  0.1754
 7448TIP3    H122280   1.257   3.175   6.768  0.2380 -2.3244 -0.1940
 7448TIP3    H222281   1.175   3.239   6.658 -0.3403  0.3970  1.7768
 7449TIP3   OH222282   2.218   3.893   5.916  0.0283 -0.0040 -0.0203
 7449TIP3    H122283   2.279   3.821   5.929 -1.0468 -0.4821  2.5600
 7449TIP3    H222284   2.156   3.860   5.851  0.9304 -0.4951 -0.6470
 7450TIP3   OH222285   4.509   1.363   3.568  0.0971 -0.1590  0.0255
 7450TIP3    H122286   4.595   1.383   3.605  1.2440  1.8992 -3.5920
 7450TIP3    H222287   4.448   1.415   3.621  0.9539 -1.8516  2.7934
 7451TIP3   OH222288   2.407   2.697   2.764 -0.0359  0.6845 -0.3084
 7451TIP3    H122289   2.453   2.779   2.745  1.1981 -0.4591 -2.4161
 7451TIP3    H222290   2.432   2.678   2.855  0.5833  2.0542 -0.1653
 7452TIP3   OH222291   3.671   4.677   1.592 -0.3001 -0.4998 -0.2948
 7452TIP3    H122292   3.646   4.666   1.500  0.8000 -1.6586 -0.4776
 7452TIP3    H222293   3.622   4.610   1.638 -1.5546  0.6775  0.1123
 7453TIP3   OH222294   1.022   4.032   4.451  0.3583  0.7057  0.5528
 7453TIP3    H122295   1.109   3.993   4.439  0.4376  0.4069  2.0267
 7453TIP3    H222296   0.997   4.062   4.363  1.4340 -0.2678 -0.1026
 7454TIP3   OH222297   1.852   2.537   5.531 -0.2502 -0.2663  0.4410
 7454TIP3    H122298   1.904   2.592   5.590 -0.4205  1.4830 -1.0229
 7454TIP3    H222299   1.911   2.466   5.506  0.5852  0.2879  0.8259
 7455TIP3   OH222300   2.480   6.345   6.768 -0.1935  0.0788 -0.4156
 7455TIP3    H122301   2.553   6.294   6.801 -0.8443 -0.4697  0.1964
 7455TIP3    H222302   2.519   6.404   6.703  1.1370  1.2857  1.4291
 7456TIP3   OH222303   2.776   5.302   5.265 -0.8183 -0.1078  0.0399
 7456TIP3    H122304   2.843   5.251   5.219  0.2750  1.5302 -0.2463
 7456TIP3    H222305   2.803   5.393   5.253 -2.1120  0.4952  1.4854
 7457TIP3   OH222306   7.689   6.204   5.429  0.4386  0.0314 -0.3997
 7457TIP3    H122307   7.749   6.234   5.360  0.2679  0.0921 -0.5210
 7457TIP3    H222308   7.602   6.212   5.390  0.2454  1.2444  0.2462
 7458TIP3   OH222309   8.118   0.825   0.348 -0.1764  0.1968  0.5527
 7458TIP3    H122310   8.210   0.841   0.325  0.3924 -2.6810  0.6018
 7458TIP3    H222311   8.070   0.844   0.268  0.6920 -0.0454 -0.0384
 7459TIP3   OH222312   0.926   4.937   4.311  0.1562 -0.4605  0.1808
 7459TIP3    H122313   0.886   4.856   4.344  0.2520 -0.1033  1.1867
 7459TIP3    H222314   1.016   4.934   4.345  0.2482 -0.0751 -0.0320
 7460TIP3   OH222315   2.525   4.985   6.136 -0.2578 -0.2265  0.0703
 7460TIP3    H122316   2.507   4.979   6.042  1.9160 -1.1370 -0.3142
 7460TIP3    H222317   2.528   4.894   6.166 -1.3628  0.0764  1.1112
 7461TIP3   OH222318   2.088   7.050   4.431 -0.4691  0.0729  0.2450
 7461TIP3    H122319   2.129   7.053   4.517 -2.3931  0.7718  1.1721
 7461TIP3    H222320   2.008   7.000   4.444 -0.5097 -0.2788 -1.2605
 7462TIP3   OH222321   3.098   5.483   5.674 -0.3057  0.0046 -0.0334
 7462TIP3    H122322   3.193   5.491   5.680 -0.4018 -0.1762  2.0697
 7462TIP3    H222323   3.084   5.419   5.604  1.0768  0.4325 -0.7408
 7463TIP3   OH222324   3.084   5.311   5.425  0.0156 -0.1713  0.1026
 7463TIP3    H122325   3.112   5.374   5.359 -1.9138  2.7238  1.9196
 7463TIP3    H222326   3.021   5.255   5.379 -0.7365  1.3335 -0.7297
 7464TIP3   OH222327   2.417   6.523   3.916  0.2955  0.3430  0.0311
 7464TIP3    H122328   2.417   6.484   4.003  0.4514  0.1540 -0.0526
 7464TIP3    H222329   2.496   6.578   3.914 -0.2297  1.1208  0.3503
 7465TIP3   OH222330   1.467   3.361   5.058  0.1727 -0.4691  0.1411
 7465TIP3    H122331   1.434   3.451   5.052  0.2233 -0.3952  0.9676
 7465TIP3    H222332   1.392   3.310   5.087  1.2260  0.0068  3.9584
 7466TIP3   OH222333   0.397   2.492   0.504  0.2232  0.2408 -0.2495
 7466TIP3    H122334   0.402   2.466   0.412  4.8525 -0.8225  0.1471
 7466TIP3    H222335   0.351   2.420   0.546  0.5613 -0.6280 -1.3302
 7467TIP3   OH222336   2.291   5.982   6.647 -0.7183 -0.0319  0.3467
 7467TIP3    H122337   2.379   5.984   6.684 -0.7720 -0.9263  0.5466
 7467TIP3    H222338   2.261   5.891   6.661 -1.2719 -0.0101 -0.6483
 7468TIP3   OH222339   3.707   3.504   4.242 -0.1335  0.0431 -0.2512
 7468TIP3    H122340   3.717   3.449   4.164 -0.4027  1.8192 -1.5765
 7468TIP3    H222341   3.661   3.448   4.305 -0.6253 -1.1677 -1.6547
 7469TIP3   OH222342   3.213   2.402   5.425 -0.1035  0.0812 -0.3040
 7469TIP3    H122343   3.245   2.442   5.507  0.8983 -0.8162 -0.2438
 7469TIP3    H222344   3.211   2.308   5.444  0.0707 -0.1225 -1.2881
 7470TIP3   OH222345   1.887   4.306   4.860  0.2290  0.5626  0.0687
 7470TIP3    H122346   1.971   4.261   4.869 -0.6510 -0.9986  0.7296
 7470TIP3    H222347   1.887   4.339   4.770  1.4776  0.4461  0.0141
 7471TIP3   OH222348   1.731   3.641   5.886 -0.5409  0.4555  0.3457
 7471TIP3    H122349   1.721   3.648   5.791  2.0406  0.9362  0.0914
 7471TIP3    H222350   1.760   3.551   5.900  1.0566  0.9735  0.4716
 7472TIP3   OH222351   8.338   4.303   4.013 -0.5693 -0.1552  0.2306
 7472TIP3    H122352   8.362   4.379   4.067  1.4943 -0.7260  0.1486
 7472TIP3    H222353   8.297   4.341   3.936 -3.2600  0.6941  1.9910
 7473TIP3   OH222354   2.498   2.989   4.878  0.4556 -0.0572  0.3284
 7473TIP3    H122355   2.403   3.001   4.872  0.5513  0.3048 -0.5046
 7473TIP3    H222356   2.533   3.078   4.880  0.8377 -0.1875 -0.3959
 7474TIP3   OH222357   3.452   3.967   4.052 -0.0342 -0.0454  0.4766
 7474TIP3    H122358   3.543   3.995   4.043  0.6362 -1.8193  1.4378
 7474TIP3    H222359   3.453   3.874   4.031 -1.6747 -0.0237  0.2432
 7475TIP3   OH222360   0.393   4.898   3.688  0.3070 -0.0771  0.2132
 7475TIP3    H122361   0.320   4.836   3.698  0.5646 -0.2904  0.7953
 7475TIP3    H222362   0.356   4.971   3.637 -0.2175 -0.3402  0.2164
 7476TIP3   OH222363   2.170   4.768   5.392  0.4843  0.2051  0.1288
 7476TIP3    H122364   2.220   4.727   5.322  0.7724 -0.9219  0.9893
 7476TIP3    H222365   2.092   4.713   5.402  0.6398  0.1313  0.9648
 7477TIP3   OH222366   2.577   3.144   6.533 -0.0680 -0.7025  0.4362
 7477TIP3    H122367   2.640   3.114   6.597 -0.5751 -0.1602  1.1972
 7477TIP3    H222368   2.502   3.175   6.585 -0.5046 -0.3156 -0.4069
 7478TIP3   OH222369   1.341   4.566   1.459 -0.0266  0.1656 -0.0925
 7478TIP3    H122370   1.321   4.520   1.541  1.8162 -1.9990 -0.8020
 7478TIP3    H222371   1.436   4.558   1.450 -0.4365 -1.6341 -3.5648
 7479TIP3   OH222372   0.627   5.616   2.242 -0.1116 -0.2648  0.4696
 7479TIP3    H122373   0.555   5.672   2.211 -1.1370 -1.6918  0.2106
 7479TIP3    H222374   0.642   5.644   2.332  2.1928  3.2152 -0.9155
 7480TIP3   OH222375   3.153   2.131   5.754  0.1449  0.3624  0.4397
 7480TIP3    H122376   3.074   2.146   5.805  0.2297  1.6708  0.1922
 7480TIP3    H222377   3.225   2.163   5.809  0.6889 -2.1962  1.3039
 7481TIP3   OH222378   2.254   3.458   5.745  0.4746  0.1608  0.3554
 7481TIP3    H122379   2.158   3.456   5.748  0.4839 -0.9115  0.1783
 7481TIP3    H222380   2.276   3.408   5.666  1.2058 -0.2651  0.8306
 7482TIP3   OH222381   1.975   5.271   4.451 -0.1241 -0.4425  0.9697
 7482TIP3    H122382   2.062   5.310   4.450 -1.1075  1.9233  2.5344
 7482TIP3    H222383   1.939   5.291   4.365  0.6784 -0.9615  0.5111
 7483TIP3   OH222384   3.877   2.843   4.493  0.6779  0.4886 -0.2001
 7483TIP3    H122385   3.783   2.826   4.489  0.3076  2.2015  0.6325
 7483TIP3    H222386   3.918   2.757   4.487 -0.9948 -0.3981  0.8384
 7484TIP3   OH222387   3.055   4.299   6.678 -0.1041  0.4193 -0.0719
 7484TIP3    H122388   3.025   4.375   6.628  2.1176  1.2861 -0.1208
 7484TIP3    H222389   3.130   4.331   6.728  0.0520 -1.4204  0.8989
 7485TIP3   OH222390   4.489   3.420   4.192  0.0215 -0.0719 -0.0581
 7485TIP3    H122391   4.396   3.416   4.169 -0.2415  0.5272  0.8784
 7485TIP3    H222392   4.490   3.431   4.287  1.0893 -2.3085  0.2344
 7486TIP3   OH222393   2.998   6.007   2.077 -0.5673 -0.6037 -0.1123
 7486TIP3    H122394   2.934   5.944   2.045  0.7206 -0.7153 -2.5722
 7486TIP3    H222395   3.051   5.958   2.139 -0.7258 -1.4530 -0.6362
 7487TIP3   OH222396   4.339   6.997   3.342  0.0448  0.7912 -0.1238
 7487TIP3    H122397   4.372   6.948   3.267  1.0094  0.4717  0.4874
 7487TIP3    H222398   4.418   7.034   3.383 -0.6712  2.7777 -0.5189
 7488TIP3   OH222399   3.441   5.160   3.825  0.3279  0.1274  0.4216
 7488TIP3    H122400   3.404   5.139   3.910 -2.0947  0.2708 -0.5624
 7488TIP3    H222401   3.413   5.089   3.767  1.7500  0.1420 -0.3205
 7489TIP3   OH222402   5.422   4.437   5.346  0.1168 -0.4920  0.4727
 7489TIP3    H122403   5.435   4.410   5.255 -0.3551  1.0272 -0.0595
 7489TIP3    H222404   5.328   4.423   5.362 -0.3430  1.6222 -0.1131
 7490TIP3   OH222405   4.703   4.285   3.349  0.3906 -0.3064 -0.1450
 7490TIP3    H122406   4.653   4.290   3.268 -0.5295  0.6211  0.4637
 7490TIP3    H222407   4.768   4.216   3.333  0.3648  0.0239 -1.7333
 7491TIP3   OH222408   4.630   5.225   5.810 -0.0012  0.1504 -0.0040
 7491TIP3    H122409   4.686   5.264   5.743 -0.8524  2.8812  0.8349
 7491TIP3    H222410   4.687   5.165   5.858  0.9022 -0.9557 -2.3779
 7492TIP3   OH222411   3.496   3.611   3.647 -0.1286 -0.3417 -0.3791
 7492TIP3    H122412   3.484   3.537   3.706  0.8611 -0.3041 -0.1166
 7492TIP3    H222413   3.579   3.651   3.675 -0.7502  0.9932 -0.3684
 7493TIP3   OH222414   4.958   3.757   3.550 -0.1861  0.0359  0.1587
 7493TIP3    H122415   5.031   3.805   3.588  1.3117 -1.1417 -1.1062
 7493TIP3    H222416   5.000   3.686   3.500 -2.2515 -1.5949  0.6634
 7494TIP3   OH222417   2.523   5.544   3.370 -0.1676 -0.3257 -0.4153
 7494TIP3    H122418   2.588   5.551   3.440  1.2621 -2.5032 -1.4575
 7494TIP3    H222419   2.442   5.574   3.409  0.9364 -0.0684  1.7301
 7495TIP3   OH222420   3.657   5.283   4.930  0.3684 -0.4876 -0.1219
 7495TIP3    H122421   3.628   5.231   4.854  0.7882  0.0361 -0.6408
 7495TIP3    H222422   3.678   5.218   4.997  0.4314 -0.9706 -0.6076
 7496TIP3   OH222423   4.152   3.721   5.850  0.4335  0.4696 -0.0930
 7496TIP3    H122424   4.148   3.771   5.768 -1.1459 -0.5121 -0.6435
 7496TIP3    H222425   4.062   3.690   5.863  0.7534  0.3260  1.8392
 7497TIP3   OH222426   5.018   3.682   4.297  0.5371 -0.4573  0.2687
 7497TIP3    H122427   5.035   3.591   4.323 -1.0454 -0.5574  1.0046
 7497TIP3    H222428   5.012   3.679   4.202  0.9265 -1.0427  0.2564
 7498TIP3   OH222429   4.431   6.107   3.915  0.4037 -0.0452 -0.3153
 7498TIP3    H122430   4.413   6.195   3.882  2.3907  0.2709 -0.6049
 7498TIP3    H222431   4.483   6.120   3.994  1.7307 -0.9651 -1.0140
 7499TIP3   OH222432   3.121   6.264   1.325 -0.8000  0.9320 -0.2453
 7499TIP3    H122433   3.189   6.330   1.310 -0.9460  1.2334  0.4364
 7499TIP3    H222434   3.150   6.188   1.274  1.3009  0.2096  1.9519
 7500TIP3   OH222435   4.963   4.482   4.316 -0.3150  0.5783 -0.0643
 7500TIP3    H122436   5.051   4.510   4.341  0.0229 -0.9746  0.5228
 7500TIP3    H222437   4.929   4.439   4.394 -1.1408  0.0973 -0.6861
 7501TIP3   OH222438   2.351   3.700   3.807  0.4945 -0.4111 -0.0273
 7501TIP3    H122439   2.372   3.756   3.732 -0.1643  1.2754  1.0200
 7501TIP3    H222440   2.305   3.625   3.769 -0.0837  0.5692 -1.2689
 7502TIP3   OH222441   3.493   3.218   3.488  0.7617  0.3311 -0.3859
 7502TIP3    H122442   3.493   3.174   3.572  2.5377  0.5975 -0.2385
 7502TIP3    H222443   3.401   3.244   3.475 -0.0220 -2.0237  0.2098
 7503TIP3   OH222444   3.386   2.900   5.313  0.1503  0.0109  0.4689
 7503TIP3    H122445   3.293   2.912   5.295  0.5682 -0.5050 -2.1446
 7503TIP3    H222446   3.424   2.988   5.303  0.0873  0.0747  0.7704
 7504TIP3   OH222447   4.681   3.261   3.057 -0.3549  0.0077  0.6624
 7504TIP3    H122448   4.672   3.171   3.087 -0.3786 -0.0085  0.6076
 7504TIP3    H222449   4.728   3.254   2.973 -0.8112  0.0069  0.4065
 7505TIP3   OH222450   4.616   5.381   3.474 -0.3415  0.4656  0.5723
 7505TIP3    H122451   4.670   5.315   3.432 -1.2635  0.1677 -0.1645
 7505TIP3    H222452   4.534   5.382   3.424  0.1198  3.0598 -0.2296
 7506TIP3   OH222453   5.192   5.811   4.072 -0.1802 -0.1015 -0.4067
 7506TIP3    H122454   5.155   5.844   4.154  1.2471 -1.0292  0.6374
 7506TIP3    H222455   5.274   5.859   4.062  1.1497 -2.1592  0.3177
 7507TIP3   OH222456   3.079   5.643   3.519 -0.0603 -0.6494 -0.6019
 7507TIP3    H122457   3.024   5.712   3.480  0.7752  0.0057 -0.6466
 7507TIP3    H222458   3.017   5.575   3.545 -1.0013  0.4638  0.1639
 7508TIP3   OH222459   3.982   5.094   5.932 -0.3874 -0.2982  0.4596
 7508TIP3    H122460   3.990   5.164   5.867 -0.6944  1.3124  2.0965
 7508TIP3    H222461   3.947   5.020   5.883  1.5853  0.1247 -1.6833
 7509TIP3   OH222462   3.986   4.247   0.666 -0.0054 -0.0347 -0.1371
 7509TIP3    H122463   4.031   4.189   0.727  1.5989  1.1829 -0.1174
 7509TIP3    H222464   3.899   4.261   0.704 -0.2313 -2.0125  0.0982
 7510TIP3   OH222465   3.742   6.291   4.512  0.3640 -0.1947 -0.2261
 7510TIP3    H122466   3.805   6.225   4.541  0.3458 -0.1874 -0.1711
 7510TIP3    H222467   3.740   6.281   4.416 -3.2978 -3.6359  0.0722
 7511TIP3   OH222468   4.338   4.948   5.216  0.0672 -0.1247  0.1779
 7511TIP3    H122469   4.352   4.905   5.301 -1.4092  0.4570  0.7325
 7511TIP3    H222470   4.255   4.912   5.184 -1.6880  2.8944  1.0711
 7512TIP3   OH222471   3.099   4.329   5.789  0.3756 -0.5127 -0.1778
 7512TIP3    H122472   3.006   4.334   5.812  0.7151  1.3875  0.8555
 7512TIP3    H222473   3.117   4.235   5.782 -1.5682 -0.9015 -0.1957
 7513TIP3   OH222474   3.614   2.781   4.549  0.0224  0.4116  0.2040
 7513TIP3    H122475   3.589   2.696   4.584  2.4961 -0.9927 -1.2297
 7513TIP3    H222476   3.571   2.786   4.464  1.2381 -0.1952 -0.4627
 7514TIP3   OH222477   2.282   4.032   3.444 -0.3543 -0.0160 -0.3138
 7514TIP3    H122478   2.228   4.107   3.418 -1.2430 -0.2782  0.7410
 7514TIP3    H222479   2.219   3.968   3.477  0.6573 -0.0042  1.7141
 7515TIP3   OH222480   3.343   4.488   3.431 -0.0234  0.1313  0.1182
 7515TIP3    H122481   3.270   4.476   3.370  1.0036  1.2785 -1.3721
 7515TIP3    H222482   3.394   4.408   3.423 -0.4935 -0.1874  0.2967
 7516TIP3   OH222483   3.359   4.702   5.920  0.2645  0.6216 -0.2895
 7516TIP3    H122484   3.435   4.714   5.977  0.1614 -0.1961  0.0333
 7516TIP3    H222485   3.342   4.608   5.922  0.4334  0.5449 -1.9189
 7517TIP3   OH222486   3.560   5.509   6.158  0.2151  0.3296 -0.3364
 7517TIP3    H122487   3.643   5.471   6.185 -0.3625 -1.2561 -0.7149
 7517TIP3    H222488   3.546   5.582   6.218  1.4632  0.0853  0.2672
 7518TIP3   OH222489   4.256   4.545   3.699 -0.2929 -0.0524 -0.3147
 7518TIP3    H122490   4.213   4.631   3.708 -0.2085  0.0004 -0.4214
 7518TIP3    H222491   4.233   4.499   3.780  0.2313  0.3198  0.0528
 7519TIP3   OH222492   4.987   4.841   6.851 -0.4598  0.2236 -0.5065
 7519TIP3    H122493   4.941   4.783   6.912  2.4819 -0.9424  0.7106
 7519TIP3    H222494   4.918   4.892   6.809 -2.5889  1.2705  3.9735
 7520TIP3   OH222495   4.168   5.256   4.001  0.6708  0.0016  0.1184
 7520TIP3    H122496   4.082   5.296   4.019  1.3975  1.0089  1.4126
 7520TIP3    H222497   4.172   5.181   4.059  0.6393 -0.0896  0.0031
 7521TIP3   OH222498   3.733   5.650   3.684  0.8903  0.5046 -0.3447
 7521TIP3    H122499   3.708   5.694   3.602  1.5533  0.7346 -0.4282
 7521TIP3    H222500   3.793   5.581   3.656  0.2408 -0.1469 -0.1601
 7522TIP3   OH222501   3.356   3.476   3.852 -0.3697  0.4432 -0.1232
 7522TIP3    H122502   3.260   3.474   3.849 -0.3420 -0.3173 -0.4367
 7522TIP3    H222503   3.380   3.400   3.904  0.1879 -1.0927 -2.5601
 7523TIP3   OH222504   1.822   4.232   2.737  0.5101  0.7366  0.1045
 7523TIP3    H122505   1.840   4.322   2.709 -0.7270  1.0761  0.3525
 7523TIP3    H222506   1.755   4.201   2.676  1.8852 -0.4855 -0.8047
 7524TIP3   OH222507   3.701   5.301   5.786  0.3407  0.6044 -0.1298
 7524TIP3    H122508   3.724   5.250   5.708  0.6223  0.1102  0.2756
 7524TIP3    H222509   3.623   5.350   5.760  0.3136  0.2820 -0.6610
 7525TIP3   OH222510   3.634   4.409   5.012  0.5013 -0.1542  0.0190
 7525TIP3    H122511   3.711   4.416   4.955 -1.1743  0.2786 -2.2631
 7525TIP3    H222512   3.575   4.350   4.965 -1.2713  0.8861  0.9140
 7526TIP3   OH222513   5.736   3.384   5.070 -0.1707 -0.9441  0.1663
 7526TIP3    H122514   5.777   3.470   5.070 -1.2293 -0.4379 -0.5838
 7526TIP3    H222515   5.644   3.401   5.094 -0.2556 -1.9177  0.5574
 7527TIP3   OH222516   2.124   4.468   5.099  0.7364  0.6284 -0.0881
 7527TIP3    H122517   2.168   4.427   5.173  1.5570 -0.0304 -0.9412
 7527TIP3    H222518   2.160   4.557   5.095  0.5869  0.7088  0.3917
 7528TIP3   OH222519   5.502   5.889   2.683  0.1116 -0.4143 -0.4749
 7528TIP3    H122520   5.503   5.832   2.760  1.9888  0.9510  0.5412
 7528TIP3    H222521   5.437   5.957   2.704 -1.0048 -1.2857 -1.0502
 7529TIP3   OH222522   6.367   5.568   3.481 -0.0535 -0.3084 -0.2639
 7529TIP3    H122523   6.358   5.568   3.576  1.8671  0.0082 -0.0500
 7529TIP3    H222524   6.278   5.581   3.448 -0.9592 -1.9057  1.4422
 7530TIP3   OH222525   3.430   3.380   2.281 -0.1684 -0.1712  0.3491
 7530TIP3    H122526   3.450   3.458   2.333 -0.0024 -0.4214  0.6585
 7530TIP3    H222527   3.429   3.412   2.191  0.7714  0.0172  0.4000
 7531TIP3   OH222528   4.163   2.581   5.234 -0.3436 -0.2965  0.2799
 7531TIP3    H122529   4.093   2.580   5.169  0.0252 -0.5252 -0.1202
 7531TIP3    H222530   4.120   2.605   5.315 -0.3585  2.7290 -0.5689
 7532TIP3   OH222531   2.953   1.953   3.760  0.3836 -0.8969 -0.0455
 7532TIP3    H122532   2.990   1.867   3.739  1.0295 -0.3043 -1.4167
 7532TIP3    H222533   3.015   2.016   3.722 -0.6623  0.1529 -0.0577
 7533TIP3   OH222534   4.644   4.069   6.757 -0.1291  0.1281 -0.1835
 7533TIP3    H122535   4.720   4.047   6.810  1.9121  3.8107 -1.4538
 7533TIP3    H222536   4.653   4.016   6.678  1.8453  1.4965 -0.8951
 7534TIP3   OH222537   1.944   1.850   1.648 -0.9955  0.8925 -0.1466
 7534TIP3    H122538   1.910   1.929   1.689 -0.8716  1.6657 -1.4898
 7534TIP3    H222539   1.874   1.821   1.589 -0.5764  0.6696 -0.5371
 7535TIP3   OH222540   2.561   4.864   4.864  0.6041  0.4159 -0.2497
 7535TIP3    H122541   2.517   4.792   4.818  1.2821 -1.3849  1.8313
 7535TIP3    H222542   2.490   4.920   4.894 -0.1529 -1.2572  1.1217
 7536TIP3   OH222543   6.124   4.046   6.218 -0.1372  0.4081 -0.5078
 7536TIP3    H122544   6.101   4.076   6.306 -0.9296  1.0218 -0.9228
 7536TIP3    H222545   6.147   3.954   6.230 -0.7616  0.3418  0.2581
 7537TIP3   OH222546   2.763   2.486   3.317  0.3733 -0.0153  0.4455
 7537TIP3    H122547   2.720   2.479   3.232 -1.0053  0.0145  1.1214
 7537TIP3    H222548   2.766   2.580   3.335 -0.5323 -0.0821  1.0062
 7538TIP3   OH222549   3.651   4.444   3.968 -0.3202  0.6570 -1.1900
 7538TIP3    H122550   3.592   4.519   3.979 -1.4244 -0.3228 -0.2929
 7538TIP3    H222551   3.600   4.382   3.916  0.1903  0.0839 -1.0052
 7539TIP3   OH222552   2.726   3.158   3.204  0.3674 -0.1250  0.4249
 7539TIP3    H122553   2.762   3.117   3.126 -0.9266 -3.1755  1.3789
 7539TIP3    H222554   2.635   3.177   3.181  0.9296  2.2607  0.0150
 7540TIP3   OH222555   4.615   5.515   4.187  0.0017 -0.2348  0.2487
 7540TIP3    H122556   4.660   5.447   4.137 -2.5197 -0.7455 -1.3958
 7540TIP3    H222557   4.588   5.579   4.122  1.5221  1.9243  1.6729
 7541TIP3   OH222558   4.615   4.487   6.687  0.2226  0.4064 -0.2434
 7541TIP3    H122559   4.580   4.561   6.735 -0.9731  0.8244 -1.7135
 7541TIP3    H222560   4.661   4.525   6.612 -0.6470 -0.3365 -1.1707
 7542TIP3   OH222561   3.676   4.050   3.952  0.0886 -0.1139  0.0670
 7542TIP3    H122562   3.753   4.037   3.896  1.1790  1.5753  1.1334
 7542TIP3    H222563   3.643   4.136   3.926 -0.8798 -0.4242  0.2804
 7543TIP3   OH222564   5.313   4.495   4.245 -0.1561 -0.0086  0.1735
 7543TIP3    H122565   5.381   4.430   4.261  0.3668  0.7801  1.2500
 7543TIP3    H222566   5.267   4.503   4.329  0.9810  2.3572  0.6262
 7544TIP3   OH222567   3.380   4.575   4.353  0.0862 -0.2468 -0.4050
 7544TIP3    H122568   3.324   4.568   4.431  0.1857  0.3752 -0.2719
 7544TIP3    H222569   3.324   4.546   4.281 -1.2705  2.7981 -0.6404
 7545TIP3   OH222570   3.828   4.578   3.761 -0.3526 -0.4860  0.2910
 7545TIP3    H122571   3.774   4.657   3.770  2.5502  1.4931  0.8083
 7545TIP3    H222572   3.799   4.521   3.832 -2.8239 -0.1702 -0.3852
 7546TIP3   OH222573   4.148   2.908   2.118  0.0601 -0.1950 -0.1347
 7546TIP3    H122574   4.181   2.880   2.203 -0.5563  0.2191  0.2400
 7546TIP3    H222575   4.054   2.920   2.131  0.4347  2.9165 -0.0693
 7547TIP3   OH222576   4.960   5.764   2.787  0.1629  0.1879  0.2511
 7547TIP3    H122577   4.998   5.676   2.778  2.3179  1.0065  1.1083
 7547TIP3    H222578   5.010   5.817   2.725  0.8082  1.4004  1.7986
 7548TIP3   OH222579   4.149   2.489   4.034  0.0170 -0.0386 -0.2983
 7548TIP3    H122580   4.077   2.458   4.089 -0.4751  0.8870 -0.4103
 7548TIP3    H222581   4.149   2.429   3.959 -1.6345  0.8772 -1.0472
 7549TIP3   OH222582   4.152   4.251   2.672 -0.4205  0.2268  0.6395
 7549TIP3    H122583   4.232   4.302   2.659 -0.3527  0.6737  2.6033
 7549TIP3    H222584   4.175   4.189   2.742 -1.0022 -1.4295 -0.5840
 7550TIP3   OH222585   2.273   5.405   4.871  0.1469  0.2142  0.2040
 7550TIP3    H122586   2.194   5.355   4.852 -0.5447 -0.2554  4.0916
 7550TIP3    H222587   2.242   5.495   4.884  0.6788  0.6146 -1.1200
 7551TIP3   OH222588   3.483   3.994   5.952 -0.0373 -0.1761 -0.0721
 7551TIP3    H122589   3.440   3.923   5.905 -1.6128  0.4055  0.4662
 7551TIP3    H222590   3.496   3.959   6.041  0.6352 -0.3515 -0.2324
 7552TIP3   OH222591   3.977   4.611   4.265  0.8655 -0.0797 -0.5601
 7552TIP3    H122592   4.067   4.596   4.293  1.0033  0.7722 -0.5101
 7552TIP3    H222593   3.984   4.669   4.189  0.4103 -0.9502 -1.2666
 7553TIP3   OH222594   5.449   4.648   2.415 -0.7363 -0.4763  0.0753
 7553TIP3    H122595   5.441   4.554   2.426  0.1756 -0.3800  1.6294
 7553TIP3    H222596   5.416   4.665   2.326  0.4871 -2.4245 -0.7708
 7554TIP3   OH222597   5.163   3.892   4.087 -0.0423  0.7054  0.2318
 7554TIP3    H122598   5.160   3.801   4.059 -2.5888  0.8892 -0.2518
 7554TIP3    H222599   5.126   3.941   4.013 -0.9938  1.8453  1.4276
 7555TIP3   OH222600   1.730   1.812   5.112 -0.2393  0.2051  0.1396
 7555TIP3    H122601   1.708   1.758   5.187 -0.6717 -0.9613 -0.8140
 7555TIP3    H222602   1.656   1.803   5.052  0.1089  1.0903 -0.4560
 7556TIP3   OH222603   4.504   4.307   3.893  0.1280 -0.4384  0.1681
 7556TIP3    H122604   4.562   4.254   3.948  0.4246 -1.3701 -0.9972
 7556TIP3    H222605   4.532   4.397   3.907  0.3928 -0.6970  1.3146
 7557TIP3   OH222606   3.207   4.764   3.121  0.4865  0.0633 -0.8277
 7557TIP3    H122607   3.243   4.696   3.177  0.7389  2.2499  1.8056
 7557TIP3    H222608   3.115   4.771   3.146  0.0993 -0.2590 -2.1001
 7558TIP3   OH222609   3.549   4.265   3.796 -0.5355  0.2913 -0.2870
 7558TIP3    H122610   3.610   4.226   3.733  1.3108  1.3874  0.7583
 7558TIP3    H222611   3.481   4.305   3.743 -0.1227 -0.6109 -1.5065
 7559TIP3   OH222612   6.377   7.040   3.348  0.1306  0.4043 -0.2049
 7559TIP3    H122613   6.281   7.039   3.343  0.0790 -1.8982  0.2835
 7559TIP3    H222614   6.406   7.048   3.258 -0.6272 -5.0945 -1.1546
 7560TIP3   OH222615   4.365   4.906   3.192 -0.3041 -0.2020  0.7047
 7560TIP3    H122616   4.436   4.866   3.241 -0.5373  0.5127  1.6347
 7560TIP3    H222617   4.393   4.997   3.181  0.5062 -0.7152 -1.8996
 7561TIP3   OH222618   2.441   5.489   2.675 -0.0042  0.1139 -1.1352
 7561TIP3    H122619   2.484   5.574   2.667 -0.6712  0.2211 -3.7620
 7561TIP3    H222620   2.487   5.433   2.613 -1.0956 -0.8083 -1.1244
 7562TIP3   OH222621   3.987   4.050   5.458 -0.1307  0.1387 -0.2790
 7562TIP3    H122622   3.963   4.143   5.460  1.4670  0.5350  3.2887
 7562TIP3    H222623   4.033   4.039   5.375  1.9210  3.1569  0.3756
 7563TIP3   OH222624   4.562   4.429   3.096  0.0637 -0.5801 -0.7835
 7563TIP3    H122625   4.619   4.443   3.020 -0.7416 -0.6233 -1.4040
 7563TIP3    H222626   4.474   4.447   3.064 -0.4867 -2.3261 -0.3532
 7564TIP3   OH222627   3.634   4.074   5.011  0.4475 -0.1831 -0.0307
 7564TIP3    H122628   3.634   3.981   5.034 -1.7942 -0.1118  0.4315
 7564TIP3    H222629   3.616   4.075   4.917 -0.1730 -0.2100  0.0847
 7565TIP3   OH222630   2.438   4.854   2.785  0.2362  0.0932 -0.3418
 7565TIP3    H122631   2.522   4.828   2.747  0.8559  0.2226  0.9141
 7565TIP3    H222632   2.384   4.877   2.709  1.8496  1.5357 -1.0925
 7566TIP3   OH222633   3.025   4.847   6.513  0.0488 -0.1264  0.0753
 7566TIP3    H122634   2.975   4.926   6.493 -0.8934 -1.0912 -1.4453
 7566TIP3    H222635   3.111   4.863   6.472 -1.2906 -1.3422 -3.3787
 7567TIP3   OH222636   3.694   4.187   3.334  0.2085  0.1641  0.5136
 7567TIP3    H122637   3.611   4.203   3.379 -0.4482 -0.8589 -0.3342
 7567TIP3    H222638   3.713   4.095   3.350  0.3259 -0.0287 -0.7257
 7568TIP3   OH222639   2.052   1.324   2.194 -0.0462 -0.0841  0.1855
 7568TIP3    H122640   1.981   1.361   2.142 -0.1391 -0.8167 -0.2182
 7568TIP3    H222641   2.122   1.388   2.189 -0.4768  0.3811  0.1149
 7569TIP3   OH222642   2.902   4.115   4.100 -0.2541 -0.0415 -0.0507
 7569TIP3    H122643   2.971   4.109   4.033  0.5151 -0.1229  0.7439
 7569TIP3    H222644   2.828   4.155   4.054 -0.5084 -2.1455 -1.5706
 7570TIP3   OH222645   1.955   2.350   2.778  0.1426  0.0487 -0.1627
 7570TIP3    H122646   1.966   2.380   2.869 -0.2177  0.6468 -0.3108
 7570TIP3    H222647   1.943   2.255   2.785 -3.2082  0.4875  0.7116
 7571TIP3   OH222648   4.838   1.498   2.140  0.3082 -0.1765 -0.4188
 7571TIP3    H122649   4.746   1.476   2.154  0.4342  0.1336  0.9597
 7571TIP3    H222650   4.880   1.414   2.121 -0.0991 -0.4370 -0.1746
 7572TIP3   OH222651   4.639   3.087   4.993  0.3446  0.5426  0.1158
 7572TIP3    H122652   4.679   3.104   5.079 -2.1607 -3.6346  2.2902
 7572TIP3    H222653   4.702   3.029   4.949  0.0486 -0.1840  0.6247
 7573TIP3   OH222654   6.220   3.435   5.101  0.1276  0.1416  0.1618
 7573TIP3    H122655   6.256   3.359   5.054  0.5785  0.9890 -0.8742
 7573TIP3    H222656   6.125   3.420   5.102  0.1453 -0.0411 -0.7474
 7574TIP3   OH222657   5.189   2.248   5.664  0.1643 -0.1874  0.3807
 7574TIP3    H122658   5.203   2.180   5.598 -0.4014  0.5122 -0.4693
 7574TIP3    H222659   5.117   2.301   5.628 -0.0706  0.2597  1.5053
 7575TIP3   OH222660   3.439   2.509   4.624  0.2940 -0.1640  0.5583
 7575TIP3    H122661   3.354   2.480   4.658 -0.1079  0.6658  0.2599
 7575TIP3    H222662   3.498   2.503   4.699 -0.9330  3.2196  1.9033
 7576TIP3   OH222663   5.164   4.278   5.396 -0.6175 -0.3820 -0.2520
 7576TIP3    H122664   5.148   4.281   5.302  1.3176 -1.8321 -0.6676
 7576TIP3    H222665   5.179   4.185   5.415  0.9442  0.1196  1.1192
 7577TIP3   OH222666   4.526   3.830   5.452  1.1071  0.4273 -0.0011
 7577TIP3    H122667   4.550   3.878   5.531  0.7491  0.2135  0.2343
 7577TIP3    H222668   4.489   3.748   5.483 -0.4152  0.9711 -0.3511
 7578TIP3   OH222669   3.014   4.562   4.159 -0.1121  0.3451  0.3534
 7578TIP3    H122670   3.020   4.598   4.248 -2.5279 -1.0696  1.1637
 7578TIP3    H222671   2.943   4.497   4.165 -0.2131  0.1279 -2.5827
 7579TIP3   OH222672   1.274   3.443   1.465  1.2338 -0.1050  0.4827
 7579TIP3    H122673   1.213   3.401   1.405  2.1129  0.9811 -1.2062
 7579TIP3    H222674   1.218   3.487   1.530  0.2576 -0.1362 -0.3358
 7580TIP3   OH222675   4.798   3.362   3.710  0.3007  0.2725 -0.0020
 7580TIP3    H122676   4.770   3.312   3.787 -0.3585  1.0822  0.2819
 7580TIP3    H222677   4.749   3.443   3.715 -0.6193 -0.1545 -1.9276
 7581TIP3   OH222678   3.927   4.295   3.431 -0.3558  0.5154  0.1743
 7581TIP3    H122679   3.862   4.249   3.378 -1.3634  2.6046 -0.4394
 7581TIP3    H222680   3.886   4.379   3.452  1.3836  1.0791  1.4100
 7582TIP3   OH222681   3.481   2.122   3.227  0.4697 -0.0047  0.3482
 7582TIP3    H122682   3.494   2.192   3.162  0.5486 -1.5491 -1.3510
 7582TIP3    H222683   3.458   2.168   3.307  1.2110  2.0185 -0.5550
 7583TIP3   OH222684   3.551   3.532   1.370  0.1911 -0.0517 -0.0726
 7583TIP3    H122685   3.595   3.487   1.297  0.9449 -1.5084  1.2497
 7583TIP3    H222686   3.600   3.505   1.447 -1.5137  0.3121  1.1500
 7584TIP3   OH222687   3.486   2.204   4.644  0.3798  0.1871 -0.2852
 7584TIP3    H122688   3.563   2.219   4.700  0.6215  0.4896 -0.6932
 7584TIP3    H222689   3.437   2.135   4.688  0.3284  0.7482  0.5419
 7585TIP3   OH222690   3.776   3.708   3.949 -0.2158 -0.3126  0.6892
 7585TIP3    H122691   3.843   3.642   3.932  0.2250  0.2116  0.3815
 7585TIP3    H222692   3.814   3.763   4.018  0.0587  0.5420 -0.1436
 7586TIP3   OH222693   7.730   2.161   0.013 -0.0121  0.4410 -0.1802
 7586TIP3    H122694   7.763   2.236  -0.037 -0.3559 -0.5659 -1.9443
 7586TIP3    H222695   7.808   2.110   0.034  0.0705  0.5547 -0.2113
 7587TIP3   OH222696   3.172   3.368   6.781 -0.6945  0.0881 -0.5424
 7587TIP3    H122697   3.101   3.303   6.785  0.4380 -1.1976 -0.9273
 7587TIP3    H222698   3.136   3.440   6.729 -1.2221 -1.2053 -2.0091
 7588TIP3   OH222699   4.134   6.238   4.064 -0.3546  0.6052  0.0629
 7588TIP3    H122700   4.143   6.270   3.974  2.4225 -0.4986 -0.1082
 7588TIP3    H222701   4.084   6.157   4.055 -0.9971  1.0361 -0.3489
 7589TIP3   OH222702   2.525   0.049   0.753 -0.0506  0.0132  0.3100
 7589TIP3    H122703   2.445   0.086   0.792  1.0580  1.2235  1.5001
 7589TIP3    H222704   2.594   0.068   0.818  0.8590 -2.7177  0.1956
 7590TIP3   OH222705   3.859   5.724   1.584  0.2997 -0.2388 -0.3885
 7590TIP3    H122706   3.891   5.655   1.643  0.5687 -0.2769 -0.5790
 7590TIP3    H222707   3.802   5.678   1.523 -0.0471 -0.1862 -0.1084
 7591TIP3   OH222708   3.037   4.953   5.665  0.0182  0.1322 -0.0731
 7591TIP3    H122709   3.039   5.011   5.741  1.8585  0.0106  0.0034
 7591TIP3    H222710   3.041   5.013   5.590  0.3565  0.1753 -0.0232
 7592TIP3   OH222711   3.365   5.139   4.089 -0.1867 -0.2814  0.1048
 7592TIP3    H122712   3.338   5.060   4.135 -1.8494  1.2287  1.8217
 7592TIP3    H222713   3.292   5.200   4.102  0.9239  1.4130 -1.4563
 7593TIP3   OH222714   4.669   4.982   6.477 -0.3587  0.1220  0.5295
 7593TIP3    H122715   4.631   5.026   6.401  0.5555 -0.8400 -0.5190
 7593TIP3    H222716   4.603   4.917   6.502 -0.9153  0.8416  0.9229
 7594TIP3   OH222717   3.335   4.632   3.669  0.0139 -0.1792 -0.2450
 7594TIP3    H122718   3.239   4.633   3.671  0.0097 -1.0552  1.8414
 7594TIP3    H222719   3.358   4.611   3.579 -1.7789 -0.5866 -0.6198
 7595TIP3   OH222720   5.228   3.951   5.111  0.2151 -0.0483 -0.4355
 7595TIP3    H122721   5.208   3.928   5.202 -1.1088  1.2059 -0.3924
 7595TIP3    H222722   5.186   3.882   5.059  0.7986 -0.6549 -0.1085
 7596TIP3   OH222723   2.134   5.299   5.160  0.3402  0.3339 -0.2577
 7596TIP3    H122724   2.162   5.213   5.191  0.5887  0.5350  0.0868
 7596TIP3    H222725   2.099   5.283   5.073  1.0692 -0.0053 -0.4995
 7597TIP3   OH222726   4.835   2.357   3.698 -0.7259 -0.0652  0.4004
 7597TIP3    H122727   4.908   2.304   3.729 -0.7725  0.1764  0.9415
 7597TIP3    H222728   4.813   2.321   3.612  1.1418  0.9499 -0.5369
 7598TIP3   OH222729   5.170   4.689   6.304 -0.1959 -0.4108 -0.6663
 7598TIP3    H122730   5.076   4.686   6.287 -0.5726 -0.2475  1.3047
 7598TIP3    H222731   5.189   4.608   6.352  0.5940 -0.2187 -0.6373
 7599TIP3   OH222732   3.081   3.615   2.249  0.1037 -0.5519 -0.2097
 7599TIP3    H122733   3.101   3.708   2.255 -0.9493 -0.3970  0.8307
 7599TIP3    H222734   3.003   3.602   2.303 -0.6721 -1.7649 -1.5723
 7600TIP3   OH222735   8.026   7.056   0.728 -0.2463  0.0910  0.7384
 7600TIP3    H122736   7.980   7.008   0.796  1.6158  0.7358  2.5015
 7600TIP3    H222737   8.032   7.146   0.762  0.5272  0.4689 -0.3536
 7601TIP3   OH222738   5.508   3.339   2.885  0.0581  0.3359  0.2701
 7601TIP3    H122739   5.599   3.367   2.874 -0.5021  1.5937 -1.3273
 7601TIP3    H222740   5.491   3.350   2.979  1.6199 -0.1048  0.6063
 7602TIP3   OH222741   4.822   3.533   5.745 -0.0443  0.0150  0.4852
 7602TIP3    H122742   4.867   3.481   5.811  0.6748 -0.3023 -0.2481
 7602TIP3    H222743   4.878   3.528   5.668 -0.0638  1.7032  0.3337
 7603TIP3   OH222744   5.282   3.626   4.503 -0.0659  0.2375 -0.0478
 7603TIP3    H122745   5.207   3.578   4.468  0.7147 -1.5816  0.7011
 7603TIP3    H222746   5.263   3.635   4.596 -0.4764  1.9252 -0.2848
 7604TIP3   OH222747   2.441   5.284   4.686 -0.2405 -0.1248  0.5733
 7604TIP3    H122748   2.483   5.366   4.662  2.1132 -0.6325  2.7433
 7604TIP3    H222749   2.386   5.306   4.761 -0.7379 -0.2653  0.2560
 7605TIP3   OH222750   4.154   4.134   6.330  0.2748  0.6289  0.0582
 7605TIP3    H122751   4.125   4.082   6.255 -0.3258 -0.6159  1.1478
 7605TIP3    H222752   4.128   4.083   6.407  1.6809  1.4593  1.1106
 7606TIP3   OH222753   7.762   7.312   0.217 -0.4995  0.1166  0.3769
 7606TIP3    H122754   7.804   7.279   0.137  1.1453  1.5817  0.5908
 7606TIP3    H222755   7.765   7.239   0.278  1.9139  0.2176  0.4259
 7607TIP3   OH222756   3.064   3.143   4.413 -0.4474  0.3134 -0.6136
 7607TIP3    H122757   3.133   3.109   4.356  0.2055  0.6806 -0.0463
 7607TIP3    H222758   3.010   3.066   4.434 -0.2458  0.0387 -1.1130
 7608TIP3   OH222759   5.223   3.994   5.427 -0.1611  0.0597  0.0131
 7608TIP3    H122760   5.270   3.931   5.482 -0.8014  0.4592  1.0109
 7608TIP3    H222761   5.137   3.954   5.413  0.4746 -0.7175 -1.9008
 7609TIP3   OH222762   5.384   3.236   3.780 -0.2860  0.5462  0.4094
 7609TIP3    H122763   5.356   3.275   3.863 -0.0749 -1.7486  1.6193
 7609TIP3    H222764   5.469   3.195   3.800  0.7608  1.7155 -1.4880
 7610TIP3   OH222765   5.114   4.077   6.120  0.3985  0.4407 -0.5567
 7610TIP3    H122766   5.125   4.147   6.056 -0.1838  0.3870 -0.7170
 7610TIP3    H222767   5.150   3.999   6.078 -1.7900 -0.0375 -1.6280
 7611TIP3   OH222768   0.609   1.392   0.383 -0.0856  0.0275 -0.3841
 7611TIP3    H122769   0.656   1.343   0.315 -0.8205 -0.9206 -0.2230
 7611TIP3    H222770   0.591   1.327   0.451  0.8656  1.0361  0.8415
 7612TIP3   OH222771   7.261   4.205   5.812  0.0116 -0.2785 -0.2468
 7612TIP3    H122772   7.355   4.212   5.829 -0.2862  1.3946  0.8407
 7612TIP3    H222773   7.224   4.178   5.896 -0.4206 -1.6325 -0.8557
 7613TIP3   OH222774   4.334   3.104   5.722  0.2692  0.2625 -0.4920
 7613TIP3    H122775   4.324   3.115   5.628  2.5170 -0.9260 -0.8994
 7613TIP3    H222776   4.350   3.010   5.734  1.5485  0.6394  0.9043
 7614TIP3   OH222777   3.056   5.034   2.555 -0.7727 -0.1824  0.1756
 7614TIP3    H122778   2.991   5.051   2.487 -0.7393  1.4289  0.5384
 7614TIP3    H222779   3.075   5.120   2.593  0.8362 -0.7696  0.7456
 7615TIP3   OH222780   4.447   1.261   3.315  0.1981  0.2293  0.1455
 7615TIP3    H122781   4.463   1.287   3.406  0.7322 -2.2017  0.7733
 7615TIP3    H222782   4.352   1.272   3.304  0.1385  0.6092  0.9622
 7616TIP3   OH222783   3.912   3.981   3.850  0.3439  0.3525 -0.4845
 7616TIP3    H122784   3.959   3.911   3.805  1.7401  1.0414 -0.1398
 7616TIP3    H222785   3.952   3.985   3.937  0.1037  1.4033 -0.4147
 7617TIP3   OH222786   4.240   3.372   5.323 -0.7726 -0.2756  0.0875
 7617TIP3    H122787   4.157   3.382   5.368 -0.4980  0.4011  0.4457
 7617TIP3    H222788   4.216   3.354   5.232 -1.3185  1.9821 -0.2582
 7618TIP3   OH222789   5.821   4.570   2.462  0.0229 -0.5671 -0.5532
 7618TIP3    H122790   5.847   4.640   2.523 -0.1347 -0.8423 -0.1652
 7618TIP3    H222791   5.845   4.603   2.376  0.0901 -0.0970 -0.3566
 7619TIP3   OH222792   6.428   5.990   3.331 -0.1591  0.2500 -0.7633
 7619TIP3    H122793   6.367   5.917   3.320  0.8548 -0.4172 -1.9575
 7619TIP3    H222794   6.508   5.951   3.365  0.5843  0.7051 -1.9517
 7620TIP3   OH222795   5.206   5.190   5.718 -0.2998 -0.0867 -0.2043
 7620TIP3    H122796   5.291   5.208   5.757 -0.2472  2.6734 -1.4734
 7620TIP3    H222797   5.226   5.159   5.630 -0.5883 -0.1715 -0.2393
 7621TIP3   OH222798   3.823   4.644   4.765 -0.3059  0.8296  0.1185
 7621TIP3    H122799   3.822   4.602   4.850 -0.4720 -0.2129 -0.3873
 7621TIP3    H222800   3.889   4.597   4.715 -0.1301  1.5052 -0.2933
 7622TIP3   OH222801   6.808   4.587   3.652  0.2358  0.1009  0.4258
 7622TIP3    H122802   6.815   4.570   3.558 -1.0974  0.6244  0.2171
 7622TIP3    H222803   6.871   4.527   3.692 -0.3592 -1.2985 -0.6986
 7623TIP3   OH222804   4.535   5.011   5.636  0.7111 -0.4493 -0.5076
 7623TIP3    H122805   4.581   5.071   5.694 -0.6833  0.3461 -0.1941
 7623TIP3    H222806   4.528   4.930   5.686 -1.7176  0.6629  1.0319
 7624TIP3   OH222807   3.344   3.688   4.526 -0.7623 -0.7415 -0.1442
 7624TIP3    H122808   3.308   3.742   4.597  0.8058 -0.0514  0.1623
 7624TIP3    H222809   3.403   3.748   4.479 -2.5109 -0.9207 -2.6315
 7625TIP3   OH222810   4.440   5.072   2.826  0.0259 -0.4309  0.4544
 7625TIP3    H122811   4.493   5.036   2.755  1.1487  0.0284  1.0401
 7625TIP3    H222812   4.394   5.146   2.787  1.3208  0.3713  0.4071
 7626TIP3   OH222813   7.912   5.753   4.187 -0.5230 -0.1273  0.0634
 7626TIP3    H122814   7.944   5.776   4.100 -0.4368  1.5810  0.5285
 7626TIP3    H222815   7.872   5.833   4.219 -1.6742 -1.1105  1.1036
 7627TIP3   OH222816   2.923   4.625   4.812 -0.2332  0.0354  0.1272
 7627TIP3    H122817   2.891   4.709   4.843 -0.1768  0.0016  0.2783
 7627TIP3    H222818   3.016   4.640   4.795 -0.1898 -0.0368  0.3003
 7628TIP3   OH222819   1.691   4.199   3.201 -0.0072 -0.3417  0.4285
 7628TIP3    H122820   1.702   4.157   3.287  0.3306 -1.1539 -0.0073
 7628TIP3    H222821   1.758   4.158   3.146 -0.0454  0.3787 -0.1529
 7629TIP3   OH222822   2.717   2.830   2.195  0.6773 -0.2226  0.6942
 7629TIP3    H122823   2.636   2.789   2.164  1.4250  0.1180 -1.8521
 7629TIP3    H222824   2.703   2.924   2.181  2.2795 -0.2924 -1.8831
 7630TIP3   OH222825   4.659   4.038   5.970 -0.0480 -0.2874  0.4375
 7630TIP3    H122826   4.575   4.052   6.012 -0.1456 -0.7219  0.3868
 7630TIP3    H222827   4.689   4.126   5.945  0.0147 -0.0315  1.4118
 7631TIP3   OH222828   3.161   3.676   5.711 -0.1782  0.1518  0.1402
 7631TIP3    H122829   3.190   3.596   5.668  1.9827  0.8659  0.1609
 7631TIP3    H222830   3.116   3.726   5.643  0.6795  0.0054 -0.5360
 7632TIP3   OH222831   6.045   3.802   6.382  0.7152 -0.2000 -0.2231
 7632TIP3    H122832   6.005   3.742   6.318 -1.0008  0.8988 -0.2034
 7632TIP3    H222833   5.978   3.812   6.450  1.6869  0.3664  0.6618
 7633TIP3   OH222834   4.800   4.472   2.137 -0.2401 -0.0818  0.2170
 7633TIP3    H122835   4.743   4.406   2.099  3.8243 -2.4005 -2.2434
 7633TIP3    H222836   4.832   4.523   2.062  0.0824  1.8499  1.6234
 7634TIP3   OH222837   5.494   3.552   4.336  0.0072 -0.0100  0.4896
 7634TIP3    H122838   5.504   3.579   4.245  0.4343 -2.1617 -0.1222
 7634TIP3    H222839   5.402   3.567   4.355 -0.1687  0.0957 -0.4098
 7635TIP3   OH222840   3.470   3.563   3.344  0.1864 -0.3790 -0.6186
 7635TIP3    H122841   3.540   3.551   3.409 -0.7266  1.9006  0.8563
 7635TIP3    H222842   3.389   3.562   3.396 -0.5964  0.9298 -1.7802
 7636TIP3   OH222843   1.882   3.887   5.534 -0.0217 -0.7011 -0.8474
 7636TIP3    H122844   1.936   3.814   5.504  0.1231 -0.1597 -1.9350
 7636TIP3    H222845   1.808   3.845   5.578  1.3246 -1.4439  0.7867
 7637TIP3   OH222846   4.971   5.671   3.940  0.2731 -0.0578 -0.1678
 7637TIP3    H122847   4.974   5.578   3.921  1.6768  0.0520 -0.4983
 7637TIP3    H222848   5.033   5.683   4.012  1.3088  0.8646 -1.2021
 7638TIP3   OH222849   2.778   4.882   5.555 -0.1969  0.0123  0.3751
 7638TIP3    H122850   2.766   4.949   5.488 -0.6895 -0.4137  0.0349
 7638TIP3    H222851   2.794   4.931   5.636 -2.2954  0.5794  0.4685
 7639TIP3   OH222852   5.266   0.816   4.288  0.3938  0.7960  0.2798
 7639TIP3    H122853   5.281   0.722   4.291 -1.3519  0.4403 -1.1312
 7639TIP3    H222854   5.231   0.838   4.374  0.0007  0.0001  0.3226
 7640TIP3   OH222855   2.829   4.866   4.858  0.1059 -0.4442  0.5614
 7640TIP3    H122856   2.838   4.941   4.800  0.8344 -0.3212  0.8372
 7640TIP3    H222857   2.734   4.858   4.872  0.0855  1.0863  1.4202
 7641TIP3   OH222858   2.855   3.051   6.269 -0.1832  0.2918 -0.5213
 7641TIP3    H122859   2.763   3.027   6.279 -0.2296 -0.5520 -2.7156
 7641TIP3    H222860   2.902   2.967   6.267  0.4344  0.6394 -1.1308
 7642TIP3   OH222861   4.152   6.951   6.174 -0.3375 -0.5192  0.6001
 7642TIP3    H122862   4.071   6.999   6.155 -0.1471 -0.5267 -0.2476
 7642TIP3    H222863   4.141   6.867   6.130  0.9141  0.1921 -1.0908
 7643TIP3   OH222864   7.174   2.928   6.593 -0.1640  0.2503  0.6650
 7643TIP3    H122865   7.099   2.935   6.534  0.7958  0.6628 -0.5458
 7643TIP3    H222866   7.238   2.878   6.543  0.5821  0.4091  1.4590
 7644TIP3   OH222867   0.344   1.496   0.058 -0.4129  0.0529  0.8151
 7644TIP3    H122868   0.436   1.470   0.068 -0.1733  1.1336  1.5431
 7644TIP3    H222869   0.327   1.553   0.133 -1.3149  0.9016 -0.0162
 7645TIP3   OH222870   8.095   1.904   1.191  0.1439 -0.1217 -0.3000
 7645TIP3    H122871   8.024   1.904   1.255 -0.4932  0.0517 -1.0112
 7645TIP3    H222872   8.052   1.913   1.106  1.0333  0.3615 -0.7090
 7646TIP3   OH222873   1.462   7.647   4.459  0.0578  0.1460 -0.2126
 7646TIP3    H122874   1.502   7.700   4.390  0.3198 -2.4538 -2.1115
 7646TIP3    H222875   1.384   7.610   4.419 -0.8864  0.1763  1.5399
 7647TIP3   OH222876   1.495   0.658   0.236  0.1563 -0.3520 -0.3227
 7647TIP3    H122877   1.428   0.655   0.305  2.0811 -1.0071  1.5546
 7647TIP3    H222878   1.472   0.585   0.178 -0.6900 -0.6444  0.3615
 7648TIP3   OH222879   4.829   5.614   4.322 -0.2789  0.1528 -0.0122
 7648TIP3    H122880   4.852   5.521   4.314  1.2257  0.7347 -3.4384
 7648TIP3    H222881   4.767   5.629   4.251 -0.0917  1.9142  0.1759
 7649TIP3   OH222882   4.718   5.410   3.159  0.2011 -0.1744  0.1215
 7649TIP3    H122883   4.681   5.362   3.085  0.7994 -0.2253 -0.1460
 7649TIP3    H222884   4.656   5.480   3.176  0.7381  0.6588 -1.3047
 7650TIP3   OH222885   4.703   5.454   6.119  0.3354  0.6568  0.1366
 7650TIP3    H122886   4.697   5.388   6.051  2.1406 -0.6252  1.1703
 7650TIP3    H222887   4.616   5.456   6.159 -0.1487 -0.0186 -0.8784
 7651TIP3   OH222888   1.760   4.845   5.376 -0.5798 -1.1356 -0.8080
 7651TIP3    H122889   1.686   4.836   5.437 -0.5060 -0.3488 -0.5920
 7651TIP3    H222890   1.822   4.778   5.403  0.3971  0.6014  1.3533
 7652TIP3   OH222891   4.242   4.546   3.410 -0.2597  0.5276 -0.2097
 7652TIP3    H122892   4.230   4.563   3.503  1.5968  1.0915 -0.0665
 7652TIP3    H222893   4.264   4.453   3.405 -2.3205  0.0158 -0.2834
 7653TIP3   OH222894   7.321   4.634   3.928  0.6656 -0.1340  0.1755
 7653TIP3    H122895   7.393   4.618   3.868 -0.3447  2.7429 -1.8936
 7653TIP3    H222896   7.244   4.597   3.884  0.0969  1.0406  0.1725
 7654TIP3   OH222897   2.133   3.038   5.648 -0.4921  0.2180 -0.0085
 7654TIP3    H122898   2.201   2.981   5.612 -1.5252 -0.3031 -1.1594
 7654TIP3    H222899   2.143   3.030   5.743 -0.1392 -1.2928 -0.1626
 7655TIP3   OH222900   3.903   2.866   3.775 -0.1611  0.8938 -0.0397
 7655TIP3    H122901   3.901   2.775   3.804 -1.9947  0.9281 -0.0193
 7655TIP3    H222902   3.966   2.866   3.702 -0.7880 -0.5581 -0.6011
 7656TIP3   OH222903   4.601   1.964   3.960  0.1958  0.7751 -0.1145
 7656TIP3    H122904   4.611   2.026   4.032 -0.4113  0.4942  0.2166
 7656TIP3    H222905   4.638   2.009   3.884  0.1483  1.3680  0.2121
 7657TIP3   OH222906   4.435   3.454   4.491 -0.2505  0.0063  0.2038
 7657TIP3    H122907   4.511   3.440   4.548  0.1082  0.3439 -0.1884
 7657TIP3    H222908   4.403   3.541   4.514  2.3486  1.9122 -2.8994
 7658TIP3   OH222909   4.248   5.447   3.604 -0.3124 -0.1691 -0.5185
 7658TIP3    H122910   4.279   5.393   3.677 -2.4734 -1.2709 -0.3981
 7658TIP3    H222911   4.240   5.535   3.642  1.3863 -0.1235 -0.2231
 7659TIP3   OH222912   4.945   3.874   4.887 -0.3170  0.2536  0.0907
 7659TIP3    H122913   4.886   3.931   4.936 -3.1414 -2.2722 -0.1873
 7659TIP3    H222914   4.969   3.805   4.949  0.5435  0.0442 -0.4684
 7660TIP3   OH222915   1.783   4.915   3.359 -0.0732 -0.2268  0.2145
 7660TIP3    H122916   1.795   4.994   3.307 -1.2050 -0.4143 -0.3563
 7660TIP3    H222917   1.820   4.936   3.445  1.7070  0.1151 -0.6352
 7661TIP3   OH222918   3.846   4.022   2.069 -0.8836 -0.6033 -0.2629
 7661TIP3    H122919   3.821   4.073   2.146 -3.8855 -0.0086 -1.6033
 7661TIP3    H222920   3.780   4.043   2.003 -0.3110 -3.7199 -1.9036
 7662TIP3   OH222921   3.918   3.137   4.990 -0.2085  0.7261 -0.0628
 7662TIP3    H122922   3.868   3.133   4.909 -0.9925  1.8364  0.3662
 7662TIP3    H222923   3.853   3.126   5.059  0.2127  1.5687  0.4779
 7663TIP3   OH222924   3.294   3.334   5.067 -0.1177  0.5456  0.5200
 7663TIP3    H122925   3.259   3.266   5.011  1.4065 -0.5138  0.8024
 7663TIP3    H222926   3.389   3.317   5.070 -0.0311  1.1383  2.6184
 7664TIP3   OH222927   2.546   5.206   4.255  0.3456  0.4743 -0.0361
 7664TIP3    H122928   2.542   5.302   4.260 -1.6253  0.3990  0.3220
 7664TIP3    H222929   2.496   5.176   4.331  0.1603 -0.8482 -0.6714
 7665TIP3   OH222930   3.331   2.736   5.690  0.5581 -0.3638 -0.0526
 7665TIP3    H122931   3.262   2.697   5.637  1.2288 -1.1583 -0.3378
 7665TIP3    H222932   3.324   2.692   5.775 -1.2960  1.7499  0.9379
 7666TIP3   OH222933   3.081   4.877   4.403  0.1729 -0.1746  0.0002
 7666TIP3    H122934   3.083   4.782   4.406  0.9402 -0.1521  0.4093
 7666TIP3    H222935   3.074   4.904   4.495 -0.7773  0.1535 -0.1612
 7667TIP3   OH222936   5.524   4.685   3.568  0.1583 -0.5102 -0.7806
 7667TIP3    H122937   5.455   4.626   3.537  0.3474 -0.7081 -0.8230
 7667TIP3    H222938   5.576   4.632   3.628 -0.3048 -0.0813  0.0126
 7668TIP3   OH222939   7.275   5.087   2.105 -0.6462 -0.3635 -0.1623
 7668TIP3    H122940   7.211   5.076   2.034 -0.4238 -0.0437 -0.4182
 7668TIP3    H222941   7.235   5.150   2.164  0.0132  0.8969 -1.0331
 7669TIP3   OH222942   4.288   3.301   2.806  0.4984 -0.1423  0.3442
 7669TIP3    H122943   4.344   3.378   2.812  0.1313  0.1653 -0.0960
 7669TIP3    H222944   4.201   3.334   2.830  0.7718 -0.9413  2.5326
 7670TIP3   OH222945   6.475   3.381   3.345  0.1582 -0.4574 -0.0751
 7670TIP3    H122946   6.491   3.389   3.251 -0.2337  1.4411  0.0148
 7670TIP3    H222947   6.381   3.391   3.355  0.4538  1.8361  0.7464
 7671TIP3   OH222948   7.124   3.861   6.257  0.0090 -0.3661 -0.4580
 7671TIP3    H122949   7.155   3.871   6.347  0.4492  2.5157 -0.8773
 7671TIP3    H222950   7.055   3.794   6.262  0.2430 -0.4596  1.9407
 7672TIP3   OH222951   5.990   5.823   2.172  0.0532 -0.4947  0.4072
 7672TIP3    H122952   6.047   5.772   2.229  2.6513  0.2174 -1.4744
 7672TIP3    H222953   6.009   5.914   2.196 -0.6209 -0.2595  0.0473
 7673TIP3   OH222954   7.031   3.137   6.757  0.2005 -0.2853  0.1739
 7673TIP3    H122955   7.123   3.118   6.738  0.1122 -0.9207  0.3786
 7673TIP3    H222956   6.985   3.057   6.732 -0.0088 -0.8559  2.3279
 7674TIP3   OH222957   6.506   3.067   5.461  0.0277  0.4013 -0.3642
 7674TIP3    H122958   6.505   3.024   5.376 -1.1472  0.6515 -0.4873
 7674TIP3    H222959   6.424   3.040   5.502  0.9728 -0.3892  1.0286
 7675TIP3   OH222960   6.168   2.306   3.088 -0.5934  0.2078 -0.0254
 7675TIP3    H122961   6.239   2.366   3.112 -1.1474  1.4796 -1.4811
 7675TIP3    H222962   6.204   2.219   3.104  1.7477  0.7840 -1.8945
 7676TIP3   OH222963   6.411   4.955   4.150  0.4193  0.2165 -0.2225
 7676TIP3    H122964   6.318   4.958   4.173  0.2928  0.9227 -0.8174
 7676TIP3    H222965   6.442   5.045   4.162  0.5072  0.4674 -2.1525
 7677TIP3   OH222966   6.517   5.593   2.930  0.1200 -0.4944 -0.6794
 7677TIP3    H122967   6.461   5.663   2.897  1.0490 -0.1637 -1.6201
 7677TIP3    H222968   6.486   5.514   2.886 -1.9304 -0.9816  1.5530
 7678TIP3   OH222969   5.750   4.203   3.565 -0.0482  0.9133 -0.4038
 7678TIP3    H122970   5.664   4.245   3.553 -1.1366 -1.0754  0.2541
 7678TIP3    H222971   5.754   4.138   3.495 -0.9512 -1.9463  2.0905
 7679TIP3   OH222972   6.668   4.801   4.632  0.5287  0.1588 -0.6089
 7679TIP3    H122973   6.754   4.844   4.630  0.2925  0.7581  1.0579
 7679TIP3    H222974   6.612   4.863   4.679 -0.7484 -0.3523 -1.4394
 7680TIP3   OH222975   7.575   3.852   4.113 -0.3642  0.1231  0.0500
 7680TIP3    H122976   7.556   3.797   4.189  2.9826 -2.8671 -1.1166
 7680TIP3    H222977   7.507   3.829   4.049 -0.6634 -0.5614  0.6023
 7681TIP3   OH222978   6.441   4.679   4.248 -0.0544 -0.2414  0.0960
 7681TIP3    H122979   6.440   4.759   4.195  0.8384 -0.9611 -1.0392
 7681TIP3    H222980   6.504   4.697   4.317 -1.0279  0.6096  0.7728
 7682TIP3   OH222981   5.658   6.109   2.599  0.0984 -0.0116  0.0316
 7682TIP3    H122982   5.707   6.138   2.676 -0.2119 -1.6118  0.8704
 7682TIP3    H222983   5.632   6.019   2.620 -0.6416 -0.2117 -1.6371
 7683TIP3   OH222984   7.345   6.463   3.300 -0.3640 -0.3989 -0.5813
 7683TIP3    H122985   7.374   6.506   3.380  0.2622 -0.2972 -0.8617
 7683TIP3    H222986   7.254   6.492   3.290 -0.6356 -0.8894  0.4014
 7684TIP3   OH222987   5.798   4.585   4.579  0.1116  0.1701 -0.0889
 7684TIP3    H122988   5.739   4.573   4.505  1.1573 -1.5413 -0.6847
 7684TIP3    H222989   5.849   4.663   4.556 -0.1985  0.1853 -0.7554
 7685TIP3   OH222990   7.689   3.778   3.674  0.2934  1.0844 -0.0018
 7685TIP3    H122991   7.682   3.872   3.660 -2.7438  0.7525 -1.1215
 7685TIP3    H222992   7.734   3.769   3.758 -0.4599  3.5390  0.6921
 7686TIP3   OH222993   7.646   3.315   6.745 -0.3383  0.5510  0.0180
 7686TIP3    H122994   7.643   3.404   6.710  2.1961  0.5391 -0.3833
 7686TIP3    H222995   7.574   3.270   6.703  0.4987  1.5035 -2.5429
 7687TIP3   OH222996   8.048   5.365   5.476 -0.0173 -0.4178 -0.2583
 7687TIP3    H122997   8.111   5.327   5.538 -0.6044 -0.0503  0.5790
 7687TIP3    H222998   7.962   5.347   5.516 -0.3801  0.1492 -0.7838
 7688TIP3   OH222999   5.842   5.015   2.955  0.3889  0.1832  0.4708
 7688TIP3    H123000   5.924   5.019   3.004  1.9894 -0.9596 -1.9817
 7688TIP3    H223001   5.790   4.949   3.001  2.1600 -1.4404  0.2554
 7689TIP3   OH223002   7.519   5.880   3.856 -0.0884 -0.4349 -0.2569
 7689TIP3    H123003   7.492   5.970   3.836 -0.3050 -0.5824 -0.6398
 7689TIP3    H223004   7.613   5.879   3.841 -0.1946 -0.4523 -0.9369
 7690TIP3   OH223005   5.398   5.053   3.452  0.0657 -0.8949  0.0291
 7690TIP3    H123006   5.456   4.989   3.491  1.9090  0.5487 -0.2908
 7690TIP3    H223007   5.397   5.126   3.514  0.2260 -0.0562 -0.9339
 7691TIP3   OH223008   4.113   3.677   6.241  0.2733 -0.8367 -0.5842
 7691TIP3    H123009   4.096   3.701   6.332 -1.2774 -0.9684 -0.8143
 7691TIP3    H223010   4.027   3.680   6.200  1.1143  0.1773 -2.2870
 7692TIP3   OH223011   4.510   6.988   2.563  0.2146  0.1957 -0.1297
 7692TIP3    H123012   4.576   7.012   2.498  0.7984 -1.7010 -0.2734
 7692TIP3    H223013   4.556   6.988   2.646  0.0199  0.3838 -0.0216
 7693TIP3   OH223014   5.657   4.938   3.592 -0.1479 -0.1516 -0.1786
 7693TIP3    H123015   5.601   4.863   3.575 -1.7076  1.1943 -1.1471
 7693TIP3    H223016   5.649   4.953   3.686 -0.6173 -0.6048 -0.1449
 7694TIP3   OH223017   6.540   4.900   5.279  0.1162 -0.1026  0.3492
 7694TIP3    H123018   6.499   4.822   5.241 -1.0381  0.3603  0.5972
 7694TIP3    H223019   6.557   4.958   5.205 -0.6056  0.1127  0.3473
 7695TIP3   OH223020   5.277   4.602   0.646 -0.0006  0.5073 -0.1001
 7695TIP3    H123021   5.308   4.688   0.676 -0.5147  0.3938  0.7634
 7695TIP3    H223022   5.249   4.616   0.556 -2.2719  1.7761  0.7811
 7696TIP3   OH223023   6.117   4.982   5.207 -0.0101 -0.3698  0.3131
 7696TIP3    H123024   6.097   5.048   5.141 -0.3076 -0.4760  0.2965
 7696TIP3    H223025   6.188   5.020   5.259  0.2953 -0.3299 -0.1301
 7697TIP3   OH223026   6.121   4.480   3.612  0.5160  0.3043 -0.0570
 7697TIP3    H123027   6.036   4.437   3.610  0.3107  0.7193 -0.2709
 7697TIP3    H223028   6.175   4.431   3.550  0.3395  0.2339 -0.1515
 7698TIP3   OH223029   6.399   5.983   4.501  0.1440  0.2830  0.1053
 7698TIP3    H123030   6.402   6.078   4.489 -0.6044  0.6567  2.5579
 7698TIP3    H223031   6.320   5.955   4.456 -0.2295  0.9814  0.3238
 7699TIP3   OH223032   5.332   4.761   4.582  0.2005  0.7210 -0.5190
 7699TIP3    H123033   5.339   4.779   4.488 -0.5996  2.4239 -0.2683
 7699TIP3    H223034   5.404   4.811   4.621  0.6227 -0.1045 -0.2326
 7700TIP3   OH223035   5.199   4.519   1.880 -0.0012  0.1884  0.6890
 7700TIP3    H123036   5.186   4.550   1.970 -0.5591  1.5167  0.1685
 7700TIP3    H223037   5.161   4.588   1.825  2.7056  0.6814 -0.6619
 7701TIP3   OH223038   6.234   5.821   3.201  0.0072  0.3492  0.3937
 7701TIP3    H123039   6.158   5.876   3.181 -0.3122 -0.1907  0.1130
 7701TIP3    H223040   6.222   5.743   3.147  1.5315  0.8947 -0.7790
 7702TIP3   OH223041   6.334   3.958   1.697  1.0237 -0.2025 -0.2492
 7702TIP3    H123042   6.330   4.049   1.669  1.5233  0.0675  0.5374
 7702TIP3    H223043   6.373   3.961   1.785 -0.1701 -1.0433  0.3359
 7703TIP3   OH223044   6.996   4.729   1.380  0.2039  0.1384  0.4569
 7703TIP3    H123045   6.969   4.803   1.435 -1.4057 -0.6775  0.7836
 7703TIP3    H223046   7.034   4.770   1.303 -0.8542  1.3214  0.5496
 7704TIP3   OH223047   5.042   4.555   5.395 -0.0169  0.4441  0.4601
 7704TIP3    H123048   5.103   4.622   5.427  0.4073  0.2441  0.0808
 7704TIP3    H223049   5.083   4.472   5.421  0.9430  0.2319 -1.6402
 7705TIP3   OH223050   5.823   4.457   3.593  0.2281 -0.0371  0.2277
 7705TIP3    H123051   5.795   4.366   3.597 -2.9422  0.6532 -2.8579
 7705TIP3    H223052   5.786   4.497   3.671 -1.1168 -0.7723 -0.0163
 7706TIP3   OH223053   5.883   3.099   3.678  0.0071  0.5396  0.4973
 7706TIP3    H123054   5.826   3.058   3.743  0.1098 -0.5491 -0.0736
 7706TIP3    H223055   5.866   3.050   3.597  1.7903  0.1436  0.3396
 7707TIP3   OH223056   6.385   6.606   4.152 -0.0648  0.1307  0.2701
 7707TIP3    H123057   6.352   6.671   4.090 -2.7710 -0.0375  1.4593
 7707TIP3    H223058   6.365   6.522   4.112  1.0125  0.0219 -0.0444
 7708TIP3   OH223059   5.788   5.985   2.329 -0.1753 -0.2789  0.0476
 7708TIP3    H123060   5.875   6.010   2.298 -0.8699  2.2244 -0.0199
 7708TIP3    H223061   5.773   6.040   2.406 -0.8875 -2.1601  1.2850
 7709TIP3   OH223062   5.580   4.840   1.772  0.2062  0.3377 -0.7205
 7709TIP3    H123063   5.527   4.919   1.779 -1.0224 -0.4400 -1.1984
 7709TIP3    H223064   5.608   4.821   1.862  1.3605  1.8889 -0.7394
 7710TIP3   OH223065   7.492   4.311   3.952 -0.2212  1.0940 -0.3133
 7710TIP3    H123066   7.506   4.356   4.035  0.5687  0.5641 -0.1550
 7710TIP3    H223067   7.510   4.377   3.885  0.2200  1.2208 -0.0717
 7711TIP3   OH223068   5.030   4.165   3.342  0.2315  0.5208 -0.1138
 7711TIP3    H123069   5.115   4.122   3.337 -0.0256  0.0999 -1.1000
 7711TIP3    H223070   5.007   4.182   3.250 -0.7058  0.7131  0.1521
 7712TIP3   OH223071   7.826   5.087   4.416  0.0590  0.8213  0.0884
 7712TIP3    H123072   7.850   5.024   4.348 -2.7341 -0.4194  0.1642
 7712TIP3    H223073   7.863   5.170   4.387  1.1455 -0.2248 -1.5964
 7713TIP3   OH223074   6.958   5.420   3.949  0.5852  0.1679  0.4337
 7713TIP3    H123075   6.925   5.403   3.860 -2.3130  0.5240  1.3988
 7713TIP3    H223076   6.993   5.509   3.945  1.3299 -0.1493 -0.5606
 7714TIP3   OH223077   7.506   4.727   1.858 -0.1074  0.0497  0.0539
 7714TIP3    H123078   7.487   4.703   1.949 -1.0263 -0.8263 -0.3592
 7714TIP3    H223079   7.530   4.645   1.816  1.7229  0.6742 -0.1725
 7715TIP3   OH223080   5.765   6.098   4.557 -0.2458  0.2401  0.2951
 7715TIP3    H123081   5.812   6.152   4.493 -0.8644 -0.0920 -0.4403
 7715TIP3    H223082   5.673   6.118   4.542 -0.5328 -1.6094 -0.5179
 7716TIP3   OH223083   4.728   4.704   3.131  0.6255  0.5488 -0.3735
 7716TIP3    H123084   4.744   4.660   3.215  1.4191 -1.9084 -1.7346
 7716TIP3    H223085   4.656   4.763   3.148 -0.8974 -1.7246  1.4630
 7717TIP3   OH223086   5.116   2.006   3.743 -0.1233  0.5190 -0.2996
 7717TIP3    H123087   5.168   1.926   3.737  0.1128  0.6068  0.5374
 7717TIP3    H223088   5.025   1.976   3.736  0.0446  0.4157 -2.2471
 7718TIP3   OH223089   6.019   3.493   2.982 -0.3693  0.8486  0.4018
 7718TIP3    H123090   6.031   3.582   2.948  1.3222  0.7501  0.6789
 7718TIP3    H223091   6.082   3.487   3.054 -1.8715  0.0754  1.6555
 7719TIP3   OH223092   5.330   3.878   4.382 -0.0807  0.4982  0.4069
 7719TIP3    H123093   5.308   3.789   4.409  0.9329 -0.2336 -1.1015
 7719TIP3    H223094   5.381   3.913   4.455 -2.5448  0.7477  2.0841
 7720TIP3   OH223095   3.925   3.640   5.076  0.1481  0.1966  0.3653
 7720TIP3    H123096   3.966   3.687   5.003  1.2644 -0.4789  0.5356
 7720TIP3    H223097   3.909   3.708   5.141 -1.9185  1.0067 -0.9350
 7721TIP3   OH223098   6.948   3.927   2.913  0.0491 -0.4589  0.6833
 7721TIP3    H123099   7.014   3.995   2.901  0.7260 -0.9414  1.6237
 7721TIP3    H223100   6.881   3.947   2.847 -0.2399  1.6809  1.5888
 7722TIP3   OH223101   3.715   4.651   2.148  0.0828 -0.2304 -0.3700
 7722TIP3    H123102   3.683   4.725   2.201 -0.1929 -0.3520 -0.3665
 7722TIP3    H223103   3.668   4.660   2.065  1.0517  0.3795 -0.8584
 7723TIP3   OH223104   5.759   7.459   3.209  0.2407 -0.3172 -0.1103
 7723TIP3    H123105   5.708   7.388   3.249 -0.7271 -1.1302 -2.7161
 7723TIP3    H223106   5.738   7.536   3.262 -1.8450 -1.1463  0.3210
 7724TIP3   OH223107   4.576   2.799   2.826 -0.3204 -0.0449  0.1638
 7724TIP3    H123108   4.486   2.774   2.847 -0.5153  0.2616 -0.3157
 7724TIP3    H223109   4.614   2.719   2.788 -0.6159  0.0547 -0.3435
 7725TIP3   OH223110   8.061   3.664   3.740 -0.1837 -0.0513 -0.4952
 7725TIP3    H123111   7.982   3.688   3.790 -0.7809 -1.6407 -0.6441
 7725TIP3    H223112   8.091   3.583   3.781  1.2072  0.3813 -0.6471
 7726TIP3   OH223113   5.520   6.120   4.431  0.0703 -0.3588  0.2881
 7726TIP3    H123114   5.448   6.144   4.373 -0.8501 -0.8307  1.2239
 7726TIP3    H223115   5.493   6.037   4.470  0.6560 -0.0218  1.4239
 7727TIP3   OH223116   5.699   3.838   4.315 -0.1039  0.1248 -0.4511
 7727TIP3    H123117   5.687   3.875   4.403 -2.3331  2.0464 -1.5076
 7727TIP3    H223118   5.770   3.890   4.277  0.3171 -0.1699 -0.0638
 7728TIP3   OH223119   5.858   3.718   2.184 -0.2798 -0.2477  0.2075
 7728TIP3    H123120   5.937   3.771   2.197 -0.2272  0.0739 -1.3300
 7728TIP3    H223121   5.789   3.782   2.168 -0.1332 -0.6180 -2.0979
 7729TIP3   OH223122   6.866   5.366   2.911 -0.2025 -0.0287 -0.3227
 7729TIP3    H123123   6.850   5.437   2.972  0.7997  1.2423 -1.5046
 7729TIP3    H223124   6.785   5.315   2.910 -0.5626  0.4913  1.3026
 7730TIP3   OH223125   5.809   5.426   3.349 -0.7114 -0.1102  0.2817
 7730TIP3    H123126   5.738   5.484   3.322 -1.9524 -1.6639  0.1701
 7730TIP3    H223127   5.823   5.368   3.275 -0.8712 -1.2717  1.1420
 7731TIP3   OH223128   5.644   5.919   4.098  0.1961 -0.0263  0.5103
 7731TIP3    H123129   5.712   5.980   4.126 -1.2586  1.1391  1.6077
 7731TIP3    H223130   5.590   5.971   4.038  0.2860 -0.9465 -0.3709
 7732TIP3   OH223131   5.797   3.129   3.162 -0.4473  0.3263 -0.4989
 7732TIP3    H123132   5.847   3.192   3.213  0.7587 -1.9124  1.1712
 7732TIP3    H223133   5.860   3.090   3.102 -0.1228 -2.2745  1.3965
 7733TIP3   OH223134   6.597   4.014   3.048 -0.4421 -0.0281 -0.8191
 7733TIP3    H123135   6.565   3.930   3.081 -0.7767 -0.1509 -1.4448
 7733TIP3    H223136   6.518   4.068   3.043 -0.0366  0.7535  0.8271
 7734TIP3   OH223137   2.239   0.049   0.091  0.1627  0.5276 -0.5214
 7734TIP3    H123138   2.236  -0.039   0.128 -0.0531  0.7584  0.0180
 7734TIP3    H223139   2.193   0.104   0.155  1.2350  1.2269 -0.3385
 7735TIP3   OH223140   4.624   3.478   5.219  0.6457  0.3953 -0.1434
 7735TIP3    H123141   4.581   3.516   5.143 -0.5590 -0.4074  0.1245
 7735TIP3    H223142   4.595   3.387   5.221 -0.0142  0.6048  1.7375
 7736TIP3   OH223143   6.839   4.989   4.357  0.0929 -0.3093 -0.4554
 7736TIP3    H123144   6.897   4.980   4.432 -0.9464 -0.8635  0.2919
 7736TIP3    H223145   6.752   5.002   4.395 -0.2341  0.7992 -1.5639
 7737TIP3   OH223146   5.494   5.171   4.004 -0.0218 -0.0269  0.0598
 7737TIP3    H123147   5.515   5.126   4.086 -1.5663 -1.4261 -0.2753
 7737TIP3    H223148   5.526   5.260   4.016  1.7677 -0.8108  1.3335
 7738TIP3   OH223149   7.158   3.477   2.132  0.1742 -0.1984 -0.4287
 7738TIP3    H123150   7.143   3.487   2.038  0.0594  0.3035 -0.3570
 7738TIP3    H223151   7.225   3.409   2.138 -0.7751 -1.1911 -0.8238
 7739TIP3   OH223152   7.555   3.703   1.031  0.5662  0.2636  0.1386
 7739TIP3    H123153   7.538   3.612   1.053 -1.9372 -0.2767 -3.5240
 7739TIP3    H223154   7.494   3.753   1.086 -1.7439 -0.6704 -1.4745
 7740TIP3   OH223155   5.543   4.945   4.603 -0.3323  0.0050 -0.1611
 7740TIP3    H123156   5.479   5.016   4.608  0.6511  0.8309  0.9393
 7740TIP3    H223157   5.614   4.982   4.551  0.0444 -0.2806  0.1543
 7741TIP3   OH223158   5.824   5.536   2.484  0.1123 -0.8549  0.4097
 7741TIP3    H123159   5.792   5.523   2.574  1.4927 -1.0378  0.8864
 7741TIP3    H223160   5.770   5.607   2.450 -0.3105 -0.6613  1.4524
 7742TIP3   OH223161   2.924   4.626   3.134 -0.1758  0.4438  0.6453
 7742TIP3    H123162   2.905   4.708   3.180  0.0184  0.8578  0.0054
 7742TIP3    H223163   2.903   4.646   3.042 -1.3737 -0.6193  0.6798
 7743TIP3   OH223164   5.172   3.172   3.457  0.6731 -0.0156  0.1541
 7743TIP3    H123165   5.116   3.242   3.489  0.8464  0.0154  0.3895
 7743TIP3    H223166   5.130   3.142   3.376  0.6303  0.3902  0.0298
 7744TIP3   OH223167   0.228   5.962   4.391  0.1504 -0.3079 -0.3548
 7744TIP3    H123168   0.231   5.906   4.314  1.8531 -1.1421  0.2802
 7744TIP3    H223169   0.317   5.997   4.399 -0.4846  1.2396  0.1711
 7745TIP3   OH223170   5.325   5.159   4.593 -0.2937  0.0098 -0.3985
 7745TIP3    H123171   5.384   5.224   4.633 -0.1054  2.8224 -4.8104
 7745TIP3    H223172   5.241   5.173   4.636  0.4177  1.3446  0.6007
 7746TIP3   OH223173   5.524   4.941   2.110 -0.1731 -0.3686  0.2315
 7746TIP3    H123174   5.464   5.009   2.081  0.9706  1.2676  1.5619
 7746TIP3    H223175   5.514   4.939   2.205  1.3416 -0.5597  0.4057
 7747TIP3   OH223176   2.107   0.048   5.076  0.5925  0.6507  0.3648
 7747TIP3    H123177   2.145   0.019   5.159  0.7171  0.7420  0.3398
 7747TIP3    H223178   2.120  -0.026   5.017  1.1829  0.8701  0.2167
 7748TIP3   OH223179   6.773   5.779   3.439 -0.2173  0.1755 -0.3119
 7748TIP3    H123180   6.690   5.762   3.484 -0.3419  1.1868 -0.1323
 7748TIP3    H223181   6.811   5.853   3.487 -0.0583  0.8588 -1.4692
 7749TIP3   OH223182   3.403   3.033   5.975  0.3203  0.1453  0.0667
 7749TIP3    H123183   3.498   3.042   5.982  0.3126  0.9677 -0.8615
 7749TIP3    H223184   3.381   3.076   5.893 -0.6061 -1.9326 -0.8134
 7750TIP3   OH223185   6.117   4.376   3.918 -0.1837  0.1374  0.1429
 7750TIP3    H123186   6.118   4.472   3.912 -2.2929  0.1140 -1.0160
 7750TIP3    H223187   6.125   4.346   3.827  1.2462 -0.8243  0.5627
 7751TIP3   OH223188   6.026   5.891   4.042  0.2942  0.3524 -0.0299
 7751TIP3    H123189   5.966   5.963   4.061  0.0237 -0.3807  1.9878
 7751TIP3    H223190   6.014   5.830   4.115  2.7367 -0.2802 -0.1148
 7752TIP3   OH223191   3.529   4.948   2.718  0.5536 -0.0769  0.0261
 7752TIP3    H123192   3.544   4.947   2.623 -0.0357 -0.5516 -0.0692
 7752TIP3    H223193   3.599   5.003   2.753  2.0437 -1.5985 -0.4832
 7753TIP3   OH223194   3.035   6.827   1.429 -0.2815  0.9590  0.2022
 7753TIP3    H123195   3.110   6.825   1.488  0.0275  0.2984 -0.2173
 7753TIP3    H223196   3.043   6.748   1.376 -0.5084  1.5894 -0.7907
 7754TIP3   OH223197   6.135   5.242   3.471  1.0296  0.5603  0.1433
 7754TIP3    H123198   6.070   5.179   3.439  0.7355  1.3140 -0.7476
 7754TIP3    H223199   6.219   5.198   3.458  0.9452  1.0175 -2.0797
 7755TIP3   OH223200   5.581   4.862   3.025  0.0761  0.7321  0.4256
 7755TIP3    H123201   5.544   4.803   3.090 -0.1755  0.5481  0.1176
 7755TIP3    H223202   5.525   4.940   3.028  0.4924  1.0158  0.9300
 7756TIP3   OH223203   6.426   5.280   3.763  0.3152 -0.1333  0.3046
 7756TIP3    H123204   6.450   5.190   3.742 -0.9632 -0.1426 -1.2000
 7756TIP3    H223205   6.493   5.333   3.718  1.8589 -0.3381  2.2946
 7757TIP3   OH223206   5.865   5.806   2.609 -0.3100  0.0489 -0.6623
 7757TIP3    H123207   5.797   5.756   2.653  0.5337 -1.3687 -0.9001
 7757TIP3    H223208   5.892   5.750   2.536  0.8367  0.7409 -0.7892
 7758TIP3   OH223209   5.438   4.358   2.488 -0.3453 -0.3353 -0.2502
 7758TIP3    H123210   5.364   4.410   2.518 -0.3364 -0.8490  0.6539
 7758TIP3    H223211   5.426   4.272   2.528  0.9305 -0.3158  0.2122
 7759TIP3   OH223212   5.835   4.213   4.492 -0.3353 -0.1921  1.0310
 7759TIP3    H123213   5.817   4.292   4.441 -2.0801 -2.2111 -1.6373
 7759TIP3    H223214   5.794   4.229   4.577 -1.5128  1.3824  0.1817
 7760TIP3   OH223215   7.729   3.276   3.779 -0.5471 -0.4782 -0.4812
 7760TIP3    H123216   7.707   3.295   3.688  1.5847  1.5745 -0.6145
 7760TIP3    H223217   7.716   3.359   3.824 -0.0893 -1.0861  0.7888
 7761TIP3   OH223218   6.190   5.010   1.268  0.3310 -0.2610 -0.2688
 7761TIP3    H123219   6.128   5.068   1.312 -0.1409 -1.9913  1.3730
 7761TIP3    H223220   6.231   4.960   1.338  1.4212 -1.2645 -1.5942
 7762TIP3   OH223221   6.657   6.159   2.685 -0.1599 -0.4194  0.2406
 7762TIP3    H123222   6.573   6.154   2.730  0.5057 -1.4762  1.3811
 7762TIP3    H223223   6.722   6.171   2.754  0.5500  1.4576 -0.7106
 7763TIP3   OH223224   5.836   3.730   5.753 -0.3096  0.2114  0.4011
 7763TIP3    H123225   5.881   3.788   5.692 -1.0381  0.5407  0.1674
 7763TIP3    H223226   5.903   3.669   5.783 -0.1922 -0.6697 -1.5865
 7764TIP3   OH223227   5.527   5.474   4.941 -0.6774  0.1250 -0.0462
 7764TIP3    H123228   5.547   5.410   5.009 -1.7720 -0.3896 -0.1954
 7764TIP3    H223229   5.566   5.556   4.972  1.6228 -0.8408 -0.3447
 7765TIP3   OH223230   3.874   3.471   2.998  0.0808 -0.7533 -0.6283
 7765TIP3    H123231   3.873   3.397   2.938 -0.4539 -0.6047 -0.8007
 7765TIP3    H223232   3.800   3.524   2.972  0.6116 -0.0241 -0.6636
 7766TIP3   OH223233   4.263   4.493   5.220  0.3384 -0.1328  0.0995
 7766TIP3    H123234   4.312   4.515   5.141 -1.3845 -0.6572 -1.1512
 7766TIP3    H223235   4.254   4.576   5.267  0.0465  0.4768 -1.0256
 7767TIP3   OH223236   5.123   5.032   3.487 -0.5187 -0.0812 -0.0708
 7767TIP3    H123237   5.196   4.972   3.503  0.0260  0.3492 -0.9207
 7767TIP3    H223238   5.164   5.118   3.479 -1.3640  0.5508  1.8894
 7768TIP3   OH223239   4.329   2.792   4.638 -0.2550 -0.0813  0.2608
 7768TIP3    H123240   4.314   2.700   4.660  0.7052  0.1029  1.8218
 7768TIP3    H223241   4.419   2.809   4.666  0.0903  0.9512 -1.3861
 7769TIP3   OH223242   5.053   3.625   4.037 -0.2859 -0.3817 -0.0252
 7769TIP3    H123243   4.972   3.659   4.001 -0.0778 -0.9455 -1.0515
 7769TIP3    H223244   5.031   3.536   4.066 -0.4037 -0.0011  1.0541
 7770TIP3   OH223245   5.590   4.139   5.504 -0.1115 -0.2169  0.3549
 7770TIP3    H123246   5.515   4.137   5.563 -1.2463  2.1241 -0.9391
 7770TIP3    H223247   5.650   4.202   5.544 -0.3647  0.4843 -0.3485
 7771TIP3   OH223248   5.278   4.729   5.305 -0.1603 -0.1592  0.2350
 7771TIP3    H123249   5.263   4.732   5.210  0.8354 -2.5380 -0.0324
 7771TIP3    H223250   5.367   4.697   5.314  0.2257  1.3263  1.9908
 7772TIP3   OH223251   4.935   6.533   2.110  0.4385  0.0615 -0.4652
 7772TIP3    H123252   5.019   6.488   2.122  0.5259  0.4424  0.3821
 7772TIP3    H223253   4.958   6.618   2.073  0.4938  0.5008  0.5770
 7773TIP3   OH223254   7.188   4.547   6.461  0.4061 -0.3198 -0.0159
 7773TIP3    H123255   7.213   4.637   6.444  0.6593 -0.5452 -0.8527
 7773TIP3    H223256   7.249   4.494   6.410 -0.9308 -0.9008 -1.0781
 7774TIP3   OH223257   6.893   6.008   2.265  0.3327  0.3099  0.2131
 7774TIP3    H123258   6.813   5.988   2.217  0.5004 -1.2726  0.5682
 7774TIP3    H223259   6.883   5.962   2.348  0.8559  1.5280  0.9688
 7775TIP3   OH223260   3.726   3.942   5.341  0.1363  0.2291  0.0279
 7775TIP3    H123261   3.678   3.942   5.424 -0.2417  0.7121 -0.1866
 7775TIP3    H223262   3.767   4.028   5.337 -0.0463  0.2956 -0.4000
 7776TIP3   OH223263   5.400   6.689   3.650 -0.0685  0.0217 -0.1575
 7776TIP3    H123264   5.422   6.680   3.558 -0.1419  0.4388 -0.2184
 7776TIP3    H223265   5.314   6.732   3.650  0.7091  1.6291  0.1157
 7777TIP3   OH223266   5.847   4.046   3.970  0.0164  0.0759 -0.3532
 7777TIP3    H123267   5.767   4.037   3.920  1.0956 -0.7560 -1.9688
 7777TIP3    H223268   5.915   4.065   3.905  0.8689  2.5272  1.1374
 7778TIP3   OH223269   6.825   3.454   3.164 -0.4109  0.3187  0.0442
 7778TIP3    H123270   6.740   3.482   3.132  0.4839  2.0544 -0.8859
 7778TIP3    H223271   6.842   3.510   3.240  0.1418  0.3734 -0.1164
 7779TIP3   OH223272   5.259   5.932   6.398 -0.1731 -0.3201  0.4712
 7779TIP3    H123273   5.319   5.983   6.343 -1.1556 -0.2113 -0.5230
 7779TIP3    H223274   5.292   5.842   6.393  0.2114 -0.1703  0.3490
 7780TIP3   OH223275   3.694   5.905   5.235 -0.0579  0.3535 -0.7179
 7780TIP3    H123276   3.743   5.969   5.287 -1.3094  0.6314  0.1414
 7780TIP3    H223277   3.744   5.824   5.243 -0.6988  0.1761  1.6245
 7781TIP3   OH223278   6.613   5.284   3.232  0.0207  0.1435  0.0161
 7781TIP3    H123279   6.541   5.347   3.240 -1.1078 -1.0362 -0.8232
 7781TIP3    H223280   6.575   5.200   3.257  0.7934 -0.6926 -1.5508
 7782TIP3   OH223281   6.936   4.652   2.975  0.1276  0.1584 -0.2055
 7782TIP3    H123282   6.925   4.626   3.066 -2.1369  0.1604 -0.4519
 7782TIP3    H223283   6.925   4.571   2.925  0.6947  0.2683 -0.5100
 7783TIP3   OH223284   5.299   3.815   3.234  0.3654  0.3868  0.4363
 7783TIP3    H123285   5.240   3.752   3.192  2.3444 -0.5092 -1.0563
 7783TIP3    H223286   5.382   3.768   3.243  2.0386  2.9234 -1.1772
 7784TIP3   OH223287   0.002   3.092   3.063  0.5336  0.2098  0.1150
 7784TIP3    H123288   0.048   3.176   3.057  2.6956 -0.9022  0.6574
 7784TIP3    H223289   0.059   3.037   3.117 -1.3852 -1.2601  0.6890
 7785TIP3   OH223290   7.061   4.731   2.175 -0.0688  0.7044 -0.1158
 7785TIP3    H123291   7.075   4.670   2.247 -1.5914 -0.7588 -1.0085
 7785TIP3    H223292   7.061   4.817   2.217  1.1854  0.0478  1.3013
 7786TIP3   OH223293   4.092   2.918   4.028  0.6021 -0.1954  0.2584
 7786TIP3    H123294   4.085   3.000   3.979 -2.0476 -0.3836  0.2279
 7786TIP3    H223295   4.017   2.866   3.998  0.9126 -1.6962  1.9917
 7787TIP3   OH223296   6.720   5.513   3.095  0.4027  0.6764  0.3458
 7787TIP3    H123297   6.648   5.557   3.049 -0.2766  1.5442  2.1728
 7787TIP3    H223298   6.680   5.433   3.129  0.7540  0.3168 -0.0872
 7788TIP3   OH223299   8.090   4.751   4.970 -0.1288 -0.5526 -0.0724
 7788TIP3    H123300   8.141   4.831   4.960 -1.9612  0.4122 -2.0431
 7788TIP3    H223301   8.136   4.686   4.918 -0.8690  0.3278 -1.8920
 7789TIP3   OH223302   7.809   4.131   4.296  0.4552 -0.0283 -0.5837
 7789TIP3    H123303   7.902   4.138   4.275  0.1807 -1.9340 -2.6755
 7789TIP3    H223304   7.802   4.048   4.343 -0.4832 -1.0650 -2.4925
 7790TIP3   OH223305   2.783   2.856   5.950 -0.7946 -0.1209  0.7169
 7790TIP3    H123306   2.744   2.935   5.988 -1.4179 -0.1837  0.2239
 7790TIP3    H223307   2.730   2.839   5.872  0.3897 -0.0656 -0.1025
 7791TIP3   OH223308   0.011   7.225   4.658  0.1599 -0.0086  0.8232
 7791TIP3    H123309   0.039   7.177   4.736  1.5656  1.4498  1.2564
 7791TIP3    H223310   0.045   7.314   4.672  0.5407  0.2442 -1.5042
 7792TIP3   OH223311   7.288   3.543   6.567 -0.2109 -0.1168 -0.0448
 7792TIP3    H123312   7.336   3.492   6.632 -2.5776 -0.2973  1.6150
 7792TIP3    H223313   7.271   3.627   6.610  1.3961  1.1511 -1.8089
 7793TIP3   OH223314   8.099   4.029   6.691 -0.1925  0.1252 -0.2983
 7793TIP3    H123315   8.081   3.953   6.636  0.3741 -0.1338 -0.1316
 7793TIP3    H223316   8.176   4.003   6.743 -1.1239  0.1023  1.0854
 7794TIP3   OH223317   5.271   4.450   5.015  0.1635  0.1527  0.1235
 7794TIP3    H123318   5.210   4.389   5.057 -0.2975  0.2534 -0.3878
 7794TIP3    H223319   5.214   4.510   4.966  0.7201 -0.2811 -1.0657
 7795TIP3   OH223320   6.062   3.493   4.380 -0.0869  0.0088 -0.2940
 7795TIP3    H123321   6.086   3.554   4.310 -0.7582  1.8773  1.0551
 7795TIP3    H223322   5.968   3.506   4.393 -0.4551 -2.1189 -0.7153
 7796TIP3   OH223323   6.783   3.137   2.561  0.0728  0.0208  0.2718
 7796TIP3    H123324   6.831   3.084   2.498  1.3542  0.9263  0.4597
 7796TIP3    H223325   6.708   3.083   2.586  1.1109 -1.5204  0.1326
 7797TIP3   OH223326   4.186   4.438   3.948  0.8680 -0.2350  0.3506
 7797TIP3    H123327   4.224   4.521   3.977  0.1597  0.1658  0.1506
 7797TIP3    H223328   4.098   4.437   3.986  0.4095 -0.3120 -0.6772
 7798TIP3   OH223329   2.461   3.548   2.922 -0.9583 -0.4123 -0.2578
 7798TIP3    H123330   2.461   3.636   2.885 -1.6586 -0.2720  0.0638
 7798TIP3    H223331   2.452   3.490   2.846  0.5237 -0.2549 -0.5616
 7799TIP3   OH223332   4.386   5.128   4.780 -0.5161 -0.1093 -0.0848
 7799TIP3    H123333   4.467   5.115   4.732 -0.0459  0.3281  0.5763
 7799TIP3    H223334   4.404   5.202   4.838 -0.1026 -2.4479  2.8891
 7800TIP3   OH223335   4.764   5.099   3.871  0.6281 -0.1903 -0.8332
 7800TIP3    H123336   4.720   5.021   3.838 -2.3752  0.9811  0.2614
 7800TIP3    H223337   4.819   5.129   3.797 -1.6504 -0.7837 -2.8173
 7801TIP3   OH223338   7.857   3.820   3.888  0.1849 -1.0634  0.0683
 7801TIP3    H123339   7.854   3.832   3.983 -1.4054 -1.7111  0.1118
 7801TIP3    H223340   7.901   3.899   3.855  1.2447 -1.0915  1.3761
 7802TIP3   OH223341   7.631   4.906   4.023 -0.2476 -0.3289  0.2406
 7802TIP3    H123342   7.563   4.955   4.069  0.5706  0.3382  0.7537
 7802TIP3    H223343   7.676   4.972   3.970 -0.4778 -0.9001 -0.6839
 7803TIP3   OH223344   7.475   3.752   5.055 -0.0095 -0.0955 -0.2687
 7803TIP3    H123345   7.407   3.744   4.987 -0.7031 -0.4585  0.4688
 7803TIP3    H223346   7.494   3.846   5.058 -2.3621  0.3766  1.3355
 7804TIP3   OH223347   5.838   6.293   4.299 -0.2591  0.3090  0.1327
 7804TIP3    H123348   5.765   6.240   4.269 -2.4062  2.1612  1.8481
 7804TIP3    H223349   5.875   6.331   4.219 -1.8548  0.1839 -0.6922
 7805TIP3   OH223350   5.390   4.561   2.873  0.1247 -0.1266 -0.4000
 7805TIP3    H123351   5.432   4.475   2.883 -0.2968 -0.5116 -1.9006
 7805TIP3    H223352   5.308   4.542   2.826 -0.8834  0.8522  0.9138
 7806TIP3   OH223353   8.108   3.489   4.324  0.3664 -0.1046 -0.4989
 7806TIP3    H123354   8.119   3.411   4.379 -1.3076 -0.3330 -0.4530
 7806TIP3    H223355   8.068   3.457   4.244  0.8048  0.5430 -0.9815
 7807TIP3   OH223356   8.179   4.565   4.362 -0.0131 -0.3351  0.1349
 7807TIP3    H123357   8.109   4.620   4.396  1.7157  0.2034  3.0124
 7807TIP3    H223358   8.135   4.493   4.319 -2.3208  1.4962 -0.6376
 7808TIP3   OH223359   7.287   2.794   2.552  0.2888  0.9460 -0.1206
 7808TIP3    H123360   7.355   2.861   2.564 -0.2431  1.9208 -2.4003
 7808TIP3    H223361   7.206   2.838   2.579  0.3169  0.2958  1.0578
 7809TIP3   OH223362   5.257   1.141   2.513 -0.1078 -0.0173 -0.2203
 7809TIP3    H123363   5.177   1.152   2.564  1.8041  2.6339  2.3686
 7809TIP3    H223364   5.288   1.054   2.535 -1.8907 -0.8053 -0.7214
 7810TIP3   OH223365   6.683   5.990   3.045 -0.2994 -0.2313 -0.1172
 7810TIP3    H123366   6.745   6.040   3.098 -0.7270  0.9751 -0.7571
 7810TIP3    H223367   6.705   5.898   3.064  1.4919  0.1816 -0.1210
 7811TIP3   OH223368   5.650   5.267   5.439 -0.1543 -0.2253  0.3048
 7811TIP3    H123369   5.599   5.192   5.408  0.9956 -0.9316  0.0815
 7811TIP3    H223370   5.707   5.232   5.507 -0.6795  0.7637  1.2726
 7812TIP3   OH223371   8.052   5.163   4.676  0.2197 -0.2957  0.4974
 7812TIP3    H123372   8.068   5.074   4.645 -2.6329 -0.8638  0.6198
 7812TIP3    H223373   7.997   5.203   4.608  1.0748  1.2391  0.6705
 7813TIP3   OH223374   6.934   4.371   1.745  0.4572 -0.6241 -0.3142
 7813TIP3    H123375   6.979   4.327   1.817 -0.7083  0.1838  0.9285
 7813TIP3    H223376   6.988   4.448   1.726 -0.2343  0.2127  1.0113
 7814TIP3   OH223377   5.449   5.655   4.018  0.0887 -0.1770 -0.2344
 7814TIP3    H123378   5.538   5.657   4.053  0.8690 -1.0360 -2.0842
 7814TIP3    H223379   5.393   5.675   4.093  1.7373 -1.2470  1.3190
 7815TIP3   OH223380   7.973   5.905   3.638 -0.2514 -0.5689 -0.0671
 7815TIP3    H123381   7.939   5.925   3.551 -1.1101  1.5531  0.7182
 7815TIP3    H223382   7.895   5.884   3.690  0.1891 -1.1679  0.3549
 7816TIP3   OH223383   6.308   6.154   4.026  0.3878  0.1578  0.0614
 7816TIP3    H123384   6.391   6.202   4.026  0.5356 -0.0958 -0.2736
 7816TIP3    H223385   6.265   6.181   4.107  0.4130  0.9496 -0.1900
 7817TIP3   OH223386   7.306   7.067   4.207  0.0250 -0.1624 -0.0692
 7817TIP3    H123387   7.233   7.073   4.269  2.7083  0.3614  3.1610
 7817TIP3    H223388   7.348   6.984   4.227  1.4350  0.4067 -0.5732
 7818TIP3   OH223389   7.049   5.751   3.929  0.4689  0.2548  0.5144
 7818TIP3    H123390   7.091   5.706   3.856 -1.5260 -1.6583  0.4639
 7818TIP3    H223391   7.082   5.840   3.926  1.0351 -0.0170 -2.2292
 7819TIP3   OH223392   7.222   4.542   2.571 -0.5737 -0.0776  0.1796
 7819TIP3    H123393   7.205   4.625   2.615  0.5987  0.2327  0.0646
 7819TIP3    H223394   7.232   4.479   2.642 -0.4854  0.0731  0.3020
 7820TIP3   OH223395   5.449   3.735   3.890  0.1613 -0.0774  0.6516
 7820TIP3    H123396   5.514   3.673   3.856 -0.6786 -1.4429  1.4876
 7820TIP3    H223397   5.429   3.792   3.816  0.2708 -1.3879 -0.4035
 7821TIP3   OH223398   1.045   5.141   5.210  0.0826  0.3331  0.3934
 7821TIP3    H123399   0.963   5.179   5.179 -1.1479 -0.2621  2.8151
 7821TIP3    H223400   1.038   5.048   5.188  0.3991  0.4088 -0.0195
 7822TIP3   OH223401   7.192   3.677   3.757 -0.0113 -0.1763  0.2953
 7822TIP3    H123402   7.122   3.738   3.737  0.2931 -0.3283 -1.3507
 7822TIP3    H223403   7.158   3.591   3.729 -0.5965 -0.8446  2.9621
 7823TIP3   OH223404   5.532   3.673   3.263  0.2239  0.0221  0.1371
 7823TIP3    H123405   5.579   3.621   3.198  0.9697 -0.3123  0.9296
 7823TIP3    H223406   5.520   3.614   3.337  0.5516  0.7928  0.8173
 7824TIP3   OH223407   7.208   2.911   2.975  0.1210 -0.4714  0.5833
 7824TIP3    H123408   7.190   2.934   3.066 -0.0904 -1.0975  0.7038
 7824TIP3    H223409   7.129   2.937   2.927  0.0868 -0.4760  0.6378
 7825TIP3   OH223410   4.029   3.176   6.587 -0.3844 -0.3757  0.4840
 7825TIP3    H123411   3.957   3.222   6.545 -0.6112 -1.7090 -0.6270
 7825TIP3    H223412   4.024   3.087   6.552  1.5598 -0.5885  0.7036
 7826TIP3   OH223413   5.713   4.533   4.846 -0.1913 -0.6818  0.0994
 7826TIP3    H123414   5.690   4.444   4.819 -1.1229 -0.4973  0.2784
 7826TIP3    H223415   5.752   4.572   4.768 -0.8141 -0.8803 -0.3104
 7827TIP3   OH223416   5.081   4.125   4.822 -0.3312 -0.2909  0.1983
 7827TIP3    H123417   5.082   4.056   4.756  0.7451 -0.3937  0.3220
 7827TIP3    H223418   4.989   4.151   4.827 -0.4410 -0.3261 -1.2992
 7828TIP3   OH223419   6.071   5.511   3.433 -0.4900 -0.0156 -0.0057
 7828TIP3    H123420   6.104   5.422   3.443  1.5962  0.4651 -2.1610
 7828TIP3    H223421   5.978   5.500   3.413 -0.1013 -1.7470 -0.9284
 7829TIP3   OH223422   5.858   3.964   3.391 -0.0728  0.0933  0.4816
 7829TIP3    H123423   5.895   4.031   3.334 -0.5347 -0.6169 -0.6883
 7829TIP3    H223424   5.895   3.882   3.357 -0.2798 -0.3249  1.2733
 7830TIP3   OH223425   7.151   5.238   3.343  0.5209  0.4894 -0.1103
 7830TIP3    H123426   7.181   5.148   3.353  0.1329  0.0568 -2.6288
 7830TIP3    H223427   7.095   5.237   3.266 -1.5482  2.4049  1.3034
 7831TIP3   OH223428   5.426   6.828   3.985  0.3946 -0.0197  0.2775
 7831TIP3    H123429   5.334   6.834   3.962  0.4462 -0.9003 -0.1554
 7831TIP3    H223430   5.430   6.763   4.055  0.9426 -1.6114 -1.1933
 7832TIP3   OH223431   5.624   5.161   4.833 -0.0502 -0.5672 -0.0348
 7832TIP3    H123432   5.636   5.073   4.870 -0.3856 -1.2468 -1.5244
 7832TIP3    H223433   5.643   5.220   4.906  2.6040 -1.8007  0.3467
 7833TIP3   OH223434   6.727   7.132   3.072 -0.1815  0.0547  0.0270
 7833TIP3    H123435   6.644   7.084   3.076  0.5793 -1.2308  0.6573
 7833TIP3    H223436   6.766   7.120   3.159 -0.3876  2.5782  0.5027
 7834TIP3   OH223437   6.895   7.426   3.206 -0.3584  0.1706 -0.2990
 7834TIP3    H123438   6.874   7.412   3.114 -2.6997  3.3647 -0.3458
 7834TIP3    H223439   6.814   7.405   3.253 -0.5156  2.5369  0.5746
 7835TIP3   OH223440   5.837   4.480   2.834 -0.1877 -0.4258 -0.3293
 7835TIP3    H123441   5.804   4.404   2.787 -0.1821  0.2386 -1.4218
 7835TIP3    H223442   5.823   4.553   2.774  1.5361  0.1519 -0.0485
 7836TIP3   OH223443   5.774   5.858   3.226 -0.0834  0.6265 -0.4458
 7836TIP3    H123444   5.754   5.948   3.250 -1.8991  0.2302 -0.4570
 7836TIP3    H223445   5.828   5.825   3.299 -0.1365  1.4369 -0.0394
 7837TIP3   OH223446   3.719   4.809   3.531  0.0238 -0.4735 -0.2216
 7837TIP3    H123447   3.736   4.875   3.598 -1.8507 -0.4810  0.2879
 7837TIP3    H223448   3.625   4.817   3.513 -0.0305 -2.3709 -0.8321
 7838TIP3   OH223449   6.505   4.533   4.865  0.4700 -0.9387 -0.3483
 7838TIP3    H123450   6.466   4.600   4.810 -1.6601 -0.7929  1.2730
 7838TIP3    H223451   6.580   4.577   4.905 -1.4619  0.8625  1.4541
 7839TIP3   OH223452   7.141   5.308   4.116 -0.6924 -0.0158 -0.3108
 7839TIP3    H123453   7.091   5.347   4.044 -0.8155 -0.1522 -0.2992
 7839TIP3    H223454   7.232   5.326   4.094 -0.7495  0.2706 -0.3103
 7840TIP3   OH223455   6.618   5.214   2.857  0.2149  0.5950  0.1308
 7840TIP3    H123456   6.536   5.205   2.906  0.3348  3.6431  1.0102
 7840TIP3    H223457   6.592   5.204   2.765 -1.1710  1.4769  0.3991
 7841TIP3   OH223458   6.079   2.752   3.039  0.4774  0.4758  0.0209
 7841TIP3    H123459   6.055   2.662   3.015 -0.5945  0.6796  0.3003
 7841TIP3    H223460   6.163   2.743   3.084 -0.5918 -0.6233  1.8437
 7842TIP3   OH223461   4.669   4.001   4.671  0.1142 -0.6981 -0.3410
 7842TIP3    H123462   4.718   3.926   4.637 -1.1073 -2.1002  0.8854
 7842TIP3    H223463   4.584   3.964   4.698 -1.4569  1.5623 -1.9861
 7843TIP3   OH223464   6.276   3.758   3.669 -0.0416 -0.4273 -0.0290
 7843TIP3    H123465   6.196   3.788   3.713  0.2441 -0.0755  0.2520
 7843TIP3    H223466   6.292   3.822   3.601  0.7290  0.2279  0.7577
 7844TIP3   OH223467   6.137   3.265   3.966 -0.1119 -0.1404  0.1581
 7844TIP3    H123468   6.180   3.237   3.886 -0.4418  0.5475 -0.2725
 7844TIP3    H223469   6.198   3.244   4.036  1.6192  2.2668 -0.5806
 7845TIP3   OH223470   5.060   4.468   3.545  0.1493  0.1916  0.0082
 7845TIP3    H123471   5.036   4.557   3.518  1.0470  0.9419  1.6017
 7845TIP3    H223472   5.156   4.467   3.541  0.2257 -0.1565  1.6401
 7846TIP3   OH223473   6.946   6.243   6.318 -0.0836  0.2777  0.3023
 7846TIP3    H123474   6.982   6.305   6.255 -0.8150 -0.3198 -0.7330
 7846TIP3    H223475   6.861   6.281   6.343  0.2208  0.5329  0.9751
 7847TIP3   OH223476   3.444   4.612   3.916  0.1393 -0.3786 -0.0151
 7847TIP3    H123477   3.372   4.637   3.973  0.9767 -2.2106  1.8910
 7847TIP3    H223478   3.412   4.630   3.828 -2.0374  0.3471  0.8990
 7848TIP3   OH223479   4.833   2.653   4.163  0.8612 -0.6173 -0.2840
 7848TIP3    H123480   4.774   2.655   4.239  0.5816  0.4425 -0.5313
 7848TIP3    H223481   4.803   2.578   4.112 -2.5797  1.9691 -2.2362
 7849TIP3   OH223482   6.151   4.439   5.360  0.4264  0.6981  0.2608
 7849TIP3    H123483   6.236   4.431   5.403  1.1986  0.9791 -1.2029
 7849TIP3    H223484   6.102   4.362   5.390  1.2565  0.4314  0.9600
 7850TIP3   OH223485   6.914   5.558   2.505 -0.2198  0.0747 -0.2722
 7850TIP3    H123486   6.888   5.603   2.424  0.7833  0.9004 -0.1459
 7850TIP3    H223487   6.834   5.556   2.557 -0.6664  0.3141 -0.9350
 7851TIP3   OH223488   6.082   4.856   2.034  0.1745 -0.6310 -0.5191
 7851TIP3    H123489   6.114   4.766   2.034 -0.1930 -0.7717  1.6575
 7851TIP3    H223490   5.987   4.848   2.028  0.1497 -0.3815 -0.4451
 7852TIP3   OH223491   5.534   5.104   4.261 -0.2380  0.1925 -0.0289
 7852TIP3    H123492   5.579   5.173   4.310 -0.3635 -0.2788  0.7737
 7852TIP3    H223493   5.442   5.131   4.261 -0.2976 -0.0032  0.3476
 7853TIP3   OH223494   5.772   6.680   4.210  0.1427  0.3837 -0.2117
 7853TIP3    H123495   5.808   6.652   4.294  0.0362 -0.5993 -0.4964
 7853TIP3    H223496   5.729   6.763   4.230  1.0433  0.7000  0.4841
 7854TIP3   OH223497   4.042   6.040   4.353 -0.1926  0.3103 -0.5386
 7854TIP3    H123498   3.977   6.040   4.423  0.8479 -1.1214  0.4553
 7854TIP3    H223499   4.078   6.129   4.355  0.7342 -0.0797  1.6347
 7855TIP3   OH223500   7.337   3.595   3.199 -0.4516  0.5618  0.6111
 7855TIP3    H123501   7.365   3.525   3.258  1.3337  0.1423 -0.7006
 7855TIP3    H223502   7.304   3.663   3.257 -2.1055 -1.2917  1.9186
 7856TIP3   OH223503   7.794   4.341   4.133  0.6926 -0.1961 -0.1330
 7856TIP3    H123504   7.798   4.259   4.182  0.7265 -0.7538 -1.0460
 7856TIP3    H223505   7.709   4.379   4.157  0.7933 -0.3649  0.4991
 7857TIP3   OH223506   8.237   3.939   3.851 -0.2620  0.1310  0.3661
 7857TIP3    H123507   8.162   3.998   3.856 -0.0798  0.3999 -0.0263
 7857TIP3    H223508   8.203   3.859   3.811 -0.3022  0.3192  0.0188
 7858TIP3   OH223509   7.520   4.530   3.763  0.3819 -0.4022  0.2768
 7858TIP3    H123510   7.561   4.596   3.707  1.6656 -1.6427 -0.2740
 7858TIP3    H223511   7.505   4.455   3.705  1.4982 -1.6106  1.4941
 7859TIP3   OH223512   6.417   1.588   1.316  0.2470  0.0245  0.4494
 7859TIP3    H123513   6.453   1.502   1.342  2.4233  0.4176 -1.1158
 7859TIP3    H223514   6.481   1.651   1.349  0.7588  0.7811 -1.8810
 7860TIP3   OH223515   7.707   6.147   3.564 -0.3157 -0.1373 -0.4344
 7860TIP3    H123516   7.747   6.083   3.505  2.0210 -0.2285  1.1781
 7860TIP3    H223517   7.651   6.200   3.507  1.9541 -0.1375 -2.7758
 7861TIP3   OH223518   6.436   6.565   3.389 -0.0508 -0.0730 -0.1943
 7861TIP3    H123519   6.378   6.624   3.340 -0.1745 -0.9771 -1.1771
 7861TIP3    H223520   6.447   6.490   3.330 -1.6748 -2.0258  1.9332
 7862TIP3   OH223521   7.126   4.197   1.126  0.2971  0.5721 -0.4440
 7862TIP3    H123522   7.091   4.108   1.133  1.4789  0.2343  1.7960
 7862TIP3    H223523   7.198   4.189   1.064 -0.5378  0.2906 -1.3943
 7863TIP3   OH223524   8.195   5.223   4.909  0.0418  0.2226  0.5075
 7863TIP3    H123525   8.272   5.278   4.894  0.7221 -0.1811  2.4225
 7863TIP3    H223526   8.173   5.189   4.822  3.2365 -1.3084  0.2344
 7864TIP3   OH223527   8.102   6.045   4.119 -0.2143  0.0602 -0.0818
 7864TIP3    H123528   8.195   6.067   4.123  0.3095 -2.2993  1.5143
 7864TIP3    H223529   8.091   6.001   4.035  0.2472 -0.2182  0.0021
 7865TIP3   OH223530   6.929   3.170   2.144 -0.1298  0.0979 -0.2970
 7865TIP3    H123531   6.898   3.200   2.058  0.4523  0.5288 -0.3575
 7865TIP3    H223532   6.959   3.250   2.188  0.0799 -0.1993  0.1000
 7866TIP3   OH223533   8.401   6.728   2.921 -0.1605  0.2583 -0.2830
 7866TIP3    H123534   8.374   6.781   2.845 -0.7369 -0.9475 -0.9283
 7866TIP3    H223535   8.331   6.739   2.984  0.2774  1.1937  0.0504
 7867TIP3   OH223536   0.410   2.992   2.339  0.0876  0.2021 -0.0809
 7867TIP3    H123537   0.336   3.036   2.297  2.0649  2.6340 -1.1334
 7867TIP3    H223538   0.434   2.923   2.277 -1.1585 -0.4736  0.1703
 7868TIP3   OH223539   1.960   2.831   3.460 -0.2689 -0.2164  0.1437
 7868TIP3    H123540   1.944   2.738   3.473 -0.8927 -0.1429 -0.0947
 7868TIP3    H223541   1.927   2.849   3.372  0.2559  0.1393  0.0135
 7869TIP3   OH223542   7.150   4.121   3.726 -0.6038  0.5878 -0.1485
 7869TIP3    H123543   7.118   4.188   3.786 -1.6179  0.1156 -0.1573
 7869TIP3    H223544   7.177   4.170   3.648 -5.0451  0.6926 -1.7457
 7870TIP3   OH223545   6.228   2.387   2.420 -0.0312 -0.0242 -0.5052
 7870TIP3    H123546   6.266   2.442   2.488  0.1272 -0.5593 -0.1517
 7870TIP3    H223547   6.280   2.306   2.423  0.1754  0.0682 -1.4673
 7871TIP3   OH223548   5.975   5.199   4.436  0.0054 -0.0648  0.0076
 7871TIP3    H123549   5.935   5.170   4.354 -0.4263  0.1141  0.1546
 7871TIP3    H223550   6.069   5.194   4.419 -0.0605 -1.4210 -0.0125
 7872TIP3   OH223551   8.371   6.295   4.007 -0.1131 -0.1704 -0.2513
 7872TIP3    H123552   8.410   6.269   4.091  0.2173  1.5809  0.1630
 7872TIP3    H223553   8.327   6.378   4.026 -0.5547 -0.0731 -1.6775
 7873TIP3   OH223554   6.141   4.700   2.288  0.0564 -0.1110  0.2946
 7873TIP3    H123555   6.084   4.641   2.238 -0.5113  0.4610  0.2560
 7873TIP3    H223556   6.217   4.713   2.232  0.7010 -1.6950  0.7824
 7874TIP3   OH223557   7.719   4.108   3.957  0.0691 -0.3149  0.0698
 7874TIP3    H123558   7.725   4.171   4.028 -0.8184  1.8751 -1.7389
 7874TIP3    H223559   7.631   4.071   3.964  0.2885 -0.7384  0.6153
 7875TIP3   OH223560   0.652   4.731   2.667 -0.2853  0.0349 -0.2062
 7875TIP3    H123561   0.747   4.742   2.664 -0.4452  1.3952 -0.8972
 7875TIP3    H223562   0.625   4.782   2.744 -0.2059 -2.5248  1.5805
 7876TIP3   OH223563   4.933   5.350   2.930 -0.1559  0.2222 -0.8285
 7876TIP3    H123564   4.847   5.392   2.929 -0.0679  0.3862 -1.6364
 7876TIP3    H223565   4.926   5.281   2.863 -0.4342 -1.3278  0.7679
 7877TIP3   OH223566   0.178   4.703   2.522  0.0293  0.9955  0.1160
 7877TIP3    H123567   0.164   4.675   2.613 -0.1096 -0.0395 -0.2187
 7877TIP3    H223568   0.272   4.721   2.518  0.2085  0.1174  0.2182
 7878TIP3   OH223569   7.828   2.655   3.039  0.3154 -0.4421  0.0578
 7878TIP3    H123570   7.745   2.624   3.002  0.9511 -1.4920 -0.5268
 7878TIP3    H223571   7.881   2.677   2.962 -0.1503  2.2455  0.4602
 7879TIP3   OH223572   7.431   7.849   3.259 -0.7810 -0.5198 -0.1670
 7879TIP3    H123573   7.527   7.848   3.252 -0.6726  0.2468  1.1272
 7879TIP3    H223574   7.414   7.871   3.351 -2.1847 -3.2713  0.2802
 7880TIP3   OH223575   7.642   3.822   1.740  0.0176  0.1530 -0.1922
 7880TIP3    H123576   7.713   3.816   1.804 -0.7785  1.3011  0.8305
 7880TIP3    H223577   7.686   3.837   1.656  1.0497 -0.9008  0.1513
 7881TIP3   OH223578   7.269   5.973   3.027 -0.5368  0.4447  0.3544
 7881TIP3    H123579   7.234   5.936   2.946  0.5981 -0.1134  0.1138
 7881TIP3    H223580   7.342   5.916   3.050 -0.3750  1.0493  1.3637
 7882TIP3   OH223581   6.694   6.349   3.321  0.5356 -0.7618  0.1170
 7882TIP3    H123582   6.691   6.407   3.398 -0.5193  2.2051 -2.0600
 7882TIP3    H223583   6.612   6.299   3.325  0.2471 -0.2490  0.6611
 7883TIP3   OH223584   6.620   4.126   4.255 -0.1703 -0.4691  0.0486
 7883TIP3    H123585   6.705   4.170   4.258  0.2023 -1.2146  0.5525
 7883TIP3    H223586   6.614   4.094   4.165  0.1355 -0.5174  0.0444
 7884TIP3   OH223587   8.350   6.164   2.631  0.9067 -0.1454 -0.1884
 7884TIP3    H123588   8.288   6.190   2.699 -0.5277 -1.6799 -0.9005
 7884TIP3    H223589   8.408   6.101   2.673  1.1610  0.2822  0.1045
 7885TIP3   OH223590   1.653   7.052   3.481  0.6151 -0.1129 -0.2575
 7885TIP3    H123591   1.559   7.046   3.462  0.8546 -0.1545 -1.4309
 7885TIP3    H223592   1.657   7.111   3.556 -0.5327 -2.0915  1.4264
 7886TIP3   OH223593   8.249   5.479   4.496 -0.2942 -0.1079  0.8331
 7886TIP3    H123594   8.293   5.542   4.553  0.1367  0.3494  0.0042
 7886TIP3    H223595   8.247   5.522   4.411 -2.3787 -0.1235  0.8692
 7887TIP3   OH223596   7.019   6.360   3.307  0.2942 -0.3196 -0.4568
 7887TIP3    H123597   7.057   6.330   3.224  0.2325  1.0401 -0.9969
 7887TIP3    H223598   6.950   6.422   3.280  1.3758  1.3944  0.6429
 7888TIP3   OH223599   4.860   5.113   4.142  0.0738  0.1455 -0.0870
 7888TIP3    H123600   4.832   5.080   4.056  0.3431  0.7760 -0.4260
 7888TIP3    H223601   4.905   5.039   4.183  0.0169 -0.1373 -0.5298
 7889TIP3   OH223602   7.204   5.813   1.984 -0.0794  0.4451  0.6359
 7889TIP3    H123603   7.196   5.800   2.079 -1.3183 -1.0456  0.3611
 7889TIP3    H223604   7.272   5.751   1.957 -0.4148  0.1704  0.4167
 7890TIP3   OH223605   7.469   6.528   4.873  0.6337  0.3664 -0.6165
 7890TIP3    H123606   7.534   6.573   4.819  0.9000 -1.1929 -1.6084
 7890TIP3    H223607   7.515   6.453   4.909 -0.0044  0.4894  0.4922
 7891TIP3   OH223608   0.432   4.085   4.265  0.2139 -0.0392  0.0319
 7891TIP3    H123609   0.390   4.056   4.346 -1.5354  2.8342  0.1991
 7891TIP3    H223610   0.523   4.054   4.273 -0.8503 -3.0221  1.3672
 7892TIP3   OH223611   0.100   4.923   5.244  0.1717 -0.1643  0.2366
 7892TIP3    H123612   0.101   4.829   5.263 -1.9130 -0.8542 -2.6122
 7892TIP3    H223613   0.009   4.950   5.261  0.2848  0.9004 -0.7379
 7893TIP3   OH223614   7.865   7.161   3.472 -0.4057  0.3465  0.2712
 7893TIP3    H123615   7.960   7.149   3.469 -0.4370  0.2836 -0.6042
 7893TIP3    H223616   7.829   7.073   3.461 -0.5712  0.3618  0.6587
 7894TIP3   OH223617   7.308   6.941   4.985  0.2163  0.3233 -0.1347
 7894TIP3    H123618   7.310   6.847   5.000 -1.1582  0.3713  0.4404
 7894TIP3    H223619   7.400   6.966   4.979  0.6560 -0.7376  1.7859
 7895TIP3   OH223620   7.241   4.956   3.898  0.0961 -0.1392 -0.7427
 7895TIP3    H123621   7.188   4.877   3.885 -1.4629  0.6859  0.5494
 7895TIP3    H223622   7.215   4.988   3.984  1.4787  1.2283 -0.8248
 7896TIP3   OH223623   1.393   5.343   0.074 -0.0803  0.1356 -0.2536
 7896TIP3    H123624   1.433   5.412   0.021  1.8500 -1.2607 -0.6716
 7896TIP3    H223625   1.446   5.265   0.055 -0.7692 -0.9104  2.0099
 7897TIP3   OH223626   6.545   6.458   3.785  0.6118  0.2612  0.0328
 7897TIP3    H123627   6.527   6.370   3.818  0.6280  0.6157  1.0133
 7897TIP3    H223628   6.458   6.494   3.765  0.5285  0.3658  0.5594
 7898TIP3   OH223629   7.595   4.358   3.015  0.0417  0.1417 -0.1069
 7898TIP3    H123630   7.598   4.372   2.921 -1.7690 -0.4357 -0.2528
 7898TIP3    H223631   7.682   4.322   3.037  0.0561 -0.8139 -1.7097
 7899TIP3   OH223632   7.673   3.925   6.082  0.4015 -0.5703 -0.3115
 7899TIP3    H123633   7.735   3.953   6.150  0.4042 -1.6810  0.1557
 7899TIP3    H223634   7.660   3.832   6.099 -0.0548 -0.7212 -1.4879
 7900TIP3   OH223635   6.617   6.332   0.739 -0.7460  0.2287  0.0993
 7900TIP3    H123636   6.599   6.238   0.739 -0.8877  0.2565  0.0076
 7900TIP3    H223637   6.631   6.355   0.647 -0.3258  0.2236  0.1632
 7901TIP3   OH223638   8.162   4.341   3.437 -0.6579  0.0584 -0.3980
 7901TIP3    H123639   8.115   4.359   3.518  0.9768  1.7873  0.2150
 7901TIP3    H223640   8.189   4.427   3.405  0.8171 -0.7690 -1.4746
 7902TIP3   OH223641   7.255   6.645   1.449 -0.1363 -0.7104  0.0547
 7902TIP3    H123642   7.319   6.703   1.491 -0.8317  0.2979 -0.2618
 7902TIP3    H223643   7.197   6.619   1.520 -0.2012 -0.5032  0.0786
 7903TIP3   OH223644   7.173   5.557   4.489 -0.1182  0.1978 -0.0606
 7903TIP3    H123645   7.209   5.619   4.553 -0.1704  1.3692 -1.1524
 7903TIP3    H223646   7.248   5.534   4.434 -0.4072  0.4317 -0.5598
 7904TIP3   OH223647   6.246   4.335   3.410  0.5496 -0.4160  0.4351
 7904TIP3    H123648   6.194   4.379   3.343  0.0860  0.2417  1.2100
 7904TIP3    H223649   6.330   4.318   3.368  0.0241 -0.6570 -0.5354
 7905TIP3   OH223650   7.765   4.561   2.126  0.3289  0.0956  0.5716
 7905TIP3    H123651   7.781   4.651   2.097 -2.3593  0.7006  0.9026
 7905TIP3    H223652   7.841   4.540   2.180  1.1114  2.0571  0.2925
 7906TIP3   OH223653   6.009   2.980   6.225  0.3367 -0.1949  0.4089
 7906TIP3    H123654   5.956   2.928   6.285 -0.3154 -0.9932 -0.8553
 7906TIP3    H223655   5.998   3.070   6.256 -0.9537 -0.4608  0.7612
 7907TIP3   OH223656   8.292   3.841   4.803 -0.5587 -0.3854 -0.3610
 7907TIP3    H123657   8.283   3.925   4.847 -0.4520 -0.9184  0.6995
 7907TIP3    H223658   8.348   3.790   4.862 -0.6954 -1.2189 -0.9535
 7908TIP3   OH223659   0.510   3.639   2.617 -0.5073 -0.5033 -0.0756
 7908TIP3    H123660   0.420   3.663   2.637 -1.2883 -0.7990 -3.0323
 7908TIP3    H223661   0.503   3.575   2.546  2.0127 -0.9334  0.0079
 7909TIP3   OH223662   0.662   4.272   4.770 -0.1502 -0.1241  0.6958
 7909TIP3    H123663   0.639   4.224   4.691 -1.9842  2.3964 -0.3845
 7909TIP3    H223664   0.703   4.353   4.739 -0.3108  0.6178  2.3140
 7910TIP3   OH223665   6.022   6.066   2.611 -0.1652  0.3391 -0.0141
 7910TIP3    H123666   5.987   5.982   2.579 -2.1636  0.6269  1.3298
 7910TIP3    H223667   6.110   6.045   2.641 -0.8905 -1.4480  0.9493
 7911TIP3   OH223668   6.922   3.623   4.806 -0.1088 -0.3703  0.1923
 7911TIP3    H123669   6.995   3.662   4.757 -0.5984  0.2129 -0.0779
 7911TIP3    H223670   6.855   3.691   4.807  0.3987  0.1584  2.8464
 7912TIP3   OH223671   7.968   4.050   5.459 -0.6413  0.2180 -0.4842
 7912TIP3    H123672   8.060   4.052   5.435 -0.0994 -1.0851  1.3560
 7912TIP3    H223673   7.924   4.012   5.383  0.0229  2.7725 -2.1971
 7913TIP3   OH223674   8.399   3.272   1.982 -0.3355  0.1636 -0.0645
 7913TIP3    H123675   8.476   3.289   1.928 -0.2291  1.9283  0.6372
 7913TIP3    H223676   8.350   3.206   1.932  2.1421 -1.8460  0.0166
 7914TIP3   OH223677   6.932   4.363   3.792 -0.2524  0.1118 -0.3524
 7914TIP3    H123678   6.900   4.398   3.876 -3.0226 -0.4991 -1.0949
 7914TIP3    H223679   6.917   4.269   3.799  0.4051 -0.0498 -1.1479
 7915TIP3   OH223680   7.530   4.292   5.100 -0.2576  0.5330 -0.5944
 7915TIP3    H123681   7.621   4.288   5.130  0.2662 -0.9250 -2.2454
 7915TIP3    H223682   7.522   4.378   5.060  0.2441  0.8887  0.0755
 7916TIP3   OH223683   6.252   4.562   2.491  0.2392 -0.0129 -0.0526
 7916TIP3    H123684   6.212   4.624   2.430  2.0028  1.7384  0.5183
 7916TIP3    H223685   6.341   4.595   2.504 -0.1151 -0.2152  3.5602
 7917TIP3   OH223686   7.001   3.494   4.422  0.0757 -0.7986 -0.3566
 7917TIP3    H123687   6.917   3.508   4.379 -0.4191 -0.1307  0.8301
 7917TIP3    H223688   7.031   3.409   4.389 -0.9118 -0.8987 -1.0092
 7918TIP3   OH223689   5.086   5.307   3.167  1.0886  0.2225 -0.0891
 7918TIP3    H123690   5.102   5.213   3.172 -1.3483 -0.3099 -1.6727
 7918TIP3    H223691   5.064   5.323   3.075  2.9449  2.6070 -0.1719
 7919TIP3   OH223692   3.356   5.054   6.033 -0.2885  0.8162 -0.1288
 7919TIP3    H123693   3.434   5.006   6.003 -0.2253  0.9101 -0.1165
 7919TIP3    H223694   3.385   5.145   6.038 -0.6552  0.9914 -0.9999
 7920TIP3   OH223695   7.710   4.129   1.865 -0.1733 -0.3933  0.2231
 7920TIP3    H123696   7.718   4.116   1.771 -0.2756 -0.2775  0.1969
 7920TIP3    H223697   7.775   4.196   1.886  1.0303 -1.6399  0.5221
 7921TIP3   OH223698   6.253   4.010   3.504 -0.1737  0.0387  0.0633
 7921TIP3    H123699   6.191   4.021   3.577 -0.4743  0.7113 -0.2876
 7921TIP3    H223700   6.208   4.048   3.429  0.9868  1.2667 -0.0329
 7922TIP3   OH223701   6.308   3.938   5.329 -0.6944 -0.2997 -1.0153
 7922TIP3    H123702   6.304   4.018   5.276 -1.8771 -0.1498 -0.7075
 7922TIP3    H223703   6.297   3.867   5.265 -0.2252 -0.2040 -1.2102
 7923TIP3   OH223704   8.255   5.090   0.452  0.4646 -0.0333 -0.2169
 7923TIP3    H123705   8.235   5.183   0.443  0.0786  0.0103  0.9428
 7923TIP3    H223706   8.253   5.056   0.363 -0.2976  0.8977 -0.5631
 7924TIP3   OH223707   7.126   2.298   2.742 -0.0971  0.3587  0.4259
 7924TIP3    H123708   7.041   2.281   2.701 -0.6841  1.2416  1.2651
 7924TIP3    H223709   7.109   2.294   2.836  0.8511  0.2469  0.5976
 7925TIP3   OH223710   0.847   5.582   4.048 -0.7015  0.0264  0.2629
 7925TIP3    H123711   0.849   5.573   4.143  2.1215 -0.2761  0.2160
 7925TIP3    H223712   0.858   5.676   4.033  1.7498 -0.2335  0.2250
 7926TIP3   OH223713   6.834   4.439   4.599  0.0602 -0.3050 -0.1566
 7926TIP3    H123714   6.783   4.477   4.527 -0.6821 -1.2445 -0.1316
 7926TIP3    H223715   6.768   4.397   4.655  0.7618 -0.6355  0.4203
 7927TIP3   OH223716   0.269   3.952   3.217 -0.0190  0.1493  0.5001
 7927TIP3    H123717   0.204   3.992   3.159 -0.2476  0.4556  0.9526
 7927TIP3    H223718   0.352   3.991   3.191 -0.3353  1.4534  1.3811
 7928TIP3   OH223719   6.657   4.728   3.979  0.0464 -0.3504  0.1477
 7928TIP3    H123720   6.638   4.765   4.065  1.3984  1.6656 -0.3849
 7928TIP3    H223721   6.739   4.680   3.991  1.0405  1.1707 -0.3020
 7929TIP3   OH223722   7.818   2.890   4.268 -0.9600  0.5710  0.4862
 7929TIP3    H123723   7.878   2.939   4.212  0.3573 -0.9090  0.5441
 7929TIP3    H223724   7.839   2.917   4.357  0.0201 -0.3387  0.5436
 7930TIP3   OH223725   7.689   4.356   2.748  0.1368 -0.1276  0.1072
 7930TIP3    H123726   7.678   4.374   2.655 -1.6547  0.7294  0.4702
 7930TIP3    H223727   7.783   4.367   2.763  0.3363  0.4686 -1.4386
 7931TIP3   OH223728   8.073   4.914   2.000  0.2362 -0.1151  0.2751
 7931TIP3    H123729   8.024   4.932   1.919  1.0112  0.8601  0.0033
 7931TIP3    H223730   8.123   4.835   1.981 -0.2988 -0.4191  0.1255
 7932TIP3   OH223731   7.675   2.958   3.377 -0.2240 -0.5875 -0.3665
 7932TIP3    H123732   7.675   2.868   3.410  0.1591 -0.3082  0.3987
 7932TIP3    H223733   7.726   2.953   3.296 -1.5045 -1.3452 -1.1466
 7933TIP3   OH223734   8.354   5.599   3.887  0.0210 -0.1486 -0.0463
 7933TIP3    H123735   8.444   5.625   3.908  0.5629 -1.8274 -0.2363
 7933TIP3    H223736   8.323   5.669   3.829  1.0121  0.7266  0.4496
 7934TIP3   OH223737   7.132   3.534   4.019 -0.6103 -0.1182 -0.2768
 7934TIP3    H123738   7.195   3.516   4.089  1.8942 -1.5974 -2.7861
 7934TIP3    H223739   7.169   3.611   3.974 -0.4652 -1.0861 -1.8548
 7935TIP3   OH223740   8.067   6.322   3.844  0.3931 -0.4286 -0.4673
 7935TIP3    H123741   8.158   6.305   3.821  1.4377  2.6178  1.1904
 7935TIP3    H223742   8.071   6.365   3.930 -2.6236 -0.5941 -0.1844
 7936TIP3   OH223743   7.483   2.878   2.865  0.0792 -0.1032 -0.2680
 7936TIP3    H123744   7.402   2.893   2.913  1.1572  1.0828  1.2621
 7936TIP3    H223745   7.520   2.798   2.903  1.8937  1.8734  2.3547
 7937TIP3   OH223746   6.850   5.998   4.267 -0.1913  0.2852 -0.4113
 7937TIP3    H123747   6.788   5.926   4.282  0.0577  0.6668  2.6700
 7937TIP3    H223748   6.798   6.077   4.277  0.2014  0.5696 -0.6149
 7938TIP3   OH223749   7.238   6.662   3.942 -0.1383  0.1087 -0.1535
 7938TIP3    H123750   7.275   6.750   3.946  0.8831 -0.3028 -0.5491
 7938TIP3    H223751   7.181   6.657   4.019 -0.8353  1.3922 -0.5530
 7939TIP3   OH223752   6.880   5.710   4.925  0.3030 -0.7202  0.2876
 7939TIP3    H123753   6.806   5.650   4.938  0.4557 -1.3893 -1.8198
 7939TIP3    H223754   6.912   5.690   4.837  1.6136  1.1003  0.3306
 7940TIP3   OH223755   6.681   6.005   2.112  0.2140  0.2315  0.0637
 7940TIP3    H123756   6.617   6.069   2.143 -0.0712 -0.2776  0.5359
 7940TIP3    H223757   6.747   6.057   2.067  1.5177  1.2054  2.9570
 7941TIP3   OH223758   8.058   4.095   3.299  0.0538  0.5028 -0.0732
 7941TIP3    H123759   7.988   4.052   3.250 -0.1979  1.1916 -0.3149
 7941TIP3    H223760   8.018   4.115   3.384  0.8782 -1.8772  0.9118
 7942TIP3   OH223761   0.358   5.924   3.386  0.2984 -0.1373  0.2112
 7942TIP3    H123762   0.374   6.018   3.375 -1.8653  0.2757  0.4637
 7942TIP3    H223763   0.327   5.895   3.301 -0.9525 -0.2036  0.6788
 7943TIP3   OH223764   7.162   4.241   2.580 -0.4078 -0.1474 -0.3363
 7943TIP3    H123765   7.078   4.287   2.590 -0.4770 -0.0683 -1.1779
 7943TIP3    H223766   7.212   4.265   2.657 -1.3127 -0.5124  0.3768
 7944TIP3   OH223767   8.230   5.298   3.439 -0.5056 -0.6492 -0.6115
 7944TIP3    H123768   8.217   5.302   3.534 -1.4483  0.4318 -0.7658
 7944TIP3    H223769   8.325   5.299   3.427 -0.3874 -0.5417  0.3199
 7945TIP3   OH223770   7.379   5.537   4.306 -0.5511 -0.0436  0.2947
 7945TIP3    H123771   7.412   5.625   4.289  0.8844 -0.0698  2.6295
 7945TIP3    H223772   7.376   5.495   4.220 -0.2329  1.9381 -0.7002
 7946TIP3   OH223773   6.006   5.833   0.965  0.2722 -0.5069  0.1253
 7946TIP3    H123774   6.013   5.739   0.979 -0.9678 -0.6396 -0.0900
 7946TIP3    H223775   5.986   5.842   0.872 -0.4633 -0.0754  0.3188
 7947TIP3   OH223776   7.630   5.306   2.630 -0.1806 -0.4827 -0.5113
 7947TIP3    H123777   7.589   5.221   2.611 -1.6444 -0.2393  1.3451
 7947TIP3    H223778   7.632   5.351   2.545 -2.4264 -1.1173 -0.9510
 7948TIP3   OH223779   7.754   4.896   0.929 -0.5103 -0.4825 -0.3568
 7948TIP3    H123780   7.841   4.894   0.888 -0.2531 -0.2246  0.1760
 7948TIP3    H223781   7.742   4.988   0.954 -0.5259 -0.7054  0.4599
 7949TIP3   OH223782   6.233   7.090   4.296  0.1113 -0.1627 -0.1434
 7949TIP3    H123783   6.170   7.109   4.366 -0.7488 -1.3031 -0.5860
 7949TIP3    H223784   6.310   7.056   4.341  0.8590  2.2982  0.4921
 7950TIP3   OH223785   0.242   3.051   1.122 -0.0656  0.1011 -0.2867
 7950TIP3    H123786   0.190   3.114   1.072  2.2844  0.1439 -2.7737
 7950TIP3    H223787   0.198   3.047   1.208 -3.3716  1.0895 -1.8301
 7951TIP3   OH223788   8.279   3.135   3.455  0.3039  0.6321 -0.2211
 7951TIP3    H123789   8.330   3.076   3.510 -0.4416 -2.2709 -2.5099
 7951TIP3    H223790   8.190   3.131   3.490  0.1752  0.0841 -0.6049
 7952TIP3   OH223791   7.380   5.524   5.206 -0.1904 -0.0384 -0.1067
 7952TIP3    H123792   7.412   5.600   5.254 -1.2251  1.0610 -1.1192
 7952TIP3    H223793   7.405   5.449   5.260  0.4334  1.0459  1.1346
 7953TIP3   OH223794   7.663   7.738   0.189 -0.5080 -0.0679 -0.2228
 7953TIP3    H123795   7.624   7.671   0.245  0.0006 -0.8994 -0.8569
 7953TIP3    H223796   7.629   7.821   0.224 -2.6495 -0.7438 -0.6376
 7954TIP3   OH223797   6.322   2.535   2.628  0.4093 -0.0696 -0.0890
 7954TIP3    H123798   6.259   2.605   2.640  0.5001 -0.1829  1.0309
 7954TIP3    H223799   6.308   2.476   2.702  1.6984 -0.1920  0.0765
 7955TIP3   OH223800   6.997   4.544   0.295  0.1863 -0.4377  0.5265
 7955TIP3    H123801   6.950   4.580   0.370 -0.5846 -1.1303  0.3849
 7955TIP3    H223802   6.985   4.609   0.226  0.6174  0.0445  0.8960
 7956TIP3   OH223803   7.540   5.003   3.214 -0.1983  0.4235 -0.0856
 7956TIP3    H123804   7.635   5.009   3.216 -0.1767  0.0004  0.3998
 7956TIP3    H223805   7.518   4.944   3.287 -0.6744 -1.2741 -1.5568
 7957TIP3   OH223806   0.456   3.761   4.272 -0.1817 -0.3724  0.1908
 7957TIP3    H123807   0.498   3.797   4.351 -0.2305 -0.2568  0.1643
 7957TIP3    H223808   0.478   3.668   4.274  0.1320 -0.2966  0.1387
 7958TIP3   OH223809   5.289   6.535   0.725 -0.0214 -0.5535  0.1595
 7958TIP3    H123810   5.218   6.497   0.776 -0.1406 -1.1377 -0.4411
 7958TIP3    H223811   5.272   6.629   0.727  0.5195 -0.4667  2.0250
 7959TIP3   OH223812   1.468   2.330   1.934  0.2762 -0.4028 -0.0777
 7959TIP3    H123813   1.520   2.380   1.997  0.5398 -1.4324  0.5237
 7959TIP3    H223814   1.387   2.309   1.981 -0.5529  0.8636 -0.8823
 7960TIP3   OH223815   8.512   4.747   3.267  0.0478  0.6557  0.1443
 7960TIP3    H123816   8.502   4.812   3.197 -1.1407 -1.4882 -1.7595
 7960TIP3    H223817   8.428   4.747   3.312 -0.8037 -1.1833 -1.3684
 7961TIP3   OH223818   7.048   6.389   5.600  0.6781 -0.5011 -0.5521
 7961TIP3    H123819   7.087   6.328   5.662  1.0136  0.1097 -0.1621
 7961TIP3    H223820   6.958   6.359   5.590  0.7939 -0.9614 -0.2425
 7962TIP3   OH223821   6.006   6.475   0.428  0.0950 -0.1649 -0.3975
 7962TIP3    H123822   5.957   6.393   0.438 -0.1776  0.1091  0.5651
 7962TIP3    H223823   5.998   6.518   0.513  1.8607 -0.0316 -0.2751
 7963TIP3   OH223824   8.469   2.550   3.210  0.3996 -0.2707 -0.0197
 7963TIP3    H123825   8.427   2.631   3.239 -1.1059 -0.0672 -2.5805
 7963TIP3    H223826   8.397   2.488   3.203  1.0785 -0.9476 -1.0516
 7964TIP3   OH223827   6.953   5.249   4.414  0.1933 -0.6304  0.0787
 7964TIP3    H123828   6.861   5.270   4.430  0.4861 -0.2275  1.2925
 7964TIP3    H223829   6.951   5.181   4.347 -1.0149 -1.1108  0.5960
 7965TIP3   OH223830   0.432   5.040   2.687  0.6342  0.3591 -0.1718
 7965TIP3    H123831   0.341   5.070   2.687  0.0377 -1.3625  0.4630
 7965TIP3    H223832   0.473   5.088   2.758  0.0948  0.8206 -0.1683
 7966TIP3   OH223833   6.519   4.140   0.245  0.4109  0.0851 -0.1872
 7966TIP3    H123834   6.584   4.101   0.303  2.1271  0.3286 -1.9156
 7966TIP3    H223835   6.545   4.232   0.238  0.1914  0.0683 -1.2966
 7967TIP3   OH223836   8.221   5.585   2.790 -0.0948 -0.3919 -0.3124
 7967TIP3    H123837   8.225   5.492   2.812 -1.7291  0.0412  2.0374
 7967TIP3    H223838   8.131   5.599   2.761  0.0282  0.5103 -0.2678
 7968TIP3   OH223839   5.456   3.014   2.147  0.7429  0.3314  0.5470
 7968TIP3    H123840   5.408   2.965   2.080  0.7021 -0.4307  1.1270
 7968TIP3    H223841   5.496   3.086   2.099  0.7611 -0.2382 -0.3152
 7969TIP3   OH223842   4.475   3.515   2.800  0.6208 -1.1043  0.0651
 7969TIP3    H123843   4.542   3.471   2.749  1.4185  0.2854 -0.1083
 7969TIP3    H223844   4.469   3.603   2.762 -1.5099 -1.2877 -0.1179
 7970TIP3   OH223845   7.095   6.114   4.408  0.0675 -0.3953 -0.7017
 7970TIP3    H123846   7.082   6.117   4.503  0.1369  1.4477 -0.7346
 7970TIP3    H223847   7.007   6.097   4.373 -0.1538  0.0387 -0.3605
 7971TIP3   OH223848   7.226   6.753   3.174 -0.0024  0.1043  0.1086
 7971TIP3    H123849   7.252   6.800   3.094 -3.2265  1.2622 -0.3516
 7971TIP3    H223850   7.254   6.810   3.245 -0.4960  0.9077 -0.3321
 7972TIP3   OH223851   8.144   2.859   4.301 -0.4765  0.1317 -0.1643
 7972TIP3    H123852   8.228   2.821   4.278 -0.4608  0.3188 -0.4102
 7972TIP3    H223853   8.121   2.915   4.227 -1.0827 -0.3537 -0.3441
 7973TIP3   OH223854   0.213   4.835   4.470  0.4225 -0.4932 -0.2348
 7973TIP3    H123855   0.278   4.904   4.488 -0.2060 -0.5481  2.4563
 7973TIP3    H223856   0.130   4.875   4.494  0.0378 -2.1374  1.2144
 7974TIP3   OH223857   0.085   6.392   2.978  0.2167  0.3373 -0.1142
 7974TIP3    H123858   0.138   6.463   3.014  1.7306 -0.0361 -1.5715
 7974TIP3    H223859   0.090   6.322   3.044  1.4619  0.3350 -0.2110
 7975TIP3   OH223860   6.515   6.506   2.659 -0.2658  0.3184 -0.3577
 7975TIP3    H123861   6.461   6.578   2.691  0.6778 -0.2685  2.6826
 7975TIP3    H223862   6.573   6.546   2.594 -0.9134  1.9267  0.0404
 7976TIP3   OH223863   6.551   4.688   1.570 -0.5355 -0.4835 -0.4840
 7976TIP3    H123864   6.455   4.689   1.572 -0.6350 -2.9041 -2.4098
 7976TIP3    H223865   6.574   4.735   1.490 -0.1838 -1.5067 -0.9917
 7977TIP3   OH223866   8.318   6.576   3.871 -0.2005  0.2243  0.2582
 7977TIP3    H123867   8.252   6.644   3.883 -0.4830 -0.2008  1.1282
 7977TIP3    H223868   8.399   6.614   3.905 -0.2598  0.2935  0.3210
 7978TIP3   OH223869   7.113   6.197   3.081 -0.3000 -0.2651 -0.5994
 7978TIP3    H123870   7.175   6.124   3.080 -1.8182 -1.5997 -3.3613
 7978TIP3    H223871   7.136   6.249   3.003  0.1062  1.6768  0.7736
 7979TIP3   OH223872   8.315   5.998   5.075 -0.0170  0.6367  0.2884
 7979TIP3    H123873   8.398   5.958   5.101  0.5191  0.6856 -1.2538
 7979TIP3    H223874   8.321   6.005   4.979 -2.3996 -0.6952  0.0137
 7980TIP3   OH223875   1.659   6.941   5.287 -0.0808 -0.6860 -0.3868
 7980TIP3    H123876   1.624   6.891   5.213  1.4520 -0.0599 -1.5727
 7980TIP3    H223877   1.744   6.900   5.305  0.6087  0.6553 -0.5244
 7981TIP3   OH223878   8.148   2.555   3.259 -0.2074  0.4054 -0.4749
 7981TIP3    H123879   8.078   2.494   3.282 -0.5085  1.0944  0.4668
 7981TIP3    H223880   8.129   2.634   3.310  1.6241  0.3689  0.3098
 7982TIP3   OH223881   8.081   7.365   5.337  0.1823 -0.1112 -0.5900
 7982TIP3    H123882   8.035   7.295   5.384  0.7805 -1.4752 -1.9613
 7982TIP3    H223883   8.174   7.347   5.352  0.3402  0.3838 -0.9586
 7983TIP3   OH223884   7.569   4.557   3.290  0.1173 -0.0356 -0.0120
 7983TIP3    H123885   7.575   4.489   3.224 -2.2153 -0.2585 -0.0449
 7983TIP3    H223886   7.657   4.595   3.294  0.7304 -1.1845 -1.9647
 7984TIP3   OH223887   0.069   6.190   5.209 -0.2065 -0.4914 -0.6354
 7984TIP3    H123888   0.002   6.197   5.277  0.3612 -0.2877 -0.0864
 7984TIP3    H223889   0.056   6.104   5.170  0.9907 -1.6205  1.3727
 7985TIP3   OH223890   6.587   4.611   4.474 -0.4177  0.2027 -0.3416
 7985TIP3    H123891   6.628   4.673   4.534 -1.4955  1.1074 -0.5234
 7985TIP3    H223892   6.504   4.587   4.516 -0.6025 -0.1204 -0.8819
 7986TIP3   OH223893   7.814   4.050   4.886  0.6368  0.0407  0.2867
 7986TIP3    H123894   7.901   4.079   4.857  0.2139  0.9268 -0.1040
 7986TIP3    H223895   7.761   4.051   4.807  0.0389  0.3449  0.6915
 7987TIP3   OH223896   7.769   5.372   4.353  0.1273  0.0906  0.0512
 7987TIP3    H123897   7.717   5.450   4.334 -0.0645  0.4186  1.7877
 7987TIP3    H223898   7.791   5.336   4.268 -2.4138  0.2849 -0.7132
 7988TIP3   OH223899   7.423   6.315   2.759 -0.2968 -0.7225  0.2566
 7988TIP3    H123900   7.380   6.362   2.830 -1.2107  0.0402 -0.7889
 7988TIP3    H223901   7.351   6.285   2.703  0.5177  1.0390 -1.8051
 7989TIP3   OH223902   8.420   6.442   5.393 -0.0658 -0.6207 -0.3939
 7989TIP3    H123903   8.412   6.350   5.417 -0.4838 -0.2848  0.8291
 7989TIP3    H223904   8.445   6.442   5.301 -0.3904 -1.9497 -0.4806
 7990TIP3   OH223905   7.435   4.467   6.396  0.0657 -0.8163  0.0855
 7990TIP3    H123906   7.460   4.447   6.306  1.0644  0.4819  0.0507
 7990TIP3    H223907   7.515   4.451   6.447 -0.4293 -1.3216  0.7092
 7991TIP3   OH223908   6.182   4.972   4.398 -0.1170  0.3325  0.7445
 7991TIP3    H123909   6.213   5.051   4.355  1.2939 -0.4446  0.3074
 7991TIP3    H223910   6.250   4.952   4.463 -0.7274 -0.2158  1.2164
 7992TIP3   OH223911   7.847   3.844   4.155  0.3660 -0.0392  0.3744
 7992TIP3    H123912   7.858   3.769   4.214  0.7248 -1.3991 -1.3718
 7992TIP3    H223913   7.752   3.859   4.153  0.2916 -0.4420  0.7229
 7993TIP3   OH223914   6.631   5.040   1.830  0.3962 -0.0343  0.1203
 7993TIP3    H123915   6.629   5.117   1.773  2.6376 -0.5124 -0.6577
 7993TIP3    H223916   6.667   4.970   1.775  0.6886 -1.0214  1.5320
 7994TIP3   OH223917   7.955   4.313   4.935  0.0629  0.1720 -0.6545
 7994TIP3    H123918   7.996   4.263   5.005 -1.7153  0.7063  0.7819
 7994TIP3    H223919   7.971   4.261   4.856 -0.5723 -1.9859  0.6070
 7995TIP3   OH223920   1.925   7.655   0.107 -0.1659  0.2727  0.1531
 7995TIP3    H123921   1.939   7.726   0.169  0.6004 -1.2107  1.7122
 7995TIP3    H223922   1.830   7.655   0.092 -0.4756  0.1008  2.0056
 7996TIP3   OH223923   0.050   4.011   3.771  0.1905 -0.1776  0.5436
 7996TIP3    H123924   0.073   4.076   3.705  1.5361 -0.0789  1.1033
 7996TIP3    H223925  -0.045   4.018   3.780 -0.0427 -0.3833 -1.5710
 7997TIP3   OH223926   7.864   3.914   4.491 -0.2847 -0.6746  0.4557
 7997TIP3    H123927   7.901   3.844   4.437  2.6205  0.9704  0.2128
 7997TIP3    H223928   7.909   3.906   4.575 -1.8225 -0.6779  1.2977
 7998TIP3   OH223929   8.338   4.563   3.035  0.0386  0.3365  0.5220
 7998TIP3    H123930   8.317   4.656   3.038 -0.7613  0.1608  0.2936
 7998TIP3    H223931   8.433   4.560   3.046 -0.0857  1.0964  1.8084
 7999TIP3   OH223932   7.158   4.321   2.228 -0.0850 -0.0450 -0.0573
 7999TIP3    H123933   7.203   4.313   2.143 -0.3299  1.4514 -0.3356
 7999TIP3    H223934   7.201   4.255   2.283 -0.1698 -1.3022 -1.4368
 8000TIP3   OH223935   6.621   5.382   3.611  0.0451 -0.3038 -0.6870
 8000TIP3    H123936   6.660   5.412   3.529  0.9826 -0.3471 -0.2696
 8000TIP3    H223937   6.658   5.440   3.678 -0.0310 -0.8171 -0.1908
 8001TIP3   OH223938   5.121   5.814   3.748 -0.4043 -0.2866  0.3732
 8001TIP3    H123939   5.076   5.743   3.795  0.1836 -1.4178 -0.7425
 8001TIP3    H223940   5.155   5.772   3.669 -1.2399  1.5489 -0.9964
 8002TIP3   OH223941   8.335   6.290   4.812 -0.3289  0.1596  0.2303
 8002TIP3    H123942   8.356   6.377   4.780  1.0390  0.3490  1.5848
 8002TIP3    H223943   8.338   6.234   4.734 -0.4069  1.1786 -0.5011
 8003TIP3   OH223944   8.228   7.167   3.109 -0.1730 -0.0390 -0.2766
 8003TIP3    H123945   8.292   7.229   3.075 -2.5599  2.0259 -1.1586
 8003TIP3    H223946   8.191   7.126   3.030 -2.0043  0.9370  0.0619
 8004TIP3   OH223947   6.672   5.811   2.743  0.8357  0.7696 -0.1001
 8004TIP3    H123948   6.587   5.845   2.770  0.7263  2.2703 -2.1583
 8004TIP3    H223949   6.656   5.720   2.721 -0.3585  1.1536 -0.8829
 8005TIP3   OH223950   0.060   5.036   4.821  0.7188  0.3068  0.0184
 8005TIP3    H123951   0.001   5.061   4.893  0.2707 -1.1332  0.1822
 8005TIP3    H223952   0.095   5.119   4.789 -0.6486  1.1309  0.5699
 8006TIP3   OH223953   7.545   5.628   2.605 -0.3105  0.2024  0.0175
 8006TIP3    H123954   7.557   5.661   2.516  0.2772  1.4034  0.5312
 8006TIP3    H223955   7.549   5.533   2.596  2.0597  0.3566 -0.9478
 8007TIP3   OH223956   7.860   4.607   5.007 -0.1934  0.3475  0.7427
 8007TIP3    H123957   7.905   4.524   4.995  0.4630  0.7394  0.5111
 8007TIP3    H223958   7.925   4.674   4.988 -1.4706  0.9237 -1.8329
 8008TIP3   OH223959   7.120   3.805   4.422 -0.3589  0.0784 -0.5352
 8008TIP3    H123960   7.182   3.733   4.436 -0.9293 -0.5354 -1.1295
 8008TIP3    H223961   7.058   3.771   4.357 -2.6442 -0.1382  1.6834
 8009TIP3   OH223962   5.258   5.192   4.307  0.4438 -0.5830 -0.4653
 8009TIP3    H123963   5.222   5.113   4.268  3.3195 -1.8608 -0.7021
 8009TIP3    H223964   5.258   5.174   4.401 -0.2244 -0.2746 -0.4057
 8010TIP3   OH223965   7.014   4.253   0.326 -0.5806 -0.4449  0.2289
 8010TIP3    H123966   7.049   4.335   0.292 -0.3010 -0.7638 -0.2587
 8010TIP3    H223967   7.081   4.188   0.305 -2.0669 -1.3116 -1.9131
 8011TIP3   OH223968   6.904   3.745   1.942 -0.4623 -0.1229 -0.2287
 8011TIP3    H123969   6.964   3.807   1.983 -0.7423 -0.4658  0.7294
 8011TIP3    H223970   6.836   3.730   2.009 -0.1523 -1.7831 -0.2667
 8012TIP3   OH223971   5.157   2.533   3.801  0.0262 -0.0180 -0.1778
 8012TIP3    H123972   5.101   2.455   3.798 -0.1033  0.1023 -0.9472
 8012TIP3    H223973   5.132   2.583   3.723  1.2925 -0.0103 -0.5756
 8013TIP3   OH223974   6.353   3.177   6.148  0.1870  0.0453 -0.4520
 8013TIP3    H123975   6.284   3.114   6.124  0.8587 -2.3546  3.4142
 8013TIP3    H223976   6.434   3.138   6.115  0.1765  0.9103 -1.5345
 8014TIP3   OH223977   8.189   4.553   3.280  0.2770 -0.1657  0.0045
 8014TIP3    H123978   8.255   4.578   3.215 -0.3761 -0.2155 -0.6807
 8014TIP3    H223979   8.132   4.630   3.286 -1.0501 -1.0274 -1.2387
 8015TIP3   OH223980   1.582   5.847   3.604  0.0594  0.1067 -0.3920
 8015TIP3    H123981   1.653   5.910   3.612  1.0103 -1.0128  0.1682
 8015TIP3    H223982   1.624   5.768   3.570 -0.7848 -0.7604  0.5324
 8016TIP3   OH223983   6.963   5.509   4.307 -0.0147 -0.1066  0.6582
 8016TIP3    H123984   6.982   5.416   4.322 -0.0736 -0.0068  1.3717
 8016TIP3    H223985   7.049   5.551   4.306 -0.0459 -0.0098  1.4586
 8017TIP3   OH223986   6.358   5.950   3.807  0.0360  0.3269  0.2352
 8017TIP3    H123987   6.353   6.032   3.858 -1.5665  0.3404  0.0599
 8017TIP3    H223988   6.336   5.882   3.870 -0.0569  0.1599  0.0180
 8018TIP3   OH223989   7.314   4.670   4.925 -0.0823 -0.0099  0.1683
 8018TIP3    H123990   7.303   4.728   5.001  0.4536  1.4022 -0.8222
 8018TIP3    H223991   7.305   4.728   4.849  0.0114 -1.3100 -0.8396
 8019TIP3   OH223992   7.856   4.935   3.436  0.3941  0.1891 -0.2685
 8019TIP3    H123993   7.940   4.892   3.420  1.0078  1.5723 -0.8497
 8019TIP3    H223994   7.870   5.026   3.408 -0.9964  0.6679  0.5550
 8020TIP3   OH223995   8.046   7.884   3.382  0.2534 -0.3165 -0.1478
 8020TIP3    H123996   8.086   7.815   3.435 -1.1237 -0.1413  1.1664
 8020TIP3    H223997   7.999   7.938   3.445 -1.1632  0.0950 -1.5240
 8021TIP3   OH223998   6.973   4.430   5.157  0.3713 -0.1009  0.4285
 8021TIP3    H123999   6.924   4.366   5.106 -0.7146 -0.0887  1.4534
 8021TIP3    H224000   7.063   4.423   5.123  0.1039 -1.5804 -0.0279
 8022TIP3   OH224001   7.155   5.138   5.110 -0.1010  0.3343  0.2471
 8022TIP3    H124002   7.122   5.048   5.111 -1.6360  0.8932  0.3726
 8022TIP3    H224003   7.175   5.155   5.018  2.1618 -0.8305  0.4948
 8023TIP3   OH224004   4.036   5.909   3.178 -0.5345  0.1036  1.0752
 8023TIP3    H124005   4.127   5.936   3.181  0.6027 -3.3790 -0.1600
 8023TIP3    H224006   4.030   5.834   3.236 -2.4821 -0.1333  0.6328
 8024TIP3   OH224007   6.031   7.966   2.132 -0.3647  0.5660  0.7707
 8024TIP3    H124008   5.953   7.999   2.178 -1.2468  0.9804 -0.9504
 8024TIP3    H224009   6.020   7.871   2.132 -0.6225  0.5945  0.9628
 8025TIP3   OH224010   6.374   3.775   5.538 -0.4739 -0.5005 -0.1514
 8025TIP3    H124011   6.354   3.841   5.472  0.8844  0.3970  0.3061
 8025TIP3    H224012   6.465   3.750   5.521  0.2379  0.4909  1.9806
 8026TIP3   OH224013   7.549   3.237   1.172  0.5031 -0.0425  0.2596
 8026TIP3    H124014   7.610   3.188   1.227  1.9338 -0.7337 -1.8359
 8026TIP3    H224015   7.541   3.183   1.093  0.5468  2.1411 -1.2683
 8027TIP3   OH224016   5.324   1.902   4.506  0.1524  0.1634 -0.1970
 8027TIP3    H124017   5.250   1.874   4.559 -0.4971  1.7519 -0.2307
 8027TIP3    H224018   5.289   1.974   4.453  1.8373  1.2507  0.1317
 8028TIP3   OH224019   6.585   3.226   1.793 -0.1443  0.1568  0.2321
 8028TIP3    H124020   6.512   3.175   1.757  1.5866 -0.9871 -1.7762
 8028TIP3    H224021   6.587   3.306   1.741  0.0391  0.1858  0.2835
 8029TIP3   OH224022   0.314   2.410   2.359  0.4281 -0.1230 -0.0203
 8029TIP3    H124023   0.321   2.465   2.436  0.5981 -0.1782  0.0029
 8029TIP3    H224024   0.400   2.413   2.318  0.6710 -1.0088  0.4138
 8030TIP3   OH224025   6.090   4.583   2.007  0.1689 -0.0640  0.4763
 8030TIP3    H124026   6.077   4.538   1.923  2.3144 -0.0874  0.1202
 8030TIP3    H224027   6.127   4.516   2.064 -1.6482 -0.1464  1.5843
 8031TIP3   OH224028   0.540   4.299   3.365  0.5961 -0.1047 -0.0440
 8031TIP3    H124029   0.527   4.376   3.421  1.0540  2.2128 -2.9458
 8031TIP3    H224030   0.554   4.227   3.425 -0.9381  1.8956  2.8269
 8032TIP3   OH224031   6.344   2.645   3.450 -0.0315  0.4046  0.0697
 8032TIP3    H124032   6.268   2.673   3.502  0.7436  0.1651  1.3506
 8032TIP3    H224033   6.406   2.717   3.458 -0.2473  0.7543 -1.2673
 8033TIP3   OH224034   7.355   3.856   1.753 -0.1328  0.4752  0.7971
 8033TIP3    H124035   7.336   3.943   1.719  0.2957 -0.0138 -0.7216
 8033TIP3    H224036   7.436   3.830   1.709  0.3145 -0.2678  2.0328
 8034TIP3   OH224037   6.744   6.593   3.874 -0.1043  0.4466  0.6879
 8034TIP3    H124038   6.663   6.549   3.850 -0.6051  1.8535 -0.2296
 8034TIP3    H224039   6.795   6.525   3.919 -1.1242 -0.8812 -0.1108
 8035TIP3   OH224040   6.795   3.896   4.696 -0.3080  0.0983  0.5755
 8035TIP3    H124041   6.728   3.849   4.647  0.3004 -0.8523  0.6373
 8035TIP3    H224042   6.750   3.971   4.735 -1.0096  0.3088 -0.6250
 8036TIP3   OH224043   0.244   3.956   3.964  0.0845  0.0987 -0.3569
 8036TIP3    H124044   0.226   4.026   4.026  0.4753 -0.6692  0.6380
 8036TIP3    H224045   0.186   3.974   3.889 -1.7755 -0.0110  1.0219
 8037TIP3   OH224046   7.397   6.056   4.199 -0.2584 -0.1208 -0.4062
 8037TIP3    H124047   7.403   6.146   4.230  0.1287 -0.0699 -0.6330
 8037TIP3    H224048   7.484   6.035   4.166 -0.5356 -0.3383 -1.0217
 8038TIP3   OH224049   1.750   5.530   4.064  0.1147 -0.4431  0.5115
 8038TIP3    H124050   1.766   5.618   4.030  1.2953 -0.9120 -0.1685
 8038TIP3    H224051   1.805   5.524   4.142 -0.3641 -0.4110  0.8600
 8039TIP3   OH224052   3.197   6.132   2.423 -0.1485  0.7391  0.2426
 8039TIP3    H124053   3.276   6.079   2.430 -2.2722 -2.4104  2.0444
 8039TIP3    H224054   3.224   6.220   2.448  3.3363  0.3787 -1.9312
 8040TIP3   OH224055   1.926   5.567   6.299 -0.1191  0.8747  0.1064
 8040TIP3    H124056   1.879   5.510   6.361  0.5418 -0.5755 -0.6909
 8040TIP3    H224057   2.016   5.568   6.332  0.0848  0.6466 -0.4337
 8041TIP3   OH224058   2.360   5.798   3.779  0.0003 -0.5811  0.0648
 8041TIP3    H124059   2.337   5.714   3.819  1.3906 -1.5232 -1.0723
 8041TIP3    H224060   2.454   5.808   3.798 -0.3747  1.2290  1.0998
 8042TIP3   OH224061   0.946   7.701   3.130 -0.1593  0.0019  0.7950
 8042TIP3    H124062   1.032   7.704   3.171 -0.4185  0.9610  1.2745
 8042TIP3    H224063   0.957   7.743   3.045  0.3833 -2.0062 -0.1536
 8043TIP3   OH224064   0.293   7.167   5.767  0.0166  0.0254  0.1508
 8043TIP3    H124065   0.380   7.149   5.732  0.6460  0.6052  1.4211
 8043TIP3    H224066   0.261   7.241   5.716  0.8045  0.6583  0.5557
 8044TIP3   OH224067   3.461   5.439   3.320  0.1402 -0.1710  0.3072
 8044TIP3    H124068   3.460   5.530   3.289 -0.4675  0.0118  0.8335
 8044TIP3    H224069   3.387   5.435   3.381 -0.4250 -1.2761 -0.4360
 8045TIP3   OH224070   2.092   4.672   4.324 -0.2143 -0.1959  0.5740
 8045TIP3    H124071   2.135   4.600   4.371  0.2293 -1.1090 -1.1961
 8045TIP3    H224072   2.163   4.729   4.297 -0.3810 -0.1906  0.1487
 8046TIP3   OH224073   0.640   5.340   4.036  0.1010 -0.0896  0.0592
 8046TIP3    H124074   0.680   5.283   4.102 -0.6933  0.4587  1.0438
 8046TIP3    H224075   0.713   5.389   3.999  0.3806  0.8286  1.7658
 8047TIP3   OH224076   2.139   6.151   5.665  0.4591  0.0417 -0.0286
 8047TIP3    H124077   2.047   6.175   5.656  0.1881 -0.4782  1.3325
 8047TIP3    H224078   2.144   6.100   5.746  2.3054  1.8227  1.0363
 8048TIP3   OH224079   1.439   6.288   3.303  0.3821  0.2115  0.0741
 8048TIP3    H124080   1.442   6.300   3.208  1.0409  0.9729  0.1802
 8048TIP3    H224081   1.530   6.275   3.328  0.1206 -0.7677  0.5081
 8049TIP3   OH224082   2.507   6.227   5.424  0.2190 -0.5024 -0.0093
 8049TIP3    H124083   2.474   6.317   5.417  1.9800  0.2364  0.9255
 8049TIP3    H224084   2.429   6.172   5.411 -1.1183  1.1782  0.6815
 8050TIP3   OH224085   1.161   5.879   3.935 -0.1204  0.1075  0.0403
 8050TIP3    H124086   1.224   5.862   3.865  1.8625 -0.4498  1.9210
 8050TIP3    H224087   1.168   5.972   3.952  0.0320  0.0851  0.1002
 8051TIP3   OH224088   0.093   5.524   4.454 -0.0090  0.3002 -0.3774
 8051TIP3    H124089   0.051   5.511   4.369 -0.1517 -0.7758 -0.1409
 8051TIP3    H224090   0.025   5.564   4.508  0.2834  1.6272 -0.9461
 8052TIP3   OH224091   1.475   4.428   4.350 -0.5618 -0.1243 -0.0148
 8052TIP3    H124092   1.400   4.369   4.352 -0.2288 -0.5336  0.7053
 8052TIP3    H224093   1.540   4.382   4.296 -0.9611  0.3971 -0.9437
 8053TIP3   OH224094   2.754   3.993   1.792 -0.2124  0.0945  0.3799
 8053TIP3    H124095   2.752   3.903   1.760 -0.4984 -0.3555  1.6347
 8053TIP3    H224096   2.672   4.002   1.841 -1.1167  1.6518 -1.3690
 8054TIP3   OH224097   3.389   5.933   2.391 -0.2282  0.3991 -0.0564
 8054TIP3    H124098   3.423   5.901   2.307 -2.7576 -1.4183 -0.4376
 8054TIP3    H224099   3.440   5.884   2.457 -0.8636 -1.0245 -0.5998
 8055TIP3   OH224100   2.196   6.623   2.938 -0.7158 -0.2069  0.0418
 8055TIP3    H124101   2.174   6.618   3.031 -0.7837  2.6269  0.2216
 8055TIP3    H224102   2.125   6.673   2.898 -0.4510 -0.9784 -1.4763
 8056TIP3   OH224103   8.175   5.449   2.490  0.0457  0.3170  0.1198
 8056TIP3    H124104   8.091   5.463   2.448  1.0613  1.7251 -1.5190
 8056TIP3    H224105   8.225   5.529   2.474  0.8576  0.5165  3.1942
 8057TIP3   OH224106   0.146   3.887   6.252 -0.0140 -0.2873 -0.4806
 8057TIP3    H124107   0.122   3.801   6.287 -0.4989  0.2098  0.4362
 8057TIP3    H224108   0.160   3.941   6.330  1.5881  0.1089 -1.0342
 8058TIP3   OH224109   2.653   6.705   6.722  0.3363  0.4178 -0.3424
 8058TIP3    H124110   2.733   6.656   6.703 -2.0678 -3.6937 -0.3326
 8058TIP3    H224111   2.597   6.691   6.647 -1.4244  1.0262  0.8202
 8059TIP3   OH224112   1.147   6.794   4.326 -0.1087  0.6569 -0.3904
 8059TIP3    H124113   1.235   6.817   4.356 -0.2679  0.8300 -0.0583
 8059TIP3    H224114   1.159   6.772   4.233 -0.2204  3.6689 -1.1672
 8060TIP3   OH224115   1.788   7.500   5.553 -0.0351 -0.0639 -0.0878
 8060TIP3    H124116   1.767   7.409   5.574 -1.4986  0.4820  0.8543
 8060TIP3    H224117   1.841   7.530   5.627 -0.3419  0.1290  0.0543
 8061TIP3   OH224118   2.664   5.248   4.018 -0.1832 -0.1996  0.2264
 8061TIP3    H124119   2.647   5.244   4.112 -0.2326 -0.9375  0.1870
 8061TIP3    H224120   2.632   5.335   3.992  1.1087  0.5698  1.1328
 8062TIP3   OH224121   3.192   5.995   3.082 -0.2861  0.4865  0.2587
 8062TIP3    H124122   3.233   5.974   2.998 -0.6480 -1.7818  0.6090
 8062TIP3    H224123   3.105   6.026   3.059  0.0759  1.1121 -0.2737
 8063TIP3   OH224124   0.544   5.959   2.285  0.3685 -0.7996 -0.1030
 8063TIP3    H124125   0.493   6.028   2.326 -0.3409 -1.0316 -0.5944
 8063TIP3    H224126   0.582   5.910   2.359 -0.2944 -0.7666  0.2618
 8064TIP3   OH224127   2.757   6.401   5.023 -0.4586  0.6645  0.2221
 8064TIP3    H124128   2.757   6.364   4.934 -1.3583 -1.9531  1.2627
 8064TIP3    H224129   2.701   6.342   5.073  0.0876  2.0844  2.5571
 8065TIP3   OH224130   3.609   0.206   2.577 -0.1521  0.6380 -0.0394
 8065TIP3    H124131   3.671   0.133   2.577 -0.1593  0.6382 -0.9676
 8065TIP3    H224132   3.549   0.186   2.650 -0.1345 -0.2586 -0.2687
 8066TIP3   OH224133   0.557   7.158   5.071  0.2405  0.0107 -0.4200
 8066TIP3    H124134   0.553   7.162   4.976  0.4414 -0.5904 -0.4549
 8066TIP3    H224135   0.563   7.064   5.091  1.0346  0.1811  0.1477
 8067TIP3   OH224136   2.136   5.672   3.153 -0.4090  0.9447  0.2595
 8067TIP3    H124137   2.074   5.739   3.125 -0.0983  0.5307 -1.4926
 8067TIP3    H224138   2.146   5.614   3.077  0.3373 -0.3354  1.2937
 8068TIP3   OH224139   4.754   6.588   6.671  0.0275  0.0772 -0.0218
 8068TIP3    H124140   4.790   6.665   6.627  0.3686  0.6955  1.3215
 8068TIP3    H224141   4.678   6.621   6.718 -0.3766 -0.6003 -0.2014
 8069TIP3   OH224142   8.346   5.458   5.946 -0.5563 -0.5822 -0.2741
 8069TIP3    H124143   8.286   5.522   5.908 -0.7876 -0.9812 -0.5824
 8069TIP3    H224144   8.290   5.382   5.967 -0.9985  0.6777  3.4933
 8070TIP3   OH224145   0.104   5.683   5.566  0.0048 -0.2855 -0.0119
 8070TIP3    H124146   0.190   5.669   5.527  0.0131  0.0719 -0.1267
 8070TIP3    H224147   0.103   5.627   5.643  0.6350  0.3031  0.4281
 8071TIP3   OH224148   1.472   5.062   4.036 -0.1491 -0.1613 -0.1548
 8071TIP3    H124149   1.424   5.046   3.955 -0.6173 -0.7923  0.2382
 8071TIP3    H224150   1.501   5.153   4.030 -1.3419  0.2047 -0.4202
 8072TIP3   OH224151   2.107   2.055   3.828  0.1002  0.0211 -0.1658
 8072TIP3    H124152   2.143   2.106   3.756 -1.4599 -0.3734 -1.2301
 8072TIP3    H224153   2.184   2.030   3.880  1.3972 -0.8747 -2.4470
 8073TIP3   OH224154   1.541   5.682   5.072  0.5619 -0.0185  0.9788
 8073TIP3    H124155   1.478   5.729   5.017  3.0575  1.1989 -0.9738
 8073TIP3    H224156   1.498   5.600   5.094 -2.3022  1.4514  1.0372
 8074TIP3   OH224157   1.371   7.659   5.605  0.4243 -0.6529  0.7940
 8074TIP3    H124158   1.464   7.675   5.620  0.3307  0.6476  0.1081
 8074TIP3    H224159   1.367   7.574   5.562  1.6267  1.0074 -2.7451
 8075TIP3   OH224160   2.627   6.200   5.175  0.3785  0.3547  0.4284
 8075TIP3    H124161   2.566   6.208   5.248 -0.4146 -0.4134 -0.1452
 8075TIP3    H224162   2.710   6.174   5.216 -0.5461 -1.9757  0.9013
 8076TIP3   OH224163   6.343   3.283   6.427  0.2549 -0.0454 -0.1303
 8076TIP3    H124164   6.368   3.251   6.514 -0.2715 -0.4050 -0.1057
 8076TIP3    H224165   6.283   3.216   6.394 -1.5366  1.3195  0.2756
 8077TIP3   OH224166   1.009   7.332   4.746 -0.6852 -0.3577 -0.0740
 8077TIP3    H124167   1.021   7.337   4.651 -0.0162 -0.4813 -0.0036
 8077TIP3    H224168   1.015   7.423   4.775  0.0168 -0.3988 -0.0593
 8078TIP3   OH224169   8.131   5.292   6.003 -0.4605 -0.2286  0.4334
 8078TIP3    H124170   8.146   5.251   6.088 -2.2971 -0.1694  0.7896
 8078TIP3    H224171   8.112   5.219   5.944  1.0922 -0.2959 -0.0071
 8079TIP3   OH224172   2.502   6.982   4.405 -0.1454 -0.7322  0.3036
 8079TIP3    H124173   2.536   6.899   4.438  1.5157 -0.5927 -0.9994
 8079TIP3    H224174   2.490   7.035   4.484 -1.0004 -2.0999  1.1203
 8080TIP3   OH224175   7.606   6.413   4.359 -0.3010 -0.0738 -0.0957
 8080TIP3    H124176   7.629   6.497   4.320  0.3904  0.6518  1.8016
 8080TIP3    H224177   7.673   6.353   4.327  0.3995  0.5622  0.1548
 8081TIP3   OH224178   0.521   4.728   5.630 -0.3189 -0.6566  0.3541
 8081TIP3    H124179   0.433   4.710   5.662 -0.3317 -1.4326 -0.1024
 8081TIP3    H224180   0.511   4.732   5.535  0.1599 -0.8728  0.2927
 8082TIP3   OH224181   0.433   6.337   4.362  0.1489  0.2570 -0.0483
 8082TIP3    H124182   0.487   6.388   4.301  0.1308  0.5492  0.1754
 8082TIP3    H224183   0.409   6.400   4.430 -0.4519  0.1232 -0.1362
 8083TIP3   OH224184   2.008   7.565   2.550 -0.6064 -0.4252 -0.4191
 8083TIP3    H124185   2.057   7.507   2.608 -1.5880  0.4189  1.3006
 8083TIP3    H224186   2.065   7.641   2.538 -1.5984  0.7299  1.8948
 8084TIP3   OH224187   0.102   6.323   3.779  0.7393  0.3234 -0.0674
 8084TIP3    H124188   0.049   6.274   3.715  1.7698 -0.2871 -0.4662
 8084TIP3    H224189   0.046   6.329   3.856  0.4135 -1.1034 -0.1703
 8085TIP3   OH224190   0.481   4.661   4.815 -0.1470 -0.0710  0.3338
 8085TIP3    H124191   0.459   4.629   4.902 -1.5518 -0.7869 -0.2614
 8085TIP3    H224192   0.411   4.723   4.793 -0.6091 -0.9614 -0.8275
 8086TIP3   OH224193   7.431   4.258   4.421 -0.1063  0.0215  0.1509
 8086TIP3    H124194   7.478   4.195   4.366 -0.2345  1.7658 -1.9937
 8086TIP3    H224195   7.339   4.234   4.412 -0.2441  1.0911 -1.4486
 8087TIP3   OH224196   2.202   7.007   4.167 -0.7716  0.2926 -0.6137
 8087TIP3    H124197   2.261   6.932   4.155 -1.6433 -0.2554 -1.5364
 8087TIP3    H224198   2.163   6.993   4.254 -1.4787 -0.7264 -1.0769
 8088TIP3   OH224199   7.515   7.672   2.147 -0.4585  0.1334 -0.1460
 8088TIP3    H124200   7.446   7.640   2.205 -1.6505  0.2047 -1.5144
 8088TIP3    H224201   7.593   7.675   2.203 -1.6534  0.5254  1.5482
 8089TIP3   OH224202   0.980   6.774   3.249  0.0612 -0.1506  0.1166
 8089TIP3    H124203   0.896   6.819   3.235 -0.1018 -0.5426 -0.1558
 8089TIP3    H224204   1.005   6.800   3.338  0.3695  1.1438 -0.3307
 8090TIP3   OH224205   2.938   5.656   6.116  0.4902 -0.4755  0.1498
 8090TIP3    H124206   2.859   5.619   6.077  0.7473 -1.7439  0.8042
 8090TIP3    H224207   2.908   5.735   6.160 -0.3652 -0.7678  0.1059
 8091TIP3   OH224208   1.633   7.381   3.067  0.2236 -0.2267  0.4077
 8091TIP3    H124209   1.574   7.323   3.114 -0.8311 -0.1744 -0.8137
 8091TIP3    H224210   1.716   7.334   3.063 -0.3579 -1.2425  0.2598
 8092TIP3   OH224211   1.949   6.786   4.918 -0.1430  0.4681 -0.4518
 8092TIP3    H124212   2.012   6.816   4.853 -0.1702  2.0179  0.2176
 8092TIP3    H224213   1.943   6.857   4.981 -1.7054 -0.1333  0.1233
 8093TIP3   OH224214   0.124   7.398   5.272 -0.1989 -0.1804  0.1191
 8093TIP3    H124215   0.106   7.478   5.222  1.2119  0.7102  0.9985
 8093TIP3    H224216   0.045   7.346   5.263 -0.9910  1.1444 -0.8038
 8094TIP3   OH224217   1.478   4.197   3.880 -0.2025  0.6384 -0.0490
 8094TIP3    H124218   1.510   4.161   3.797 -1.0027 -1.1720  0.3989
 8094TIP3    H224219   1.451   4.120   3.930  0.1845  1.7325  1.8543
 8095TIP3   OH224220   2.451   6.720   5.859  0.6099 -0.0886  0.3793
 8095TIP3    H124221   2.441   6.688   5.769 -0.1113 -2.8998  1.3881
 8095TIP3    H224222   2.484   6.644   5.907  0.0683  1.0973  2.6942
 8096TIP3   OH224223   1.201   7.048   3.227 -0.1367  0.7701 -0.3963
 8096TIP3    H124224   1.231   7.074   3.140 -1.6088 -0.2723 -1.2255
 8096TIP3    H224225   1.120   7.000   3.212 -1.3329  2.0590  1.6753
 8097TIP3   OH224226   1.276   5.859   5.236 -0.0301  0.0920  0.1368
 8097TIP3    H124227   1.190   5.884   5.269 -0.7372 -1.1525 -0.6995
 8097TIP3    H224228   1.287   5.909   5.155 -2.2013 -3.3401 -2.4903
 8098TIP3   OH224229   4.906   7.458   0.385  0.4635 -0.2585  0.3927
 8098TIP3    H124230   4.942   7.547   0.392  1.3803 -0.7029  1.3205
 8098TIP3    H224231   4.980   7.405   0.357  0.1235 -0.8960  0.7086
 8099TIP3   OH224232   1.287   3.731   4.786 -0.2033  0.5560  0.0139
 8099TIP3    H124233   1.341   3.658   4.757  0.0152  0.6423  0.2023
 8099TIP3    H224234   1.349   3.803   4.800 -0.4815  0.9702 -0.7828
 8100TIP3   OH224235   1.694   5.515   5.836 -0.3580  0.6806 -0.9202
 8100TIP3    H124236   1.694   5.530   5.741  2.2604  0.6045 -0.9799
 8100TIP3    H224237   1.781   5.480   5.854 -0.3516  1.9660  1.7195
 8101TIP3   OH224238   1.224   5.596   5.215  0.1372  0.0712  0.2676
 8101TIP3    H124239   1.129   5.588   5.208  0.0709  1.0923 -0.0749
 8101TIP3    H224240   1.240   5.689   5.229  1.1208 -0.0100 -0.2263
 8102TIP3   OH224241   2.308   6.015   3.521 -0.0513 -0.8392  0.7095
 8102TIP3    H124242   2.402   6.007   3.538  0.0084 -1.2220  0.1943
 8102TIP3    H224243   2.290   5.950   3.453  0.1915  2.4792 -2.6534
 8103TIP3   OH224244   0.726   6.415   6.507 -0.2367  0.7087  0.3027
 8103TIP3    H124245   0.694   6.459   6.428 -0.7560  1.0208  0.6806
 8103TIP3    H224246   0.818   6.397   6.490 -0.3046  0.9429 -0.2997
 8104TIP3   OH224247   2.718   5.507   5.027 -0.2662 -0.5631 -0.7750
 8104TIP3    H124248   2.684   5.522   4.939  0.4239 -2.8977 -1.4863
 8104TIP3    H224249   2.675   5.426   5.055 -1.6030  0.9202  1.6439
 8105TIP3   OH224250   1.893   5.628   4.838  0.0363 -1.0124 -0.2873
 8105TIP3    H124251   1.916   5.601   4.927  0.3277 -1.1028 -0.3884
 8105TIP3    H224252   1.976   5.656   4.799 -0.2032 -0.2931 -0.2924
 8106TIP3   OH224253   0.995   6.518   4.473 -0.1897  0.2114 -0.1348
 8106TIP3    H124254   0.975   6.589   4.534 -1.0601  0.2365 -0.4446
 8106TIP3    H224255   0.940   6.445   4.503 -0.0934  0.0018 -0.4679
 8107TIP3   OH224256   1.752   6.040   3.083  0.0969 -0.4208 -0.5650
 8107TIP3    H124257   1.704   5.962   3.113 -1.8789  0.9069 -0.2235
 8107TIP3    H224258   1.685   6.108   3.075  2.1801  1.9340  1.5098
 8108TIP3   OH224259   1.585   6.755   3.652  0.3154 -0.2148 -0.1167
 8108TIP3    H124260   1.677   6.762   3.678  0.6905 -0.1261 -1.4503
 8108TIP3    H224261   1.587   6.714   3.565 -0.9376 -0.8189  0.1187
 8109TIP3   OH224262   4.109   0.231   6.327 -0.6418 -0.1987 -0.2887
 8109TIP3    H124263   4.056   0.291   6.380  0.9547  1.8788 -0.9837
 8109TIP3    H224264   4.186   0.213   6.381  0.9396  1.8353 -1.7786
 8110TIP3   OH224265   0.408   3.768   3.773 -0.5385 -0.2896 -0.8685
 8110TIP3    H124266   0.439   3.785   3.862  1.1217 -0.9411 -1.3046
 8110TIP3    H224267   0.372   3.680   3.777 -2.7117  0.6068 -0.2740
 8111TIP3   OH224268   1.578   6.858   5.060  0.2516  0.0410  0.1776
 8111TIP3    H124269   1.582   6.897   4.972  0.3046  0.7821  0.5015
 8111TIP3    H224270   1.538   6.772   5.046  1.2384 -0.2884 -0.7134
 8112TIP3   OH224271   0.118   3.994   2.078  0.9878 -0.0294 -0.1671
 8112TIP3    H124272   0.145   4.040   1.998  0.9379 -0.7088 -0.5801
 8112TIP3    H224273   0.024   3.982   2.068  1.1159 -0.8649 -0.3984
 8113TIP3   OH224274   5.469   3.484   0.216  0.1851 -1.0457 -0.1598
 8113TIP3    H124275   5.531   3.511   0.148  1.0990  0.1150  1.1125
 8113TIP3    H224276   5.491   3.538   0.292 -0.9854 -2.1453  0.9919
 8114TIP3   OH224277   1.400   7.224   4.494 -0.0517  0.3563 -0.1257
 8114TIP3    H124278   1.377   7.298   4.550 -1.6584  0.2076 -0.5553
 8114TIP3    H224279   1.495   7.217   4.501 -0.0134  1.6798  0.8886
 8115TIP3   OH224280   0.793   5.515   3.763  0.2276 -0.1641 -0.1354
 8115TIP3    H124281   0.806   5.551   3.850  0.6489 -0.1600 -0.2003
 8115TIP3    H224282   0.838   5.431   3.764 -1.6224 -1.1712  0.3373
 8116TIP3   OH224283   3.386   5.804   4.415  0.4182 -0.0186  0.0722
 8116TIP3    H124284   3.374   5.889   4.459 -0.6978 -0.2480  0.2293
 8116TIP3    H224285   3.465   5.768   4.455  0.7731  0.8518  0.1692
 8117TIP3   OH224286   2.371   5.582   5.601  0.1035  0.1746  0.0041
 8117TIP3    H124287   2.290   5.535   5.619  1.3446 -2.4690 -1.0531
 8117TIP3    H224288   2.407   5.602   5.687  0.0614 -1.7448  0.4813
 8118TIP3   OH224289   1.813   7.234   5.618 -0.2502  0.0221  0.4700
 8118TIP3    H124290   1.770   7.156   5.583  0.2372  0.0568 -0.2284
 8118TIP3    H224291   1.905   7.223   5.594 -0.5550  1.9377 -1.7133
 8119TIP3   OH224292   0.701   7.352   6.388 -0.1482  0.6124 -0.0357
 8119TIP3    H124293   0.646   7.409   6.336  1.2096  2.4817  0.5129
 8119TIP3    H224294   0.643   7.283   6.419 -2.2517  2.7351  0.8427
 8120TIP3   OH224295   1.860   6.881   4.462  0.7750 -0.1604 -0.0487
 8120TIP3    H124296   1.823   6.803   4.504  0.3814  0.0809  0.0503
 8120TIP3    H224297   1.856   6.863   4.368  1.7665 -0.7546  0.0107
 8121TIP3   OH224298   4.540   0.155   6.632  0.0501  0.1082  0.4493
 8121TIP3    H124299   4.592   0.217   6.580  0.7913  1.1984  2.4366
 8121TIP3    H224300   4.594   0.076   6.636 -0.0114  0.0183 -0.4356
 8122TIP3   OH224301   8.209   6.093   5.617  0.5585  0.0575 -0.2676
 8122TIP3    H124302   8.220   6.013   5.669 -0.0221  0.3457  0.3187
 8122TIP3    H224303   8.149   6.068   5.547 -0.7935  0.3350  0.7631
 8123TIP3   OH224304   7.425   6.832   4.239  0.3703  0.1395 -0.5448
 8123TIP3    H124305   7.401   6.742   4.219  1.3132  0.0254 -1.1848
 8123TIP3    H224306   7.518   6.828   4.259  0.8157  1.2635 -2.3519
 8124TIP3   OH224307   1.405   4.493   5.572  0.1526 -0.8092  0.4176
 8124TIP3    H124308   1.385   4.489   5.666 -0.2242 -1.1019  0.3293
 8124TIP3    H224309   1.499   4.508   5.568  0.1729 -0.8084  0.8462
 8125TIP3   OH224310   2.237   5.303   4.418  0.4306 -0.0306 -0.1483
 8125TIP3    H124311   2.297   5.280   4.489 -0.6202 -0.0254  0.7620
 8125TIP3    H224312   2.242   5.399   4.413 -0.8265  0.1243  1.1463
 8126TIP3   OH224313   7.883   5.466   2.463  0.4494 -0.3609  0.2519
 8126TIP3    H124314   7.862   5.378   2.495  1.4891 -0.3519  0.9763
 8126TIP3    H224315   7.805   5.493   2.415  0.2375 -1.7937 -0.2274
 8127TIP3   OH224316   4.427   7.672   3.632  0.2191  0.6796 -0.0291
 8127TIP3    H124317   4.341   7.660   3.672  1.3479  0.4251  2.4141
 8127TIP3    H224318   4.413   7.738   3.565 -2.3140 -0.8881 -1.1482
 8128TIP3   OH224319   3.724   6.754   3.917 -0.0631 -0.0799  0.1109
 8128TIP3    H124320   3.713   6.815   3.990  1.3201  0.1493  0.1356
 8128TIP3    H224321   3.802   6.703   3.940 -0.4852 -1.0141 -0.5076
 8129TIP3   OH224322   6.121   1.913   0.511  0.8462 -0.3424 -0.3087
 8129TIP3    H124323   6.100   1.820   0.518 -0.3508 -0.1646 -1.4682
 8129TIP3    H224324   6.053   1.950   0.455 -0.6015  1.8725  2.7296
 8130TIP3   OH224325   0.902   5.850   3.061  0.2986 -0.3394 -0.1264
 8130TIP3    H124326   0.965   5.866   3.132  0.6006 -0.4825 -0.3650
 8130TIP3    H224327   0.848   5.779   3.093  1.8823 -1.9711 -0.9800
 8131TIP3   OH224328   7.636   4.573   2.571  0.3963 -0.1582 -0.1087
 8131TIP3    H124329   7.638   4.611   2.659  0.6301  0.2352 -0.2802
 8131TIP3    H224330   7.675   4.640   2.515  1.0966 -0.7773 -0.3729
 8132TIP3   OH224331   2.123   3.814   3.560 -0.1424 -0.0524 -0.2681
 8132TIP3    H124332   2.065   3.840   3.631 -1.3222  1.7924 -1.8735
 8132TIP3    H224333   2.104   3.722   3.545 -1.5311  0.1467  0.2708
 8133TIP3   OH224334   1.652   7.092   4.555  0.5327 -0.5346 -0.3663
 8133TIP3    H124335   1.718   7.026   4.532  0.1438 -0.9093 -0.4220
 8133TIP3    H224336   1.702   7.171   4.575  0.9662 -0.6447 -1.0036
 8134TIP3   OH224337   1.042   5.127   4.037 -0.4404  0.2345  0.2555
 8134TIP3    H124338   0.959   5.080   4.033 -0.5182  0.3725  0.2519
 8134TIP3    H224339   1.107   5.059   4.054 -0.2077 -0.2520 -2.3803
 8135TIP3   OH224340   2.587   6.396   2.512  0.0518 -0.0869  0.3661
 8135TIP3    H124341   2.560   6.482   2.480 -2.6485 -0.9711  0.1495
 8135TIP3    H224342   2.562   6.395   2.604  0.2039 -0.5920  0.4077
 8136TIP3   OH224343   2.458   5.776   2.650  0.3730 -0.7258  0.2028
 8136TIP3    H124344   2.401   5.787   2.574 -0.0566 -0.1890  0.5964
 8136TIP3    H224345   2.398   5.767   2.724  0.7771 -2.0857  0.3751
 8137TIP3   OH224346   0.812   5.433   2.752  0.4474 -0.3293 -0.4781
 8137TIP3    H124347   0.729   5.450   2.796 -0.3541 -1.9166 -1.3065
 8137TIP3    H224348   0.868   5.506   2.776 -0.9183  0.3190  0.7898
 8138TIP3   OH224349   3.342   4.914   5.771 -0.2287  0.0880 -0.5463
 8138TIP3    H124350   3.366   4.838   5.824 -0.1359 -0.2239 -1.0359
 8138TIP3    H224351   3.254   4.894   5.739  0.0227 -0.0789 -1.1498
 8139TIP3   OH224352   3.044   3.320   5.205  0.1316  0.4437 -0.4437
 8139TIP3    H124353   3.006   3.408   5.211  0.6643  0.6198  0.4525
 8139TIP3    H224354   3.107   3.326   5.134 -0.3397  0.5981 -0.8490
 8140TIP3   OH224355   0.927   3.837   3.308  0.1493 -0.3900  0.0245
 8140TIP3    H124356   1.000   3.813   3.251 -0.1652 -0.8177 -0.2055
 8140TIP3    H224357   0.945   3.794   3.391 -1.2200 -2.8124 -0.8745
 8141TIP3   OH224358   7.949   2.508   1.033 -0.2558  0.1145  0.4636
 8141TIP3    H124359   7.857   2.529   1.048 -0.4948 -0.4745 -0.1458
 8141TIP3    H224360   7.952   2.412   1.033  0.5311  0.1303  1.5096
 8142TIP3   OH224361   1.645   4.106   4.887  0.0719  0.2124 -0.1642
 8142TIP3    H124362   1.691   4.161   4.951  0.7382 -0.8113  0.2444
 8142TIP3    H224363   1.710   4.043   4.858 -0.7285 -0.4517 -0.5257
 8143TIP3   OH224364   4.034   5.816   3.610  0.1163  1.1279  0.3454
 8143TIP3    H124365   4.092   5.753   3.653  1.2443  2.4683  0.8356
 8143TIP3    H224366   3.979   5.849   3.681 -3.1119 -2.0432 -0.5477
 8144TIP3   OH224367   6.735   7.052   5.324 -0.0613 -0.3544 -0.2711
 8144TIP3    H124368   6.673   6.983   5.300 -0.3701 -0.5495  1.0808
 8144TIP3    H224369   6.817   7.026   5.282 -0.3740 -1.1471 -0.4012
 8145TIP3   OH224370   1.479   5.915   2.747 -0.3537 -0.3664  0.4330
 8145TIP3    H124371   1.501   5.823   2.765  2.6891 -0.0444 -1.3688
 8145TIP3    H224372   1.522   5.963   2.818  2.1205 -0.0054 -1.2486
 8146TIP3   OH224373   0.920   7.162   5.351 -0.1119  0.4253 -0.0847
 8146TIP3    H124374   0.966   7.215   5.286 -0.5307  0.4260 -0.3842
 8146TIP3    H224375   0.970   7.080   5.354  0.0601  0.5241 -0.2223
 8147TIP3   OH224376   2.766   6.610   5.206  0.3289 -0.8352 -0.1588
 8147TIP3    H124377   2.781   6.533   5.261  1.4549 -0.5849 -0.1192
 8147TIP3    H224378   2.820   6.595   5.129  0.6295 -0.0256 -0.1027
 8148TIP3   OH224379   0.981   4.561   4.731  0.5219  0.2676  0.3142
 8148TIP3    H124380   0.910   4.519   4.682 -1.0930  1.5560  1.5394
 8148TIP3    H224381   1.054   4.500   4.723 -0.6566 -0.9989 -1.0997
 8149TIP3   OH224382   8.257   4.306   5.049 -0.3176  0.0256 -0.6175
 8149TIP3    H124383   8.185   4.250   5.078 -0.5026  0.3656 -0.4131
 8149TIP3    H224384   8.238   4.391   5.089  0.0597  0.1829 -0.7735
 8150TIP3   OH224385   2.681   5.709   4.273  0.3071 -0.4643  0.4519
 8150TIP3    H124386   2.670   5.738   4.364 -2.0106  2.3452 -0.6420
 8150TIP3    H224387   2.757   5.758   4.241 -0.7645  0.9581  0.0050
 8151TIP3   OH224388   8.422   5.062   3.350  0.5878  0.6937  0.3379
 8151TIP3    H124389   8.465   5.017   3.277 -2.9150  0.0872 -1.4454
 8151TIP3    H224390   8.461   5.150   3.349  2.2058 -0.0100 -0.8210
 8152TIP3   OH224391   7.910   6.082   4.309 -0.0051 -0.5672  0.5743
 8152TIP3    H124392   7.964   6.054   4.235  1.0758 -0.2395  1.2358
 8152TIP3    H224393   7.970   6.129   4.367 -1.2844  0.9616  0.6843
 8153TIP3   OH224394   0.406   5.208   2.903 -0.1791  0.1687 -0.1542
 8153TIP3    H124395   0.323   5.191   2.948  1.8140 -1.1836  3.1576
 8153TIP3    H224396   0.414   5.304   2.904 -2.0858  0.3665 -1.3221
 8154TIP3   OH224397   7.989   4.797   4.354 -0.0473  0.6019 -0.3821
 8154TIP3    H124398   8.027   4.870   4.304  1.2853 -1.7088 -2.8276
 8154TIP3    H224399   7.930   4.754   4.292  0.4231 -1.3694  0.5097
 8155TIP3   OH224400   4.179   0.537   2.051 -0.0907  0.5678  0.6663
 8155TIP3    H124401   4.182   0.601   1.979 -0.8125 -0.1058  0.0336
 8155TIP3    H224402   4.179   0.452   2.008 -2.0538  0.1703  1.4116
 8156TIP3   OH224403   1.448   4.974   6.172  0.0113  0.5349 -0.4097
 8156TIP3    H124404   1.375   5.028   6.203 -0.4591  0.0593 -0.6828
 8156TIP3    H224405   1.515   4.983   6.239 -0.8913 -0.2605  0.6119
 8157TIP3   OH224406   1.707   6.513   4.360 -0.1280  0.4477  0.2647
 8157TIP3    H124407   1.800   6.536   4.359  0.3340 -1.3294  1.0290
 8157TIP3    H224408   1.681   6.522   4.452 -0.5503  0.2749  0.1644
 8158TIP3   OH224409   3.379   5.692   2.509 -0.4940  0.1214 -0.1976
 8158TIP3    H124410   3.318   5.761   2.537  0.3934 -0.0476  2.3005
 8158TIP3    H224411   3.466   5.729   2.527 -0.0050 -1.5169  0.9138
 8159TIP3   OH224412   2.175   6.410   5.546  0.0549 -0.3650  0.3871
 8159TIP3    H124413   2.155   6.329   5.594  0.5991 -1.4760 -1.2262
 8159TIP3    H224414   2.119   6.406   5.468  3.2210 -1.3299 -1.8999
 8160TIP3   OH224415   1.821   5.074   6.417  0.1113  0.2129  0.3294
 8160TIP3    H124416   1.751   5.014   6.394 -0.7896  1.2873  0.2372
 8160TIP3    H224417   1.795   5.112   6.500  1.0105 -0.0315  0.7319
 8161TIP3   OH224418   2.171   6.442   3.402 -0.1625  0.4186 -0.1645
 8161TIP3    H124419   2.182   6.371   3.466  1.1469 -0.0733 -0.9268
 8161TIP3    H224420   2.231   6.511   3.432  0.2686  0.2872 -0.7349
 8162TIP3   OH224421   2.193   5.981   2.941  0.6611  0.4381  0.2199
 8162TIP3    H124422   2.165   6.065   2.978  0.1776  0.1055  0.6153
 8162TIP3    H224423   2.143   5.915   2.990  1.3995 -0.1087  0.2615
 8163TIP3   OH224424   3.989   6.057   2.204 -0.3894 -0.1483  0.2765
 8163TIP3    H124425   4.027   6.124   2.147 -1.7060 -1.1212 -1.7821
 8163TIP3    H224426   3.911   6.099   2.241  0.4692  0.4851  1.4221
 8164TIP3   OH224427   2.874   6.081   4.357  0.1267  0.1799  0.1465
 8164TIP3    H124428   2.798   6.067   4.300 -1.4717  0.8008  2.0510
 8164TIP3    H224429   2.851   6.159   4.408  0.3965 -1.7705  3.3855
 8165TIP3   OH224430   2.648   0.464   4.955  0.3360  0.1466  0.6139
 8165TIP3    H124431   2.643   0.368   4.948 -0.8936  0.2877 -0.9197
 8165TIP3    H224432   2.590   0.495   4.885  2.9863  2.0465 -0.8334
 8166TIP3   OH224433   3.930   7.156   3.421 -0.4586 -0.4227  0.3697
 8166TIP3    H124434   3.849   7.120   3.458  0.2752 -2.2956  0.2255
 8166TIP3    H224435   3.995   7.144   3.490 -0.0082 -0.1566 -0.0061
 8167TIP3   OH224436   5.241   6.507   3.841 -0.1318 -0.1106  0.1526
 8167TIP3    H124437   5.302   6.490   3.770  0.9058 -2.9095  1.6290
 8167TIP3    H224438   5.173   6.440   3.831 -0.8818  0.5263  0.8435
 8168TIP3   OH224439   3.442   5.254   6.380  0.2285 -0.3645  0.0015
 8168TIP3    H124440   3.463   5.343   6.352  0.1984 -0.2552  0.3296
 8168TIP3    H224441   3.482   5.246   6.466 -0.9153 -0.2136  0.5507
 8169TIP3   OH224442   1.255   5.209   2.706 -0.5467 -0.0761 -0.4255
 8169TIP3    H124443   1.331   5.222   2.763 -0.7582 -0.7815  0.0124
 8169TIP3    H224444   1.284   5.241   2.621  0.0554  0.1747 -0.1312
 8170TIP3   OH224445   4.358   5.296   3.823  0.2733  0.0283  0.6200
 8170TIP3    H124446   4.291   5.300   3.891 -0.5729  0.0301 -0.2192
 8170TIP3    H224447   4.368   5.203   3.804 -2.5914  0.2291 -2.3035
 8171TIP3   OH224448   1.294   5.713   2.445  0.0117 -0.0162  0.0346
 8171TIP3    H124449   1.209   5.729   2.488 -0.5887  0.0165 -1.1472
 8171TIP3    H224450   1.343   5.660   2.508 -1.1490 -0.6021  0.4610
 8172TIP3   OH224451   1.835   6.149   4.359  0.2048  0.7343  0.0598
 8172TIP3    H124452   1.910   6.150   4.419  0.6766  1.2751 -0.5311
 8172TIP3    H224453   1.873   6.128   4.274 -0.5858 -0.9242  0.1068
 8173TIP3   OH224454   2.605   6.227   4.735 -0.0599  0.1896 -0.0567
 8173TIP3    H124455   2.681   6.217   4.794 -0.6378  1.2124  0.8780
 8173TIP3    H224456   2.530   6.207   4.790 -0.5029 -0.4413 -0.8880
 8174TIP3   OH224457   0.666   4.245   6.146  0.3279 -0.8080 -0.5840
 8174TIP3    H124458   0.726   4.291   6.088 -0.8126 -1.0558 -1.9692
 8174TIP3    H224459   0.716   4.233   6.227  1.0769  1.7135 -0.6387
 8175TIP3   OH224460   8.403   7.907   2.145  0.0444  0.0620  0.4120
 8175TIP3    H124461   8.350   7.848   2.199  0.9756  0.6503  2.0161
 8175TIP3    H224462   8.366   7.994   2.161 -0.4091  0.1034 -0.8168
 8176TIP3   OH224463   3.277   4.969   4.769 -0.1615 -0.4304 -0.6021
 8176TIP3    H124464   3.277   5.009   4.856  0.0791 -0.5388 -0.5506
 8176TIP3    H224465   3.200   5.005   4.726  1.1415  1.6489 -1.2680
 8177TIP3   OH224466   2.045   7.506   4.959 -0.1436  0.2549 -0.1592
 8177TIP3    H124467   2.009   7.419   4.943  0.8444 -0.3085  0.6468
 8177TIP3    H224468   1.968   7.559   4.981 -0.9319 -0.0277 -2.1274
 8178TIP3   OH224469   2.294   4.287   4.984 -0.0728  0.0603 -0.2194
 8178TIP3    H124470   2.226   4.337   5.030  0.8965  0.0614  1.2916
 8178TIP3    H224471   2.247   4.228   4.926 -1.2816  2.1527 -1.4302
 8179TIP3   OH224472   0.839   4.048   0.214 -0.0294  0.3192 -0.1471
 8179TIP3    H124473   0.791   4.093   0.283  0.5420 -1.6251  1.5690
 8179TIP3    H224474   0.910   4.108   0.190  0.0860  0.7886  1.3476
 8180TIP3   OH224475   7.869   5.875   1.995 -0.3361 -0.5966 -0.0787
 8180TIP3    H124476   7.780   5.869   2.028  0.3409 -0.6488  1.7878
 8180TIP3    H224477   7.895   5.784   1.980 -0.0947 -0.6675  0.7624
 8181TIP3   OH224478   2.352   7.268   4.857 -0.8420  0.2797 -0.0530
 8181TIP3    H124479   2.314   7.319   4.928  0.9439  0.9975  0.4000
 8181TIP3    H224480   2.385   7.332   4.794 -0.6987 -0.3329 -0.6210
 8182TIP3   OH224481   2.852   5.922   2.772  0.0270 -0.3285  0.1076
 8182TIP3    H124482   2.893   5.984   2.832  1.3389 -2.5302  1.5540
 8182TIP3    H224483   2.864   5.837   2.814 -0.1124 -1.7829 -2.7072
 8183TIP3   OH224484   4.374   6.136   5.040  0.0269 -0.0507 -0.1837
 8183TIP3    H124485   4.330   6.058   5.007  1.6979 -1.1173  0.0461
 8183TIP3    H224486   4.434   6.161   4.969  0.6360  0.0777  0.3699
 8184TIP3   OH224487   4.118   6.206   3.219 -0.1240  0.0270  0.1636
 8184TIP3    H124488   4.179   6.137   3.195 -0.9433 -0.9192  0.7752
 8184TIP3    H224489   4.145   6.281   3.166 -0.2281 -1.2221 -1.6876
 8185TIP3   OH224490   6.185   0.107   3.583 -0.2088 -0.2523  0.1158
 8185TIP3    H124491   6.170   0.085   3.491 -1.5718 -0.8050  0.4597
 8185TIP3    H224492   6.278   0.129   3.588 -0.2033  0.0807 -1.4546
 8186TIP3   OH224493   3.828   5.593   2.663 -0.2738 -0.3829  0.1276
 8186TIP3    H124494   3.840   5.677   2.707 -2.2703  0.3019 -0.5815
 8186TIP3    H224495   3.757   5.550   2.711  0.3659 -1.4459  0.1501
 8187TIP3   OH224496   3.261   5.095   5.011  0.9502 -0.1069  0.4553
 8187TIP3    H124497   3.311   5.125   5.087 -0.2543  2.3423  0.3244
 8187TIP3    H224498   3.175   5.136   5.021  0.6850  0.0138 -2.0512
 8188TIP3   OH224499   2.825   6.483   2.801 -0.0820 -0.3797 -0.5205
 8188TIP3    H124500   2.804   6.502   2.892  0.3188 -0.6329 -0.3739
 8188TIP3    H224501   2.787   6.396   2.786 -1.8702  0.4868 -1.1739
 8189TIP3   OH224502   6.925   0.448   3.640  0.2086 -0.5159 -0.2669
 8189TIP3    H124503   6.989   0.383   3.669 -1.1177 -0.7954  2.1811
 8189TIP3    H224504   6.853   0.396   3.604 -0.6267 -0.4228  1.2208
 8190TIP3   OH224505   2.883   7.317   3.235  0.1556 -0.4521 -0.1355
 8190TIP3    H124506   2.845   7.232   3.211  1.3875 -0.4967 -2.0244
 8190TIP3    H224507   2.976   7.308   3.215  0.5305  0.9091  0.9187
 8191TIP3   OH224508   2.518   5.282   5.809 -0.4543  0.0141  0.0352
 8191TIP3    H124509   2.481   5.369   5.827 -3.6564 -1.8370  3.0920
 8191TIP3    H224510   2.491   5.263   5.719 -0.8695  1.6183 -0.2019
 8192TIP3   OH224511   2.952   5.806   4.271  0.3669 -0.2780 -0.4942
 8192TIP3    H124512   2.981   5.829   4.183 -1.5544  0.4087 -0.9666
 8192TIP3    H224513   2.934   5.890   4.313 -0.5204 -0.6849 -0.0650
 8193TIP3   OH224514   0.641   5.959   4.101  0.7608  0.4480  0.7237
 8193TIP3    H124515   0.707   5.929   4.038 -1.7327  1.1312 -2.3215
 8193TIP3    H224516   0.593   5.880   4.124 -0.3049  0.6851 -0.6506
 8194TIP3   OH224517   7.502   4.397   3.522 -0.2607 -0.2306 -0.3891
 8194TIP3    H124518   7.562   4.332   3.486  0.5776 -0.0736  0.6880
 8194TIP3    H224519   7.529   4.480   3.482 -1.9635 -0.6514 -2.5340
 8195TIP3   OH224520   2.900   6.755   4.929 -0.8552 -0.8168 -0.0986
 8195TIP3    H124521   2.996   6.745   4.934 -0.6834 -0.2479 -1.9368
 8195TIP3    H224522   2.879   6.817   4.999  0.2955  0.2011 -0.6496
 8196TIP3   OH224523   1.282   4.604   3.685  0.0686 -0.2069  0.0732
 8196TIP3    H124524   1.356   4.567   3.734  0.5690  1.2534  0.4392
 8196TIP3    H224525   1.315   4.614   3.596  0.4028  0.6847  0.2938
 8197TIP3   OH224526   2.013   5.025   4.218  0.6260 -0.4506  0.0241
 8197TIP3    H124527   2.095   4.988   4.251  0.9424 -0.3624 -0.6512
 8197TIP3    H224528   1.976   4.955   4.163 -0.1119 -0.7629  0.8979
 8198TIP3   OH224529   2.716   6.934   5.863  0.0661 -0.2213 -0.0571
 8198TIP3    H124530   2.643   6.895   5.815  0.2754 -1.2180  0.4068
 8198TIP3    H224531   2.792   6.920   5.806  0.2885 -1.2710  0.4658
 8199TIP3   OH224532   3.647   6.451   5.429  0.1784  0.4275  0.4114
 8199TIP3    H124533   3.664   6.500   5.509  0.4050 -0.2531  0.7805
 8199TIP3    H224534   3.604   6.371   5.458 -0.1444  0.3779 -0.1870
 8200TIP3   OH224535   3.937   6.841   6.333  0.1617 -0.2957  0.6914
 8200TIP3    H124536   4.003   6.773   6.348  0.0832 -0.3998  0.5701
 8200TIP3    H224537   3.878   6.803   6.268  0.1946 -0.0596  0.5216
 8201TIP3   OH224538   2.643   3.089   1.697  0.1642  0.3065  0.3215
 8201TIP3    H124539   2.736   3.107   1.680  0.1825  0.4911  0.6088
 8201TIP3    H224540   2.600   3.102   1.613  0.4335  0.0025  0.1355
 8202TIP3   OH224541   2.056   5.241   4.891 -0.2455  0.4963  0.4227
 8202TIP3    H124542   2.103   5.161   4.866  2.0347  1.5276  1.2376
 8202TIP3    H224543   1.986   5.249   4.826  0.4837 -1.2942 -0.6252
 8203TIP3   OH224544   2.485   6.644   2.371 -0.2991  0.3363  0.6518
 8203TIP3    H124545   2.461   6.603   2.288 -2.9751 -2.0585  2.5133
 8203TIP3    H224546   2.576   6.673   2.357  0.3041 -2.5320 -2.1730
 8204TIP3   OH224547   3.562   6.462   5.891 -0.4123  0.2726 -0.6377
 8204TIP3    H124548   3.518   6.488   5.810  0.5677 -1.6329 -1.8308
 8204TIP3    H224549   3.509   6.390   5.925 -0.6261  0.8412  0.2440
 8205TIP3   OH224550   2.233   7.508   3.810 -0.5243 -0.1492 -0.1654
 8205TIP3    H124551   2.318   7.505   3.766 -0.7517  0.0716 -0.6263
 8205TIP3    H224552   2.171   7.476   3.744 -0.9721  0.8988 -0.2522
 8206TIP3   OH224553   3.368   6.033   4.548 -0.1774  0.6246  0.2260
 8206TIP3    H124554   3.305   6.075   4.489  0.0140  1.1985  0.4265
 8206TIP3    H224555   3.363   6.083   4.629 -0.1358  0.0947  0.5583
 8207TIP3   OH224556   4.165   7.335   6.108  0.1861  0.1865  0.4670
 8207TIP3    H124557   4.101   7.406   6.103  0.1083  0.2063  1.5584
 8207TIP3    H224558   4.154   7.299   6.196  0.6960 -0.7392  0.1582
 8208TIP3   OH224559   0.316   4.859   2.260  0.1625 -0.4068 -0.6561
 8208TIP3    H124560   0.381   4.837   2.327 -0.8102 -1.2545  0.0303
 8208TIP3    H224561   0.312   4.955   2.261  0.2422 -0.4084  0.4251
 8209TIP3   OH224562   0.399   5.145   1.940 -0.1933 -0.2711  0.3928
 8209TIP3    H124563   0.385   5.230   1.981 -0.6455 -0.5287  0.7824
 8209TIP3    H224564   0.408   5.084   2.013 -0.1841 -0.6050  0.1142
 8210TIP3   OH224565   2.180   6.279   5.989  0.5785 -0.3656  0.0045
 8210TIP3    H124566   2.138   6.257   6.072  0.0514  0.2143 -0.1011
 8210TIP3    H224567   2.178   6.198   5.938  0.0749 -0.4795  0.2079
 8211TIP3   OH224568   4.638   7.281   3.937 -0.0457 -0.0209  0.1832
 8211TIP3    H124569   4.676   7.350   3.991  1.7111 -1.4365  0.7783
 8211TIP3    H224570   4.544   7.297   3.942  0.3040  2.1907  0.4923
 8212TIP3   OH224571   5.371   4.225   6.446 -0.0521  0.0656  0.1064
 8212TIP3    H124572   5.439   4.190   6.387 -0.2592 -0.9509  0.4507
 8212TIP3    H224573   5.314   4.150   6.462 -0.0246  0.3482  1.5730
 8213TIP3   OH224574   1.568   4.834   4.420 -0.6996 -0.4578  0.5661
 8213TIP3    H124575   1.531   4.800   4.501  0.0841 -0.7993  0.7801
 8213TIP3    H224576   1.656   4.798   4.416 -1.1287 -1.3800 -1.0117
 8214TIP3   OH224577   0.768   4.323   2.950  0.1973  0.0776 -0.0017
 8214TIP3    H124578   0.699   4.387   2.967  0.5265  0.4914 -0.2141
 8214TIP3    H224579   0.841   4.375   2.917  1.1639 -0.1639  1.7011
 8215TIP3   OH224580   1.120   5.420   4.731  0.0829 -0.1205 -0.1205
 8215TIP3    H124581   1.191   5.474   4.696  0.1951 -1.0186 -1.3223
 8215TIP3    H224582   1.042   5.448   4.683  0.2944 -1.5715 -1.3708
 8216TIP3   OH224583   3.899   5.317   4.017 -0.2484 -0.7355  0.0882
 8216TIP3    H124584   3.854   5.286   4.096  0.2747 -0.7002  0.4030
 8216TIP3    H224585   3.830   5.327   3.952 -0.3160 -3.5396 -0.3253
 8217TIP3   OH224586   2.184   6.365   4.430  0.0903  0.2511  0.1288
 8217TIP3    H124587   2.101   6.404   4.405 -0.4401 -1.0698 -0.2400
 8217TIP3    H224588   2.247   6.436   4.425 -0.5458  0.6994 -2.1383
 8218TIP3   OH224589   3.427   5.973   0.973 -0.6894 -0.6077  0.4790
 8218TIP3    H124590   3.379   6.017   1.044  1.5634  0.8473  1.1322
 8218TIP3    H224591   3.461   6.044   0.919 -0.7378 -1.6757 -0.9790
 8219TIP3   OH224592   0.933   6.273   5.649  0.2773  0.5221  0.3211
 8219TIP3    H124593   0.850   6.231   5.628  0.1921 -0.0388  1.7014
 8219TIP3    H224594   0.924   6.362   5.615 -0.7748  0.3790  0.2127
 8220TIP3   OH224595   1.632   5.038   5.909 -0.0404 -0.3712 -0.1685
 8220TIP3    H124596   1.692   5.084   5.966 -0.2631 -3.7203  2.9422
 8220TIP3    H224597   1.563   5.006   5.967 -1.7884 -1.5135 -2.7541
 8221TIP3   OH224598   4.003   5.583   3.925  0.1741  0.2536  0.4979
 8221TIP3    H124599   3.964   5.532   3.997 -1.7798 -0.1896 -0.8474
 8221TIP3    H224600   3.938   5.651   3.906  1.3973  1.3457  0.2163
 8222TIP3   OH224601   2.127   5.633   6.828 -0.1044 -0.3032  0.4577
 8222TIP3    H124602   2.095   5.704   6.774  0.8459 -1.1269 -1.2066
 8222TIP3    H224603   2.222   5.639   6.823 -0.0118 -1.7660  0.1879
 8223TIP3   OH224604   3.795   6.299   4.831  0.2585  0.3286 -0.0491
 8223TIP3    H124605   3.746   6.275   4.753  0.3950  1.4234 -0.4755
 8223TIP3    H224606   3.856   6.366   4.802  1.0153  0.0079  0.7839
 8224TIP3   OH224607   1.691   6.503   5.087  0.5420 -0.4498  0.0506
 8224TIP3    H124608   1.605   6.483   5.051  0.9752 -1.4549 -0.4373
 8224TIP3    H224609   1.753   6.476   5.019  1.2938 -0.8134  0.8704
 8225TIP3   OH224610   3.260   5.665   2.081  0.5167 -0.3809 -0.8487
 8225TIP3    H124611   3.232   5.577   2.105 -2.0608  0.0469 -2.0709
 8225TIP3    H224612   3.333   5.652   2.021  1.2575 -1.6498  0.3282
 8226TIP3   OH224613   2.572   3.790   4.962 -0.1649  0.1697  0.3089
 8226TIP3    H124614   2.559   3.874   5.006 -0.5089  0.0718  0.3926
 8226TIP3    H224615   2.508   3.789   4.891  1.7022  1.1914 -1.4675
 8227TIP3   OH224616   3.216   5.604   3.050  0.2187  0.1847 -0.1102
 8227TIP3    H124617   3.175   5.579   3.133  2.5327  0.2637  1.0815
 8227TIP3    H224618   3.143   5.608   2.988 -1.0674 -3.9281  0.9321
 8228TIP3   OH224619   3.074   6.661   5.361  0.1256  0.0957 -0.8714
 8228TIP3    H124620   3.042   6.705   5.440 -1.7078  1.1820 -2.1571
 8228TIP3    H224621   3.162   6.698   5.347 -0.1721  1.0784 -0.2209
 8229TIP3   OH224622   2.024   7.002   3.786 -0.4711 -0.7263 -0.0242
 8229TIP3    H124623   1.980   7.067   3.841  0.6835 -0.2795  0.3988
 8229TIP3    H224624   2.103   7.047   3.755 -0.5285 -1.3647 -1.1114
 8230TIP3   OH224625   3.053   5.976   4.059 -0.0187  0.4121  0.5580
 8230TIP3    H124626   3.143   5.952   4.083 -0.4648 -1.2602  0.5699
 8230TIP3    H224627   3.056   6.072   4.051  1.9003  0.3326  0.0020
 8231TIP3   OH224628   7.973   6.449   3.210  0.0096  0.4637 -0.1192
 8231TIP3    H124629   7.933   6.504   3.142  0.5061  0.0957 -0.7156
 8231TIP3    H224630   7.912   6.376   3.221  0.3994  0.0215 -0.8641
 8232TIP3   OH224631   2.167   6.742   5.090 -0.0171  0.4690 -0.0285
 8232TIP3    H124632   2.102   6.674   5.109 -0.3660  0.5833 -0.8234
 8232TIP3    H224633   2.132   6.788   5.014 -1.4935  3.7389  2.5310
 8233TIP3   OH224634   0.871   4.901   2.344 -0.0358 -0.3258 -0.0144
 8233TIP3    H124635   0.911   4.948   2.270  0.3033 -2.9324 -1.5294
 8233TIP3    H224636   0.808   4.964   2.380  0.2263  1.2191 -2.1212
 8234TIP3   OH224637   1.691   7.260   4.939  0.5546  0.2962 -0.1417
 8234TIP3    H124638   1.710   7.261   5.033  1.2059  0.2309 -0.2737
 8234TIP3    H224639   1.618   7.322   4.930  0.9381  0.8285  0.3154
 8235TIP3   OH224640   2.885   6.980   5.421  0.2118  0.2779 -0.1015
 8235TIP3    H124641   2.954   6.941   5.475 -1.4132 -1.2455  0.9502
 8235TIP3    H224642   2.862   7.061   5.467  1.0975  0.6499 -0.3052
 8236TIP3   OH224643   7.827   1.452   1.242 -0.4060  0.5490  0.5414
 8236TIP3    H124644   7.866   1.516   1.302  0.0045  0.6237  0.1980
 8236TIP3    H224645   7.815   1.373   1.296 -0.5822  0.8045  0.8732
 8237TIP3   OH224646   1.854   2.709   0.152  1.0204  0.0914 -0.3046
 8237TIP3    H124647   1.945   2.695   0.126  1.5893 -1.4777  2.3152
 8237TIP3    H224648   1.856   2.708   0.248 -1.8940 -0.9727 -0.2047
 8238TIP3   OH224649   2.770   6.299   4.516  0.6080 -0.3696  0.5109
 8238TIP3    H124650   2.849   6.350   4.536  1.6870 -1.4034 -1.0490
 8238TIP3    H224651   2.720   6.300   4.598  3.0983 -1.2555  2.1096
 8239TIP3   OH224652   1.683   4.612   1.800  0.0823  0.4599  0.4957
 8239TIP3    H124653   1.679   4.593   1.706  0.5032 -1.9259  0.9430
 8239TIP3    H224654   1.600   4.656   1.819 -1.0932 -1.2681 -0.5322
 8240TIP3   OH224655   2.719   5.881   2.423 -0.3501  0.0784  0.0031
 8240TIP3    H124656   2.787   5.920   2.478  0.1131  0.0484 -0.5539
 8240TIP3    H224657   2.647   5.863   2.484  1.1003 -2.2711  1.0665
 8241TIP3   OH224658   3.494   6.168   2.829  0.5742  0.2542  0.0464
 8241TIP3    H124659   3.551   6.164   2.905 -1.2358  1.6590  1.5312
 8241TIP3    H224660   3.433   6.095   2.842  0.8771 -0.1095 -0.5716
 8242TIP3   OH224661   0.727   6.106   5.553  0.2611  0.0846 -0.5739
 8242TIP3    H124662   0.647   6.136   5.511 -0.1201  1.4097  1.0801
 8242TIP3    H224663   0.701   6.028   5.601 -0.2990  1.1897  0.9240
 8243TIP3   OH224664   3.665   6.130   2.619  0.0069 -0.6225 -0.5025
 8243TIP3    H124665   3.653   6.044   2.579 -2.7191 -0.6331  0.2843
 8243TIP3    H224666   3.584   6.147   2.667  0.8519  1.9927  0.1158
 8244TIP3   OH224667   1.490   6.668   3.888 -0.7948 -0.1981 -0.7321
 8244TIP3    H124668   1.514   6.741   3.945  2.0468 -0.9259 -0.9228
 8244TIP3    H224669   1.530   6.688   3.804 -0.7835 -1.4952 -1.0528
 8245TIP3   OH224670   0.762   7.830   2.060 -0.0434 -0.1162  0.4347
 8245TIP3    H124671   0.812   7.748   2.062  0.3681  0.0733 -1.6265
 8245TIP3    H224672   0.677   7.807   2.098  0.3873 -1.2580  0.7440
 8246TIP3   OH224673   7.328   1.920   0.467  0.2836  0.4186  0.1037
 8246TIP3    H124674   7.413   1.901   0.428 -0.1049 -2.5114  0.5460
 8246TIP3    H224675   7.349   1.949   0.556  0.8124 -0.8598  0.4055
 8247TIP3   OH224676   3.346   6.753   4.389  0.3569 -0.6376 -0.5267
 8247TIP3    H124677   3.300   6.702   4.456 -0.9362  0.9051 -0.1941
 8247TIP3    H224678   3.430   6.775   4.429 -1.0786  1.7453  1.3617
 8248TIP3   OH224679   2.903   7.150   6.234 -0.0762  0.1404 -0.2529
 8248TIP3    H124680   2.862   7.195   6.160  1.8394  0.7124 -1.0165
 8248TIP3    H224681   2.993   7.135   6.205  0.2521 -1.0946  1.3516
 8249TIP3   OH224682   3.909   5.440   3.018  1.2634  0.4036  0.3824
 8249TIP3    H124683   3.839   5.504   3.010  1.0057 -0.0527 -1.3174
 8249TIP3    H224684   3.911   5.396   2.933  0.9604 -2.3334  1.7532
 8250TIP3   OH224685   4.137   6.269   5.058  0.3622  0.6022 -0.2232
 8250TIP3    H124686   4.134   6.359   5.026  0.3546 -0.0239 -2.0663
 8250TIP3    H224687   4.227   6.240   5.040  0.5295  0.4240  0.8783
 8251TIP3   OH224688   5.180   7.099   2.322  0.0236  0.2026  0.4861
 8251TIP3    H124689   5.119   7.172   2.339 -1.6371 -1.0950  0.2073
 8251TIP3    H224690   5.239   7.100   2.397  1.5595  3.3473 -0.6849
 8252TIP3   OH224691   2.417   6.521   3.510  0.4035  0.2552 -0.1701
 8252TIP3    H124692   2.376   6.436   3.527 -1.4649  1.2273  0.3416
 8252TIP3    H224693   2.486   6.528   3.576 -1.1668  0.2679  1.4992
 8253TIP3   OH224694   1.850   5.683   4.294  0.1394 -0.2970  0.5199
 8253TIP3    H124695   1.822   5.662   4.383  0.6804  3.3892  1.6305
 8253TIP3    H224696   1.945   5.695   4.300 -0.0396  1.6771 -0.1443
 8254TIP3   OH224697   0.634   5.977   3.516 -0.0011 -0.4151 -0.7441
 8254TIP3    H124698   0.541   5.999   3.518  0.4694  1.5647  0.2219
 8254TIP3    H224699   0.651   5.955   3.424 -0.9963  1.0684 -1.3001
 8255TIP3   OH224700   2.932   5.185   5.028  0.3309  0.6118 -0.1395
 8255TIP3    H124701   2.901   5.113   4.973  0.0600  1.8252 -1.6339
 8255TIP3    H224702   2.945   5.257   4.966  0.8672  1.7513  1.2899
 8256TIP3   OH224703   7.767   5.965   6.888  0.2840  0.3836  0.7379
 8256TIP3    H124704   7.761   6.027   6.816 -2.5153 -0.2508  0.3448
 8256TIP3    H224705   7.744   5.880   6.849 -0.6526 -0.0665  2.1993
 8257TIP3   OH224706   2.049   5.347   2.284  0.6793 -0.6101  0.3943
 8257TIP3    H124707   2.064   5.288   2.211 -1.5908  0.1247 -0.7088
 8257TIP3    H224708   1.963   5.321   2.319 -2.0467  4.1522 -2.3013
 8258TIP3   OH224709   4.268   0.673   5.574  0.3070 -0.3969  0.3286
 8258TIP3    H124710   4.323   0.660   5.650  0.0544 -0.5520  0.4845
 8258TIP3    H224711   4.178   0.666   5.607  0.1780  0.8625  0.2695
 8259TIP3   OH224712   2.469   6.641   0.715  0.6339 -0.1104 -0.5751
 8259TIP3    H124713   2.387   6.609   0.752  0.8556 -3.0912 -2.4479
 8259TIP3    H224714   2.517   6.677   0.789 -0.9730 -1.4494  1.1454
 8260TIP3   OH224715   5.047   5.162   2.243 -0.2114  0.0491  0.4507
 8260TIP3    H124716   4.989   5.175   2.168  1.5835 -1.6611 -1.2929
 8260TIP3    H224717   5.056   5.249   2.281 -4.3629  0.2617  1.1532
 8261TIP3   OH224718   4.717   5.342   3.983 -0.3262 -0.5573  0.0881
 8261TIP3    H124719   4.756   5.394   3.913  0.8469 -0.3676  0.8730
 8261TIP3    H224720   4.718   5.252   3.949 -0.6816 -0.3370 -0.5277
 8262TIP3   OH224721   0.787   4.197   5.102 -0.0148  0.2641  0.1556
 8262TIP3    H124722   0.874   4.157   5.096 -0.1981 -0.2451  0.8384
 8262TIP3    H224723   0.747   4.179   5.017  0.7846  1.0491 -0.3894
 8263TIP3   OH224724   3.162   7.567   2.471  0.3970 -0.5623  0.3621
 8263TIP3    H124725   3.115   7.483   2.466 -0.7173 -0.0546  1.7768
 8263TIP3    H224726   3.102   7.624   2.520  0.6561  1.3973 -1.5364
 8264TIP3   OH224727   3.645   5.108   5.983  0.3864  0.4695 -0.3224
 8264TIP3    H124728   3.638   5.184   5.926  0.5698  0.1164 -0.8196
 8264TIP3    H224729   3.684   5.040   5.928 -0.8224 -0.3194 -0.2081
 8265TIP3   OH224730   4.197   0.283   4.761 -0.3465  0.3873  0.2664
 8265TIP3    H124731   4.180   0.195   4.796 -1.4951 -0.2873 -1.8972
 8265TIP3    H224732   4.121   0.334   4.789 -0.3467  0.3468  0.3433
 8266TIP3   OH224733   1.988   5.114   2.127 -0.0312 -0.2264  0.1843
 8266TIP3    H124734   1.932   5.138   2.201 -0.7262  2.1520 -1.0247
 8266TIP3    H224735   1.946   5.037   2.089 -1.3465  0.3139  0.5127
 8267TIP3   OH224736   2.651   6.010   2.177  0.8719  0.2039  0.1582
 8267TIP3    H124737   2.703   5.979   2.251  1.9139  1.4139 -0.0399
 8267TIP3    H224738   2.616   5.931   2.137  2.6550 -0.6604  0.2496
 8268TIP3   OH224739   3.347   6.130   4.228  0.5076  0.2686 -0.0629
 8268TIP3    H124740   3.427   6.130   4.280 -0.2156  0.5107  1.0619
 8268TIP3    H224741   3.340   6.041   4.193  1.1327  0.1842  0.0318
 8269TIP3   OH224742   3.623   3.183   5.639 -0.1594 -0.1808  0.5896
 8269TIP3    H124743   3.650   3.091   5.637  0.8597  0.0867  1.7157
 8269TIP3    H224744   3.558   3.188   5.709 -0.5491 -0.1251  0.2285
 8270TIP3   OH224745   1.114   4.807   3.768 -0.3635 -0.5379 -0.1358
 8270TIP3    H124746   1.155   4.723   3.745 -0.4199 -0.8469  0.8567
 8270TIP3    H224747   1.040   4.783   3.823 -0.9853  0.1160 -0.6870
 8271TIP3   OH224748   0.258   6.644   2.313 -0.4300  0.4016  0.8135
 8271TIP3    H124749   0.261   6.638   2.409  1.3903  0.8160  0.8070
 8271TIP3    H224750   0.330   6.588   2.284 -2.3957 -1.5769 -0.4317
 8272TIP3   OH224751   7.452   0.625   0.951 -0.2611  0.0954 -0.2376
 8272TIP3    H124752   7.530   0.638   1.004  0.0360  1.3469 -0.9707
 8272TIP3    H224753   7.388   0.587   1.011  0.2433  0.9788  0.8658
 8273TIP3   OH224754   4.949   4.835   3.589 -0.2773  0.2151 -0.4141
 8273TIP3    H124755   4.902   4.833   3.672 -0.3494  2.5993 -0.3494
 8273TIP3    H224756   5.022   4.896   3.605  0.5499 -0.4250 -1.6682
 8274TIP3   OH224757   1.449   6.260   1.255  0.5654 -0.2351 -0.4102
 8274TIP3    H124758   1.471   6.324   1.187  0.9045 -0.6081 -0.6577
 8274TIP3    H224759   1.411   6.312   1.326 -1.6739 -0.0780 -1.6823
 8275TIP3   OH224760   1.396   5.318   4.302  0.1494  0.2785 -0.6410
 8275TIP3    H124761   1.404   5.226   4.327 -0.1654  0.2738 -0.5536
 8275TIP3    H224762   1.310   5.324   4.259 -0.2207  0.7083  0.1428
 8276TIP3   OH224763   8.337   1.005   1.148  0.7586  0.4762 -0.2908
 8276TIP3    H124764   8.393   0.952   1.205  0.8610 -1.9272 -2.5641
 8276TIP3    H224765   8.397   1.047   1.087  0.2874 -0.7351 -1.6264
 8277TIP3   OH224766   1.971   6.666   3.342 -0.0882 -0.2091  0.0410
 8277TIP3    H124767   2.030   6.716   3.286  0.1868 -0.0800  0.4455
 8277TIP3    H224768   2.024   6.590   3.369 -0.6384 -0.9651 -0.9290
 8278TIP3   OH224769   3.098   6.484   1.713 -0.1012  0.1944 -0.4876
 8278TIP3    H124770   3.031   6.489   1.781 -1.0012  2.0084 -1.4714
 8278TIP3    H224771   3.116   6.390   1.704 -0.8737 -0.1594  1.3482
 8279TIP3   OH224772   2.802   6.322   4.193 -0.3559 -0.4117 -0.4589
 8279TIP3    H124773   2.790   6.352   4.283  1.1466 -0.4850 -0.2149
 8279TIP3    H224774   2.745   6.246   4.184 -0.5242 -0.3868  0.4259
 8280TIP3   OH224775   2.271   7.042   4.701 -0.2508  0.1247 -0.3917
 8280TIP3    H124776   2.259   7.107   4.770 -1.3216  0.0383 -0.4786
 8280TIP3    H224777   2.214   6.969   4.727 -1.3217  0.4323 -1.7702
 8281TIP3   OH224778   3.190   4.674   4.740  0.0673 -0.1061 -0.1380
 8281TIP3    H124779   3.285   4.676   4.756  0.1456 -2.7115 -0.1533
 8281TIP3    H224780   3.181   4.628   4.657 -1.1261  1.8878 -1.1397
 8282TIP3   OH224781   0.587   7.538   3.380 -0.1522 -0.6547  0.7175
 8282TIP3    H124782   0.560   7.629   3.377  1.9393 -0.0423 -0.5828
 8282TIP3    H224783   0.517   7.494   3.429 -1.7570  1.4103  0.3676
 8283TIP3   OH224784   4.700   0.347   5.115  0.3711 -0.1271 -0.2686
 8283TIP3    H124785   4.722   0.269   5.166 -0.8739 -0.9411 -0.9541
 8283TIP3    H224786   4.779   0.365   5.064  0.4100 -1.4074 -0.6812
 8284TIP3   OH224787   5.237   0.136   4.660 -0.2724  0.2254  1.0069
 8284TIP3    H124788   5.225   0.225   4.626  1.3205  0.3387  0.7008
 8284TIP3    H224789   5.258   0.084   4.583 -1.9978 -0.5822  1.0739
 8285TIP3   OH224790   1.593   5.964   4.568 -0.3488 -0.0113  0.3157
 8285TIP3    H124791   1.516   6.010   4.602 -0.7494 -0.9445  0.6956
 8285TIP3    H224792   1.615   6.010   4.487 -0.2964  1.3021  1.0697
 8286TIP3   OH224793   1.904   7.965   6.035 -0.4147 -0.0416 -0.0153
 8286TIP3    H124794   1.874   7.879   6.065 -0.1694  0.0105  0.3816
 8286TIP3    H224795   1.932   8.010   6.114  0.9229 -0.1727 -0.3828
 8287TIP3   OH224796   3.089   6.500   2.821  0.6690 -0.8377 -0.4632
 8287TIP3    H124797   2.994   6.497   2.809  0.7337 -1.6504 -0.8414
 8287TIP3    H224798   3.104   6.454   2.904  0.7576 -0.9700 -0.5534
 8288TIP3   OH224799   6.604   0.985   1.002 -0.3819  0.1662  0.1384
 8288TIP3    H124800   6.589   1.024   1.088 -0.0088 -1.7677  1.0969
 8288TIP3    H224801   6.522   0.939   0.982 -1.6129  3.1230 -1.9413
 8289TIP3   OH224802   2.142   7.381   3.591  0.2270 -0.8406  0.5968
 8289TIP3    H124803   2.132   7.418   3.504  1.4602 -0.5499  0.5717
 8289TIP3    H224804   2.160   7.288   3.576  0.0727 -0.8625  0.5517
 8290TIP3   OH224805   0.203   2.255   0.325  0.1671  0.7699 -0.0368
 8290TIP3    H124806   0.251   2.306   0.261 -0.0149  1.3678  0.2985
 8290TIP3    H224807   0.203   2.166   0.290  1.4778  0.7725 -0.0492
 8291TIP3   OH224808   4.098   5.464   2.609 -0.3821 -0.5966  0.1193
 8291TIP3    H124809   4.140   5.537   2.654 -2.0141  1.5982 -1.7687
 8291TIP3    H224810   4.005   5.475   2.628 -0.8266 -1.0814 -1.6879
 8292TIP3   OH224811   3.542   5.192   4.424  0.6789  0.2703  0.0067
 8292TIP3    H124812   3.459   5.240   4.429  1.2018  1.0942  1.0831
 8292TIP3    H224813   3.562   5.188   4.331 -0.8637 -0.4375 -0.2970
 8293TIP3   OH224814   2.473   5.447   5.252  0.5105  0.7069  0.6352
 8293TIP3    H124815   2.488   5.396   5.173  0.6309  1.3478  0.2395
 8293TIP3    H224816   2.559   5.455   5.293  0.1351 -1.3068  1.8797
 8294TIP3   OH224817   1.497   4.084   3.593 -0.1293  0.0161  0.0711
 8294TIP3    H124818   1.405   4.080   3.618  0.0928  0.6178  1.0356
 8294TIP3    H224819   1.525   3.993   3.588 -0.7281 -0.1628 -0.0515
 8295TIP3   OH224820   1.330   5.827   4.431  0.3978  0.1331  0.4799
 8295TIP3    H124821   1.319   5.916   4.397  0.9260  0.9256  2.3368
 8295TIP3    H224822   1.417   5.800   4.400  0.0051  0.0426 -0.5536
 8296TIP3   OH224823   1.461   6.545   2.895  0.0295  0.3202 -0.7901
 8296TIP3    H124824   1.518   6.537   2.819 -0.4846  0.2637 -1.1725
 8296TIP3    H224825   1.434   6.637   2.896 -1.4657 -0.0909 -1.7747
 8297TIP3   OH224826   1.797   7.333   4.565 -0.0863  0.5600 -1.0980
 8297TIP3    H124827   1.884   7.345   4.603  0.1365  0.3197 -1.5282
 8297TIP3    H224828   1.797   7.388   4.487  0.5112 -1.2482 -2.3979
 8298TIP3   OH224829   2.201   7.659   2.872 -0.3573  0.1521  0.2350
 8298TIP3    H124830   2.129   7.722   2.869 -1.3945 -0.9423  1.2037
 8298TIP3    H224831   2.159   7.577   2.900  1.3263 -0.4228  1.1262
 8299TIP3   OH224832   3.261   7.050   4.522  0.1752  0.6202 -0.0221
 8299TIP3    H124833   3.291   7.006   4.602 -1.6539  1.8365  1.3859
 8299TIP3    H224834   3.238   6.978   4.463  1.7388 -0.3045  0.4515
 8300TIP3   OH224835   3.114   5.960   3.595 -0.8426  0.0958 -0.3574
 8300TIP3    H124836   3.093   5.917   3.512  2.1939  0.4837 -1.4061
 8300TIP3    H224837   3.170   5.897   3.641 -1.6479  0.3187  0.9553
 8301TIP3   OH224838   2.228   6.331   2.768 -0.1932 -0.0259 -0.7216
 8301TIP3    H124839   2.267   6.248   2.738  1.0171 -1.0078  3.3235
 8301TIP3    H224840   2.304   6.387   2.787 -0.9720  1.2558 -1.3535
 8302TIP3   OH224841   2.118   3.528   1.035 -0.4547  0.3957  0.1086
 8302TIP3    H124842   2.050   3.534   1.102  1.6385  2.3046  2.1943
 8302TIP3    H224843   2.085   3.580   0.962 -1.9266 -0.0697  0.4288
 8303TIP3   OH224844   0.659   5.657   4.291 -0.4909  0.0348  0.4784
 8303TIP3    H124845   0.723   5.725   4.267 -1.6620  0.8230 -0.4641
 8303TIP3    H224846   0.712   5.578   4.303  0.6574  0.6398 -0.4521
 8304TIP3   OH224847   8.224   3.587   1.152 -0.4084 -0.7616  0.4572
 8304TIP3    H124848   8.229   3.617   1.243 -0.2682 -0.9060  0.4970
 8304TIP3    H224849   8.162   3.515   1.153 -3.0211  1.3844 -0.1342
 8305TIP3   OH224850   6.650   3.767   5.192  0.2323 -0.0817 -0.6519
 8305TIP3    H124851   6.603   3.705   5.248 -0.1028  0.9547  0.2387
 8305TIP3    H224852   6.742   3.752   5.211  0.0851  1.1303  1.1574
 8306TIP3   OH224853   1.563   4.183   6.741 -0.1487 -0.1323 -0.7435
 8306TIP3    H124854   1.491   4.189   6.805  2.0038  0.5394  1.6906
 8306TIP3    H224855   1.581   4.089   6.734 -0.2215 -0.2015 -0.1134
 8307TIP3   OH224856   1.566   4.856   3.666 -0.1058 -0.7361 -0.0673
 8307TIP3    H124857   1.616   4.932   3.638 -1.5039 -0.1313 -0.9765
 8307TIP3    H224858   1.552   4.805   3.586  0.3455 -1.6710  0.4365
 8308TIP3   OH224859   1.450   5.250   6.554 -0.5532  0.0866 -0.0372
 8308TIP3    H124860   1.508   5.205   6.616 -0.9026  1.0093  0.9739
 8308TIP3    H224861   1.399   5.180   6.513  1.8437 -0.8067 -1.5419
 8309TIP3   OH224862   2.434   5.321   6.392  0.2277  0.2690 -0.3135
 8309TIP3    H124863   2.496   5.252   6.413 -0.5861 -0.1245  0.8504
 8309TIP3    H224864   2.485   5.384   6.340  1.4414 -0.3055  0.1606
 8310TIP3   OH224865   1.895   3.945   4.840  0.6139 -0.5689  0.5756
 8310TIP3    H124866   1.942   4.013   4.791 -0.3821 -0.6837 -0.5454
 8310TIP3    H224867   1.964   3.899   4.888  1.5728 -0.2241 -0.4335
 8311TIP3   OH224868   8.380   2.051   0.633 -0.3380  0.0590  0.0609
 8311TIP3    H124869   8.442   2.112   0.672  0.1791 -0.1912 -0.3716
 8311TIP3    H224870   8.434   1.978   0.602 -0.6641  0.6262 -1.8566
 8312TIP3   OH224871   1.388   7.032   3.457 -0.5552 -0.2027  0.3496
 8312TIP3    H124872   1.329   6.986   3.516 -1.4786  1.7980  1.0365
 8312TIP3    H224873   1.366   6.999   3.370 -1.7962 -0.4173  0.7351
 8313TIP3   OH224874   1.343   4.884   2.985  0.5092 -0.0364 -0.2915
 8313TIP3    H124875   1.399   4.910   2.912  0.7077 -3.3524 -1.3694
 8313TIP3    H224876   1.255   4.882   2.948  0.1323  1.4892  0.4546
 8314TIP3   OH224877   0.469   6.295   3.057  0.2015  0.0573  0.0153
 8314TIP3    H124878   0.381   6.272   3.086 -0.2396  0.9431 -0.5830
 8314TIP3    H224879   0.520   6.303   3.137 -0.6490  1.0731  0.4637
 8315TIP3   OH224880   1.905   6.531   4.005 -0.1173 -0.2323 -0.5441
 8315TIP3    H124881   1.983   6.476   4.013  0.4756  0.4000 -1.9323
 8315TIP3    H224882   1.938   6.620   4.000 -0.9786  0.1099 -0.2199
 8316TIP3   OH224883   3.373   7.247   6.763 -1.1180 -0.3046  0.2522
 8316TIP3    H124884   3.462   7.225   6.791 -0.3046 -1.6019 -3.0466
 8316TIP3    H224885   3.356   7.333   6.801  1.0954 -0.5570  1.9061
 8317TIP3   OH224886   3.937   7.930   1.298 -0.3640 -0.5473 -0.6225
 8317TIP3    H124887   3.961   7.879   1.376 -1.0273 -3.0155 -1.9833
 8317TIP3    H224888   3.869   7.990   1.329 -1.0665 -1.9356  0.5831
 8318TIP3   OH224889   0.114   8.027   5.496 -0.0927  0.6715 -0.0652
 8318TIP3    H124890   0.088   7.940   5.528  3.1337  0.1647  1.3191
 8318TIP3    H224891   0.085   8.028   5.404 -0.4961 -1.7349  0.0034
 8319TIP3   OH224892   3.684   7.202   2.826  0.2511 -0.1931 -0.2067
 8319TIP3    H124893   3.669   7.268   2.759 -2.4677 -0.4613  0.0869
 8319TIP3    H224894   3.686   7.251   2.908 -0.7679 -0.3510 -0.0836
 8320TIP3   OH224895   3.239   7.278   4.398 -0.0252 -0.1786  0.3468
 8320TIP3    H124896   3.289   7.275   4.316  0.6437  0.2855  0.7291
 8320TIP3    H224897   3.252   7.191   4.437 -2.4108 -1.2923 -1.2238
 8321TIP3   OH224898   2.745   5.822   3.178 -0.2307  0.8257  0.3002
 8321TIP3    H124899   2.700   5.898   3.214 -3.4005  0.3155 -2.2893
 8321TIP3    H224900   2.808   5.858   3.116  1.0230  1.4569  1.9226
 8322TIP3   OH224901   2.172   5.665   4.933  0.0347 -0.1860  0.0868
 8322TIP3    H124902   2.109   5.731   4.959 -1.9346 -2.4988  1.4337
 8322TIP3    H224903   2.239   5.667   5.001  0.1541  0.6131 -0.0492
 8323TIP3   OH224904   2.140   7.140   2.799  0.1876  0.4036 -0.2266
 8323TIP3    H124905   2.119   7.089   2.877 -1.4041  0.3482 -0.6849
 8323TIP3    H224906   2.156   7.074   2.731 -0.9954  0.4818 -0.5938
 8324TIP3   OH224907   1.612   5.873   5.288  0.0931  0.1068 -0.2333
 8324TIP3    H124908   1.594   5.819   5.211 -1.1982  2.2559 -1.5025
 8324TIP3    H224909   1.536   5.932   5.294  1.4634  1.8022  1.0404
 8325TIP3   OH224910   2.510   5.436   6.693  0.0556  0.0713 -0.3604
 8325TIP3    H124911   2.492   5.482   6.775  1.0729 -1.0908  0.5523
 8325TIP3    H224912   2.428   5.392   6.671  0.0421 -0.3966  0.5766
 8326TIP3   OH224913   3.851   5.074   4.434  0.2964 -0.0194 -0.6825
 8326TIP3    H124914   3.793   5.040   4.367  0.4188 -1.4747 -0.0726
 8326TIP3    H224915   3.913   5.002   4.450  0.9150  0.7090  0.2137
 8327TIP3   OH224916   6.310   0.346   1.376  0.1248  0.5082  0.0667
 8327TIP3    H124917   6.251   0.300   1.436  1.0439 -0.0915  0.5157
 8327TIP3    H224918   6.256   0.363   1.299 -0.3809 -0.8883  0.0885
 8328TIP3   OH224919   4.142   6.548   5.708 -0.0262 -0.5577 -0.4340
 8328TIP3    H124920   4.169   6.494   5.783  1.6375 -1.2743 -1.5275
 8328TIP3    H224921   4.054   6.576   5.730  1.0365  0.6217  2.5791
 8329TIP3   OH224922   5.151   0.165   6.906 -0.9134  0.0379 -0.0666
 8329TIP3    H124923   5.215   0.101   6.874  1.8971  2.3452  0.6472
 8329TIP3    H224924   5.167   0.244   6.854 -2.5093  0.9830  0.8152
 8330TIP3   OH224925   4.580   6.481   5.971  0.4310 -0.1175  0.2009
 8330TIP3    H124926   4.538   6.507   5.889  0.7830  0.2597  0.1439
 8330TIP3    H224927   4.602   6.389   5.958  0.6395 -0.0106 -0.1891
 8331TIP3   OH224928   3.577   4.995   5.666 -0.1748 -0.0056  0.1509
 8331TIP3    H124929   3.494   4.977   5.709 -0.2398  3.3278  1.6323
 8331TIP3    H224930   3.552   5.027   5.579 -0.3698 -0.4455  0.0447
 8332TIP3   OH224931   8.460   2.984   0.393 -0.5805  0.0372  0.2539
 8332TIP3    H124932   8.475   2.892   0.372 -1.6708 -0.2362  0.6253
 8332TIP3    H224933   8.479   3.031   0.312  1.1429 -0.3835  0.3909
 8333TIP3   OH224934   3.054   6.353   3.039  0.4496 -0.5443 -0.1331
 8333TIP3    H124935   3.043   6.389   3.127 -0.1915 -1.0505 -0.0068
 8333TIP3    H224936   2.986   6.286   3.031  2.0955 -2.2614 -0.1078
 8334TIP3   OH224937   0.820   6.781   4.048  0.0753 -0.1775 -0.1053
 8334TIP3    H124938   0.775   6.697   4.043  0.7736 -0.5919  0.4720
 8334TIP3    H224939   0.849   6.787   4.139  0.6265  0.3712 -0.3148
 8335TIP3   OH224940   0.871   5.069   1.837 -0.0238  0.2646  0.9554
 8335TIP3    H124941   0.895   4.989   1.789 -1.3655 -0.3644  1.3321
 8335TIP3    H224942   0.808   5.112   1.779  1.3678  1.5112  0.3438
 8336TIP3   OH224943   8.460   2.722   0.331  0.4997  0.1442 -0.7524
 8336TIP3    H124944   8.487   2.631   0.343 -0.8706 -0.0901  0.7726
 8336TIP3    H224945   8.488   2.744   0.242 -0.9323 -2.3880 -1.8689
 8337TIP3   OH224946   4.280   5.743   4.157 -0.3552 -0.2900  0.0091
 8337TIP3    H124947   4.246   5.814   4.103 -0.8955 -1.4517 -1.2015
 8337TIP3    H224948   4.316   5.680   4.095 -2.4614 -2.4220  0.8292
 8338TIP3   OH224949   3.011   5.556   3.258  0.1438  0.3061  0.5683
 8338TIP3    H124950   3.058   5.628   3.302  1.1617  0.7789 -1.2404
 8338TIP3    H224951   2.919   5.582   3.261  0.5511  1.9147 -0.4686
 8339TIP3   OH224952   0.802   7.811   4.529 -0.1440 -0.0068 -0.6412
 8339TIP3    H124953   0.751   7.890   4.546  0.7651 -0.0709  2.8645
 8339TIP3    H224954   0.885   7.843   4.492 -0.5527  0.5076 -1.1152
 8340TIP3   OH224955   1.841   5.175   3.842 -0.2278  0.0723  0.1336
 8340TIP3    H124956   1.904   5.104   3.835 -1.3343 -0.7230 -2.1789
 8340TIP3    H224957   1.791   5.171   3.761 -0.7924  3.0433  0.2695
 8341TIP3   OH224958   2.394   6.763   5.569 -0.2493 -0.0799 -0.6482
 8341TIP3    H124959   2.487   6.743   5.580 -0.4903 -1.1411 -0.5676
 8341TIP3    H224960   2.379   6.755   5.475  0.1167  1.7569 -0.8871
 8342TIP3   OH224961   2.370   7.436   5.337  0.1348 -0.2372 -0.0088
 8342TIP3    H124962   2.456   7.425   5.378  0.3578  1.3177 -0.0366
 8342TIP3    H224963   2.308   7.401   5.402  0.7822 -1.5345 -0.0666
 8343TIP3   OH224964   3.124   6.181   4.395 -0.2322 -0.5471 -0.0123
 8343TIP3    H124965   3.194   6.155   4.335 -0.1220 -1.6972  0.5991
 8343TIP3    H224966   3.048   6.129   4.368 -0.6401  0.1129 -0.1682
 8344TIP3   OH224967   4.024   5.286   1.526  0.1979  0.0054 -0.1312
 8344TIP3    H124968   4.082   5.219   1.492 -1.0778 -2.0648  1.6386
 8344TIP3    H224969   3.988   5.329   1.448  0.6830 -1.6657 -1.3073
 8345TIP3   OH224970   3.387   4.082   6.522 -0.1314  0.0449 -0.5995
 8345TIP3    H124971   3.303   4.125   6.509  0.5605  1.2510 -1.1941
 8345TIP3    H224972   3.416   4.113   6.608  0.4276  0.8810 -1.0850
 8346TIP3   OH224973   4.046   4.334   5.421 -0.6093  0.4298 -0.6170
 8346TIP3    H124974   4.012   4.418   5.452  0.8856  0.4787  0.9509
 8346TIP3    H224975   4.107   4.358   5.351 -0.1768  0.6644 -0.1651
 8347TIP3   OH224976   4.976   0.009   2.592 -0.0623  0.0464 -0.3069
 8347TIP3    H124977   5.065   0.042   2.599  0.1704 -0.4456 -0.9791
 8347TIP3    H224978   4.921   0.081   2.624  0.5510  0.4507 -0.1638
 8348TIP3   OH224979   2.615   0.213   4.273  0.5185  0.6229  0.1900
 8348TIP3    H124980   2.684   0.238   4.335  1.8136 -2.4144  0.0513
 8348TIP3    H224981   2.537   0.201   4.327  0.6269  1.9069  0.6512
 8349TIP3   OH224982   2.579   7.181   6.020 -0.4024 -0.2522  0.2006
 8349TIP3    H124983   2.558   7.148   6.107  0.1734  0.0874  0.4724
 8349TIP3    H224984   2.513   7.143   5.963 -0.2449 -1.2026  0.6427
 8350TIP3   OH224985   3.347   7.690   4.661 -0.0302  0.5493  0.9756
 8350TIP3    H124986   3.289   7.748   4.611  0.0708  1.3570  1.7734
 8350TIP3    H224987   3.416   7.666   4.600 -0.1416  1.1763  0.6013
 8351TIP3   OH224988   1.452   4.686   3.468 -0.1325  0.2045  0.2792
 8351TIP3    H124989   1.513   4.613   3.460 -1.4832 -0.8177 -0.7813
 8351TIP3    H224990   1.434   4.712   3.378 -1.8199  0.0390  0.5603
 8352TIP3   OH224991   3.641   7.080   5.420  0.0961 -0.4554  0.1684
 8352TIP3    H124992   3.695   7.111   5.348  0.5180  1.1392  1.1417
 8352TIP3    H224993   3.699   7.081   5.496 -0.6540 -1.0304  0.7669
 8353TIP3   OH224994   4.009   5.786   5.589  0.1707 -0.3079  0.4601
 8353TIP3    H124995   3.952   5.836   5.647  0.9070  1.0650  0.0138
 8353TIP3    H224996   4.031   5.847   5.519  0.6706 -1.4233 -0.3636
 8354TIP3   OH224997   2.050   5.723   5.556  0.2752 -0.2581  0.0862
 8354TIP3    H124998   2.044   5.630   5.536 -0.2315 -0.6586  2.0030
 8354TIP3    H224999   2.028   5.729   5.649 -0.6890  1.8851 -0.2433
 8355TIP3   OH225000   3.463   7.289   5.733  0.4460 -0.5692 -0.9978
 8355TIP3    H125001   3.428   7.317   5.648 -0.0996  1.0041 -0.2811
 8355TIP3    H225002   3.385   7.276   5.788  0.8869  1.4021  0.1439
 8356TIP3   OH225003   3.468   4.600   6.275  0.7446  0.2738  0.4801
 8356TIP3    H125004   3.557   4.635   6.280  0.9264 -0.1900  0.4875
 8356TIP3    H225005   3.479   4.506   6.263  0.2562  0.1226  1.1560
 8357TIP3   OH225006   1.790   5.805   4.013 -0.5302 -0.5542  0.8025
 8357TIP3    H125007   1.777   5.897   3.991  0.2349 -0.6329 -0.0195
 8357TIP3    H225008   1.875   5.802   4.057  1.0030 -1.2694 -2.0229
 8358TIP3   OH225009   1.412   5.412   3.650  1.2202 -0.8253 -0.2822
 8358TIP3    H125010   1.371   5.472   3.712 -0.2087 -0.5667 -1.4422
 8358TIP3    H225011   1.456   5.469   3.587  0.4102 -0.9996 -1.0164
 8359TIP3   OH225012   1.445   4.500   2.911  0.0165  0.2721  0.5231
 8359TIP3    H125013   1.483   4.480   2.825 -0.9941  2.2729 -0.3991
 8359TIP3    H225014   1.504   4.456   2.973  2.8601  1.7791 -0.9776
 8360TIP3   OH225015   1.906   6.509   4.892  0.1367 -0.5121  0.4329
 8360TIP3    H125016   1.990   6.468   4.909  0.2449 -0.2908  0.4381
 8360TIP3    H225017   1.921   6.602   4.910 -0.0648 -0.4495  0.2731
 8361TIP3   OH225018   4.196   7.770   3.225 -0.5590 -0.4379 -0.5541
 8361TIP3    H125019   4.103   7.746   3.236 -0.3112 -1.5697 -0.7984
 8361TIP3    H225020   4.197   7.825   3.148 -0.8609 -1.5864 -1.3999
 8362TIP3   OH225021   8.166   6.206   2.835 -0.1450 -0.4675  0.4015
 8362TIP3    H125022   8.082   6.195   2.881 -1.0827  0.5771 -1.0119
 8362TIP3    H225023   8.201   6.288   2.868  0.2697 -0.8360  0.8902
 8363TIP3   OH225024   0.710   5.001   5.176 -0.0934  0.5021 -0.0029
 8363TIP3    H125025   0.794   4.958   5.189  0.5389  1.0306 -2.1619
 8363TIP3    H225026   0.690   4.988   5.084 -2.4500  0.2855  0.5155
 8364TIP3   OH225027   2.267   3.876   5.486  0.3377  0.0403  0.6786
 8364TIP3    H125028   2.362   3.876   5.479  0.2560 -0.1543 -0.5054
 8364TIP3    H225029   2.244   3.965   5.514  0.8862 -0.0405  1.4007
 8365TIP3   OH225030   8.485   7.711   3.312 -0.3945 -0.7378  0.2161
 8365TIP3    H125031   8.446   7.689   3.227  0.2861  0.0796 -0.3204
 8365TIP3    H225032   8.563   7.656   3.317 -0.9769 -1.5260  0.7724
 8366TIP3   OH225033   2.720   7.703   3.460  0.2457  0.5219  0.0323
 8366TIP3    H125034   2.634   7.664   3.446  0.3966  0.4627 -0.8086
 8366TIP3    H225035   2.702   7.794   3.483 -0.0207  0.7799 -1.1664
 8367TIP3   OH225036   0.942   4.047   6.615  0.1193 -0.2721 -0.5621
 8367TIP3    H125037   1.013   4.019   6.673  2.1800  0.4975 -2.6573
 8367TIP3    H225038   0.963   4.008   6.530 -0.9623  1.4618 -1.6638
 8368TIP3   OH225039   1.733   7.561   0.430  0.0303 -0.2928 -0.0908
 8368TIP3    H125040   1.698   7.643   0.466  2.5879  0.8050  0.0342
 8368TIP3    H225041   1.785   7.589   0.354  1.8727 -1.6726  0.6240
 8369TIP3   OH225042   8.413   5.525   1.840  0.2134  0.3186 -0.6377
 8369TIP3    H125043   8.482   5.459   1.839  0.6114  0.7218 -0.2132
 8369TIP3    H225044   8.406   5.554   1.749  1.0700  0.7515 -0.5719
 8370TIP3   OH225045   4.224   6.733   4.774  0.0838 -0.0367 -0.7018
 8370TIP3    H125046   4.199   6.795   4.706 -1.0959  1.6287  1.1970
 8370TIP3    H225047   4.299   6.774   4.818 -1.2127  0.4603  1.0824
 8371TIP3   OH225048   1.425   6.028   3.870  0.4150  0.4080 -1.1933
 8371TIP3    H125049   1.404   6.110   3.826 -0.2236 -0.2043 -2.0584
 8371TIP3    H225050   1.403   5.960   3.806  1.6489 -0.4116 -0.7837
 8372TIP3   OH225051   4.739   5.642   2.655 -0.3851  0.1862 -0.4002
 8372TIP3    H125052   4.706   5.570   2.708 -0.4015 -0.2590 -1.0153
 8372TIP3    H225053   4.814   5.676   2.704 -1.4494  0.9105  0.7778
 8373TIP3   OH225054   5.059   6.781   2.645  0.0694  0.1081  0.3413
 8373TIP3    H125055   5.047   6.739   2.560  0.3184  1.3754 -0.3420
 8373TIP3    H225056   4.983   6.754   2.697 -0.4408 -0.1188 -0.5198
 8374TIP3   OH225057   3.242   6.706   1.568  0.1439  0.1945  0.3229
 8374TIP3    H125058   3.201   6.620   1.585 -2.3416  1.2606 -0.0021
 8374TIP3    H225059   3.325   6.684   1.526 -0.6943 -2.0728 -0.2692
 8375TIP3   OH225060   5.505   7.029   3.648 -0.3649  0.1675 -0.7960
 8375TIP3    H125061   5.560   7.038   3.571  0.0095  1.9028 -0.3282
 8375TIP3    H225062   5.563   6.991   3.714  0.3057  2.0412 -0.2872
 8376TIP3   OH225063   8.413   0.953   1.461  0.2395 -0.5323 -0.5448
 8376TIP3    H125064   8.490   1.000   1.430 -0.1055 -0.2065 -0.9308
 8376TIP3    H225065   8.442   0.907   1.540  0.7696 -0.2407 -0.5678
 8377TIP3   OH225066   2.158   6.079   5.119 -0.3249  0.2137 -0.1575
 8377TIP3    H125067   2.161   6.044   5.207 -0.3945  0.0421 -0.2227
 8377TIP3    H225068   2.246   6.066   5.084 -0.2407  0.4672 -0.0430
 8378TIP3   OH225069   2.372   6.061   3.866  0.2473 -0.2766  0.5685
 8378TIP3    H125070   2.410   6.052   3.953 -0.4828  2.2890  1.1960
 8378TIP3    H225071   2.406   5.987   3.817  2.7461 -0.3316  2.3041
 8379TIP3   OH225072   2.845   4.723   4.533  0.8615  0.4893  0.1524
 8379TIP3    H125073   2.827   4.671   4.611  0.5993  1.9334  1.0669
 8379TIP3    H225074   2.922   4.682   4.494 -2.3289 -3.8327 -2.0578
 8380TIP3   OH225075   3.228   6.740   3.493  0.4371  0.2934 -0.1277
 8380TIP3    H125076   3.160   6.773   3.552 -1.0684  1.1555 -2.2607
 8380TIP3    H225077   3.188   6.662   3.453  0.6489  0.8774 -1.4920
 8381TIP3   OH225078   8.512   1.275   0.056  0.1020 -0.4744 -0.4722
 8381TIP3    H125079   8.500   1.191   0.011 -0.9664 -0.2984 -0.5315
 8381TIP3    H225080   8.481   1.341  -0.005  1.1694  0.0007 -0.5200
 8382TIP3   OH225081   5.139   3.784   2.808 -0.0706 -0.0718 -0.0994
 8382TIP3    H125082   5.157   3.690   2.819 -0.6849 -0.2212 -0.3510
 8382TIP3    H225083   5.165   3.802   2.718  1.2217  0.2775  0.3368
 8383TIP3   OH225084   1.444   3.816   3.675  0.2773  0.1117  0.3643
 8383TIP3    H125085   1.404   3.824   3.761  1.5979  0.7324  0.9387
 8383TIP3    H225086   1.484   3.729   3.675 -2.4096 -1.1908 -0.8203
 8384TIP3   OH225087   2.429   4.438   4.342  0.4110 -0.3573  0.0560
 8384TIP3    H125088   2.442   4.463   4.250 -0.5283 -1.0625 -0.2713
 8384TIP3    H225089   2.516   4.410   4.372  0.8352  0.3964 -0.4538
 8385TIP3   OH225090   4.106   7.533   5.791  0.1373  0.3645 -0.1056
 8385TIP3    H125091   4.019   7.518   5.828  0.7309  0.2623  1.2711
 8385TIP3    H225092   4.160   7.463   5.828  0.9944  0.9284 -0.2820
 8386TIP3   OH225093   3.704   4.984   4.187 -0.5813  0.1061 -0.2993
 8386TIP3    H125094   3.625   4.944   4.224 -0.4595 -0.2975 -0.4767
 8386TIP3    H225095   3.736   4.920   4.124  0.8034 -0.4216  0.9314
 8387TIP3   OH225096   4.857   4.781   5.431 -0.5221  0.7431  0.5564
 8387TIP3    H125097   4.919   4.746   5.367 -1.2470  2.0239 -0.8820
 8387TIP3    H225098   4.912   4.811   5.504  0.3694 -0.0088  0.2065
 8388TIP3   OH225099   4.506   6.622   4.996  0.2396  0.2656 -0.6864
 8388TIP3    H125100   4.545   6.585   4.916 -1.2340 -1.7383 -0.5194
 8388TIP3    H225101   4.423   6.660   4.967 -0.2291 -0.3349 -0.1605
 8389TIP3   OH225102   2.851   6.339   1.234  0.5783  0.0936  0.0652
 8389TIP3    H125103   2.831   6.394   1.310  0.2444 -2.6286  2.0634
 8389TIP3    H225104   2.946   6.332   1.234  0.4918 -1.4177  1.4219
 8390TIP3   OH225105   1.722   5.820   4.939 -1.2893  0.7258  0.2276
 8390TIP3    H125106   1.720   5.766   4.860  0.2251 -0.2011  0.7959
 8390TIP3    H225107   1.687   5.763   5.007  1.1937  0.0680  1.0245
 8391TIP3   OH225108   5.976   7.867   2.466  0.1801  0.5219  0.0769
 8391TIP3    H125109   6.054   7.840   2.418  0.2311  0.5480  0.1449
 8391TIP3    H225110   5.980   7.818   2.548  0.6559  1.2750  0.5115
 8392TIP3   OH225111   3.717   4.901   4.941 -0.2902 -0.0344 -0.1858
 8392TIP3    H125112   3.675   4.819   4.916 -0.4712 -0.0708  0.2322
 8392TIP3    H225113   3.784   4.915   4.875 -0.3125 -0.4801 -0.3028
 8393TIP3   OH225114   4.889   6.134   2.987  0.1558  0.0730  0.3084
 8393TIP3    H125115   4.822   6.192   2.949  0.0225 -1.1431 -1.3745
 8393TIP3    H225116   4.846   6.049   2.995  1.4626 -0.7125 -0.7232
 8394TIP3   OH225117   6.895   0.471   4.437  0.4309 -0.2169  0.5612
 8394TIP3    H125118   6.806   0.437   4.440  1.0817 -1.8872  1.0875
 8394TIP3    H225119   6.919   0.467   4.344  0.4465 -1.0761  0.5979
 8395TIP3   OH225120   3.060   6.884   3.650  0.4199 -0.1859 -0.3184
 8395TIP3    H125121   3.091   6.943   3.582  1.0624 -0.7599 -0.5317
 8395TIP3    H225122   3.022   6.942   3.716  0.3017  0.4105 -0.8975
 8396TIP3   OH225123   3.623   5.276   4.142  0.7996  0.0117 -0.1495
 8396TIP3    H125124   3.661   5.188   4.141  0.5123 -0.1097 -1.3061
 8396TIP3    H225125   3.564   5.277   4.066  1.7398  1.6200 -0.8648
 8397TIP3   OH225126   3.645   4.348   1.464  0.0570 -0.1900 -0.2349
 8397TIP3    H125127   3.615   4.403   1.536  0.6224 -0.9383  0.5779
 8397TIP3    H225128   3.740   4.361   1.462  0.1145 -0.6391 -0.4604
 8398TIP3   OH225129   5.205   6.680   3.179  0.2712  0.2198  0.1690
 8398TIP3    H125130   5.180   6.710   3.266 -1.6630  0.5808 -0.4876
 8398TIP3    H225131   5.163   6.594   3.170 -0.5289  0.6937 -0.8287
 8399TIP3   OH225132   4.445   5.167   3.184  0.0639  0.2670 -0.1041
 8399TIP3    H125133   4.425   5.242   3.241  0.3559  0.2735 -0.0049
 8399TIP3    H225134   4.528   5.192   3.142  1.1515 -0.8037  1.3513
 8400TIP3   OH225135   3.881   5.103   5.554  0.1967  0.4225 -0.5327
 8400TIP3    H125136   3.790   5.119   5.531  0.1455  0.0919 -0.5631
 8400TIP3    H225137   3.898   5.014   5.525 -0.9299 -1.3817  3.8496
 8401TIP3   OH225138   3.406   5.240   2.448  0.3890  0.2863 -0.6658
 8401TIP3    H125139   3.372   5.301   2.513  1.6832 -0.2773  0.5780
 8401TIP3    H225140   3.391   5.283   2.364 -0.3077  1.5145  0.0681
 8402TIP3   OH225141   1.833   3.565   2.541  0.1397  0.6634 -0.0152
 8402TIP3    H125142   1.789   3.628   2.598  1.5586  0.5465  1.2621
 8402TIP3    H225143   1.764   3.531   2.484 -1.3301  0.7564  1.6656
 8403TIP3   OH225144   4.216   7.105   4.454 -0.2045 -0.2256 -0.5517
 8403TIP3    H125145   4.139   7.048   4.444 -0.5222  0.0263  0.3187
 8403TIP3    H225146   4.183   7.179   4.505  0.5912 -0.0589 -0.2718
 8404TIP3   OH225147   4.429   4.613   2.835  0.1276  0.0070  0.2538
 8404TIP3    H125148   4.520   4.640   2.824  0.0472 -0.5113 -1.9054
 8404TIP3    H225149   4.390   4.680   2.891  1.6280  0.6275  0.5763
 8405TIP3   OH225150   3.102   5.442   4.698 -0.5205 -0.3492  0.0697
 8405TIP3    H125151   3.181   5.408   4.740 -0.3508  0.3468  0.3266
 8405TIP3    H225152   3.049   5.477   4.770 -1.3822 -1.4394 -0.0265
 8406TIP3   OH225153   3.545   5.731   3.253  0.1256  0.1256 -0.0742
 8406TIP3    H125154   3.482   5.803   3.247  1.2900  1.1170 -0.6924
 8406TIP3    H225155   3.598   5.751   3.329  1.3804  0.6947 -1.0824
 8407TIP3   OH225156   0.161   6.918   0.734  0.0490  0.5477 -0.1631
 8407TIP3    H125157   0.165   6.890   0.825  0.2195  1.8025  0.2240
 8407TIP3    H225158   0.071   6.902   0.707  0.1275 -0.3009  0.0686
 8408TIP3   OH225159   5.042   3.867   4.507 -0.2220  0.5689 -0.0101
 8408TIP3    H125160   5.034   3.805   4.435  0.5652 -0.2045  0.5482
 8408TIP3    H225161   5.073   3.947   4.466  0.6364  0.0081 -0.4881
 8409TIP3   OH225162   4.014   6.326   4.396  0.0661 -0.2924 -0.6666
 8409TIP3    H125163   3.953   6.387   4.354  0.3586 -0.3123 -1.1185
 8409TIP3    H225164   4.097   6.374   4.401 -0.1199 -0.0672  0.4393
 8410TIP3   OH225165   4.154   7.329   3.332 -0.3612 -0.2434  0.2879
 8410TIP3    H125166   4.127   7.332   3.240 -0.5452 -0.3011  0.3404
 8410TIP3    H225167   4.137   7.239   3.359 -1.6181  0.1347  0.7777
 8411TIP3   OH225168   3.936   5.204   3.581  0.2356  0.0076  0.0678
 8411TIP3    H125169   3.855   5.194   3.531  0.5779  1.1689 -0.7460
 8411TIP3    H225170   3.938   5.297   3.605  0.8105 -0.2350  0.9648
 8412TIP3   OH225171   5.211   6.941   4.916 -0.3911  0.0200  0.6928
 8412TIP3    H125172   5.168   7.014   4.870  1.9201  0.0541 -1.5151
 8412TIP3    H225173   5.275   6.983   4.973  1.3938 -0.2452 -1.0548
 8413TIP3   OH225174   4.492   7.005   1.736  0.8385  0.2311 -0.2988
 8413TIP3    H125175   4.537   6.955   1.804  2.4536  0.6100 -1.0615
 8413TIP3    H225176   4.495   6.948   1.659 -1.2578 -0.3290  0.0045
 8414TIP3   OH225177   3.657   5.841   3.503  0.0237  0.6301 -0.5143
 8414TIP3    H125178   3.697   5.908   3.447  0.5542 -0.2208 -1.1528
 8414TIP3    H225179   3.586   5.888   3.548 -0.1817  1.4094 -1.6185
 8415TIP3   OH225180   3.290   5.025   2.883 -0.5946 -0.5026 -0.0416
 8415TIP3    H125181   3.236   5.095   2.847 -0.2412  0.8770  2.0241
 8415TIP3    H225182   3.369   5.025   2.829 -0.9747  0.0930 -0.6092
 8416TIP3   OH225183   3.780   5.743   5.001  0.0568 -0.3921  0.2592
 8416TIP3    H125184   3.821   5.720   5.084 -0.1057 -0.4453  0.3259
 8416TIP3    H225185   3.759   5.659   4.960  0.6035 -0.3654 -0.0687
 8417TIP3   OH225186   4.928   5.385   4.219 -0.2362  0.0374  0.3766
 8417TIP3    H125187   4.889   5.300   4.201 -0.3756 -0.5324  3.0948
 8417TIP3    H225188   4.997   5.395   4.154  0.1086 -2.3725  0.3465
 8418TIP3   OH225189   4.609   5.407   4.437  0.1549 -0.4469  0.3485
 8418TIP3    H125190   4.602   5.465   4.361  1.2098  1.5287  1.7253
 8418TIP3    H225191   4.552   5.446   4.503  0.1555 -1.4946  0.9788
 8419TIP3   OH225192   3.647   4.279   5.518 -0.1178 -0.2963 -0.1800
 8419TIP3    H125193   3.570   4.335   5.531  0.5422  0.8129 -0.9903
 8419TIP3    H225194   3.663   4.282   5.424 -0.8193 -2.8735 -0.4285
 8420TIP3   OH225195   1.683   2.308   0.190 -0.0826 -0.5642 -0.4528
 8420TIP3    H125196   1.663   2.400   0.174  0.5019 -0.5910 -1.4558
 8420TIP3    H225197   1.660   2.264   0.108  0.8408 -1.1038 -0.4356
 8421TIP3   OH225198   5.322   6.143   4.212 -0.2341 -0.1624  0.4311
 8421TIP3    H125199   5.331   6.158   4.118  1.7549  0.1403  0.6526
 8421TIP3    H225200   5.229   6.125   4.225 -0.5012 -0.3093 -1.6059
 8422TIP3   OH225201   2.946   6.512   3.493  0.0973 -0.2032  0.1450
 8422TIP3    H125202   2.888   6.588   3.502  1.0209  0.3629  1.6550
 8422TIP3    H225203   2.993   6.526   3.411 -1.5227 -0.4105 -0.8273
 8423TIP3   OH225204   2.238   5.797   3.387  0.6595  0.4824  0.0982
 8423TIP3    H125205   2.213   5.779   3.296 -0.2252 -1.1325  0.6445
 8423TIP3    H225206   2.267   5.712   3.421 -0.8732  0.6525  1.9050
 8424TIP3   OH225207   3.826   5.680   1.967  0.5790  0.3838 -0.2564
 8424TIP3    H125208   3.804   5.748   1.903 -2.0357 -1.0384 -0.9317
 8424TIP3    H225209   3.910   5.709   2.004 -0.0602  3.5442 -1.0834
 8425TIP3   OH225210   4.061   5.762   2.914 -0.0507 -0.4668 -0.6356
 8425TIP3    H125211   4.110   5.828   2.963  1.0844 -1.1440 -0.8452
 8425TIP3    H225212   4.037   5.696   2.980 -1.3260  0.2315 -0.3955
 8426TIP3   OH225213   7.609   6.246   4.002 -0.2530  0.2491 -0.0985
 8426TIP3    H125214   7.574   6.193   3.929  1.0774  0.0160 -0.5953
 8426TIP3    H225215   7.580   6.335   3.983  0.4714  0.2686 -1.1865
 8427TIP3   OH225216   5.344   6.764   4.731 -0.5099 -0.1108 -0.0590
 8427TIP3    H125217   5.313   6.805   4.812  0.9245  1.7752 -0.4356
 8427TIP3    H225218   5.296   6.809   4.662  0.2334  0.1438 -0.4100
 8428TIP3   OH225219   4.782   4.352   5.220  0.0684 -0.0270  0.1541
 8428TIP3    H125220   4.832   4.418   5.172 -0.7506 -0.8272 -1.8758
 8428TIP3    H225221   4.723   4.402   5.276  0.0909  0.9635 -0.6887
 8429TIP3   OH225222   4.344   4.989   3.861  0.1944 -0.0264  0.0317
 8429TIP3    H125223   4.298   4.910   3.889  0.7893  0.0800  1.2917
 8429TIP3    H225224   4.429   4.958   3.831  1.3919  0.3970  2.8732
 8430TIP3   OH225225   4.185   6.464   2.898  0.3986 -0.0051  0.1266
 8430TIP3    H125226   4.221   6.443   2.984 -0.2865  0.6594  0.5808
 8430TIP3    H225227   4.201   6.558   2.887  1.1727 -0.2341 -0.8054
 8431TIP3   OH225228   4.549   4.353   1.348 -0.5669 -0.0455 -0.2080
 8431TIP3    H125229   4.509   4.393   1.425  1.7270  1.6991  0.1485
 8431TIP3    H225230   4.618   4.297   1.383  0.5829  0.8636 -0.9757
 8432TIP3   OH225231   4.391   7.578   3.200 -0.4596  0.2759  0.4528
 8432TIP3    H125232   4.343   7.660   3.209 -1.6402 -0.3662  0.0419
 8432TIP3    H225233   4.337   7.523   3.143  0.3691 -0.7526  0.6230
 8433TIP3   OH225234   3.946   5.802   4.263 -0.5068 -0.4182  0.2011
 8433TIP3    H125235   4.011   5.735   4.284 -0.5683 -0.0905  1.4880
 8433TIP3    H225236   3.993   5.884   4.269 -1.0929 -0.1575  1.4260
 8434TIP3   OH225237   3.239   4.387   4.198  0.1374 -0.2910 -0.3002
 8434TIP3    H125238   3.268   4.338   4.120 -0.9100 -0.5419 -0.5467
 8434TIP3    H225239   3.155   4.425   4.172 -0.2287 -0.3920  0.7128
 8435TIP3   OH225240   3.876   5.185   6.404  0.2013 -0.6230 -0.3529
 8435TIP3    H125241   3.797   5.142   6.437  0.5674  0.5128  2.0705
 8435TIP3    H225242   3.847   5.228   6.323 -1.6558 -0.2146  0.4979
 8436TIP3   OH225243   2.782   7.465   4.135 -0.2729  0.5938 -0.1593
 8436TIP3    H125244   2.698   7.459   4.179  0.6571 -0.6343  1.4923
 8436TIP3    H225245   2.781   7.396   4.070 -0.6530  0.7730 -0.3434
 8437TIP3   OH225246   4.877   6.821   4.236  0.8060  0.1358  0.0466
 8437TIP3    H125247   4.857   6.772   4.157 -1.1314  0.2478  0.4394
 8437TIP3    H225248   4.941   6.887   4.209  2.0321 -1.4066 -0.8670
 8438TIP3   OH225249   2.389   4.329   3.729 -0.5577 -0.0749  0.2307
 8438TIP3    H125250   2.299   4.316   3.759 -0.6560  0.7610  0.3044
 8438TIP3    H225251   2.410   4.249   3.681 -0.9716 -0.7252  1.1222
 8439TIP3   OH225252   2.105   4.865   2.959 -0.1690 -0.4864  0.4543
 8439TIP3    H125253   2.132   4.804   2.890  1.5938  1.4358 -0.6289
 8439TIP3    H225254   2.133   4.823   3.041  0.6841 -1.3117 -0.2489
 8440TIP3   OH225255   4.452   5.524   3.123 -0.3447 -0.4794  0.3769
 8440TIP3    H125256   4.437   5.579   3.047  0.1866 -1.1833 -0.2424
 8440TIP3    H225257   4.383   5.457   3.118  0.9451 -1.7444 -0.6304
 8441TIP3   OH225258   3.043   5.128   4.615 -0.1983 -0.1293  0.2821
 8441TIP3    H125259   3.058   5.220   4.635  1.3135  0.3836 -2.8505
 8441TIP3    H225260   2.949   5.115   4.628 -0.4868  1.9673  0.3713
 8442TIP3   OH225261   2.808   4.900   4.046  0.0824  0.0356 -0.1039
 8442TIP3    H125262   2.857   4.827   4.006 -0.0346 -0.3125  0.3785
 8442TIP3    H225263   2.770   4.946   3.972 -0.5508 -0.9045 -0.3752
 8443TIP3   OH225264   1.451   6.634   3.190  0.3646 -0.2640 -0.0973
 8443TIP3    H125265   1.358   6.659   3.189 -0.0113 -1.5000  2.0041
 8443TIP3    H225266   1.454   6.553   3.140 -0.1512 -1.6919  2.1469
 8444TIP3   OH225267   2.667   4.680   2.241  0.0376 -0.3609 -0.4201
 8444TIP3    H125268   2.735   4.626   2.282 -0.5621 -1.0064 -0.2635
 8444TIP3    H225269   2.700   4.697   2.153  1.0854  0.5781  0.1402
 8445TIP3   OH225270   5.539   4.533   5.588 -0.4206  0.0941 -0.0957
 8445TIP3    H125271   5.503   4.480   5.517  0.1537  0.9776 -1.0617
 8445TIP3    H225272   5.613   4.482   5.621 -0.6917 -0.3211 -0.1346
 8446TIP3   OH225273   3.257   5.764   3.730 -0.4440  0.3045 -0.5097
 8446TIP3    H125274   3.258   5.672   3.705 -0.6129 -0.5033  2.3030
 8446TIP3    H225275   3.350   5.788   3.734 -0.3896  0.1602 -0.8349
 8447TIP3   OH225276   5.267   7.467   4.592 -0.4636 -0.0805  0.1866
 8447TIP3    H125277   5.262   7.519   4.672  1.5387 -1.4286  1.2217
 8447TIP3    H225278   5.222   7.385   4.614 -0.1113 -0.3626 -0.1461
 8448TIP3   OH225279   1.403   5.531   2.648 -0.1111 -0.1418 -0.0223
 8448TIP3    H125280   1.329   5.503   2.702 -0.6954  1.7545  0.2104
 8448TIP3    H225281   1.430   5.452   2.601 -0.0908 -1.6439  2.4303
 8449TIP3   OH225282   4.268   4.544   2.032 -0.8326 -0.4063  0.0329
 8449TIP3    H125283   4.260   4.631   1.994  0.6397 -0.7848 -1.2011
 8449TIP3    H225284   4.269   4.558   2.126 -1.0618  0.8760 -0.1572
 8450TIP3   OH225285   4.128   6.300   3.788 -0.8463 -0.1937  0.3023
 8450TIP3    H125286   4.125   6.235   3.717 -0.0084  0.0777  0.0070
 8450TIP3    H225287   4.065   6.367   3.762 -0.8648 -0.3148  0.0295
 8451TIP3   OH225288   3.214   7.425   5.172 -0.9168 -0.1337 -0.4293
 8451TIP3    H125289   3.196   7.360   5.240  0.1961 -0.4346 -0.4062
 8451TIP3    H225290   3.159   7.400   5.098  2.2150 -3.3590 -1.8182
 8452TIP3   OH225291   3.476   5.911   1.887 -0.0011  0.0519  0.1762
 8452TIP3    H125292   3.394   5.887   1.844  0.3641  0.1818 -0.5823
 8452TIP3    H225293   3.480   6.007   1.879  0.4004  0.0116 -0.0995
 8453TIP3   OH225294   4.343   5.219   6.517  0.3647  0.3011 -0.2550
 8453TIP3    H125295   4.295   5.184   6.442 -0.3031  0.2353  0.1908
 8453TIP3    H225296   4.310   5.169   6.592  0.0797  1.2425  0.2607
 8454TIP3   OH225297   3.846   5.886   3.813 -0.1160 -0.3642  0.0093
 8454TIP3    H125298   3.810   5.957   3.759  0.0782 -1.0139 -0.9862
 8454TIP3    H225299   3.792   5.810   3.791  0.1982 -0.7232  0.4682
 8455TIP3   OH225300   3.631   5.193   5.485  0.0230 -0.5032 -0.2177
 8455TIP3    H125301   3.539   5.185   5.458  0.4875  1.5183 -2.5357
 8455TIP3    H225302   3.649   5.287   5.483  1.8902 -0.7884  1.2065
 8456TIP3   OH225303   4.814   5.085   2.786  0.4417  0.5689 -0.0321
 8456TIP3    H125304   4.759   5.046   2.717  1.5161 -0.5592 -0.2587
 8456TIP3    H225305   4.887   5.124   2.739  1.0332  0.0400  0.4514
 8457TIP3   OH225306   4.698   6.065   3.424  0.0645 -0.4145 -0.1030
 8457TIP3    H125307   4.779   6.059   3.474 -0.2652 -0.8025  0.3819
 8457TIP3    H225308   4.656   6.145   3.456  0.4443  0.0130 -0.6454
 8458TIP3   OH225309   2.921   4.807   2.906  0.1603 -0.2194 -0.0269
 8458TIP3    H125310   3.000   4.768   2.867 -0.3940 -0.9542 -0.4282
 8458TIP3    H225311   2.869   4.836   2.831  1.0256  2.2715  0.2807
 8459TIP3   OH225312   3.914   5.452   5.868 -0.5823 -0.7573 -0.4001
 8459TIP3    H125313   3.971   5.410   5.804 -1.0785  0.5735 -1.7464
 8459TIP3    H225314   3.829   5.408   5.857 -0.7596 -0.2950 -0.9116
 8460TIP3   OH225315   2.907   6.341   3.706 -0.2815  0.0003 -0.0201
 8460TIP3    H125316   2.919   6.396   3.629 -0.3677 -0.8745 -0.6572
 8460TIP3    H225317   2.946   6.392   3.778  0.5736  0.4348 -0.7824
 8461TIP3   OH225318   6.086   1.278   5.194  0.0808 -0.2967 -0.0172
 8461TIP3    H125319   6.174   1.258   5.162  0.6382 -0.1416  1.3997
 8461TIP3    H225320   6.083   1.240   5.282 -1.2665 -0.2821 -0.0492
 8462TIP3   OH225321   4.661   5.441   2.818  0.2330  0.0512 -0.4002
 8462TIP3    H125322   4.590   5.495   2.853 -1.7977 -2.6986 -0.1107
 8462TIP3    H225323   4.622   5.395   2.744  1.8253 -1.2003 -0.4870
 8463TIP3   OH225324   5.284   5.142   5.456  0.4905  0.1343  0.1021
 8463TIP3    H125325   5.284   5.216   5.394  0.1741 -1.0521 -1.3485
 8463TIP3    H225326   5.356   5.087   5.427 -0.1485 -0.8258  0.3082
 8464TIP3   OH225327   4.736   4.672   4.278 -0.2614 -0.0116  0.0817
 8464TIP3    H125328   4.817   4.627   4.255  0.0794  0.6785 -0.0962
 8464TIP3    H225329   4.684   4.607   4.325 -0.2487 -0.9146 -1.1558
 8465TIP3   OH225330   4.456   5.704   5.632  0.2489 -0.8466 -0.0410
 8465TIP3    H125331   4.544   5.696   5.596  0.2825  0.0466 -0.1592
 8465TIP3    H225332   4.457   5.649   5.710  1.7532  1.2755  1.5019
 8466TIP3   OH225333   4.442   5.998   5.729 -0.4688  0.1076  0.0711
 8466TIP3    H125334   4.476   5.983   5.641  0.2782  2.2103 -0.0261
 8466TIP3    H225335   4.367   5.939   5.737 -0.7197  0.1121 -2.0828
 8467TIP3   OH225336   2.688   5.711   0.811 -0.1565 -0.1106 -0.0965
 8467TIP3    H125337   2.677   5.649   0.883  0.8247  0.2001  0.3224
 8467TIP3    H225338   2.775   5.692   0.776 -0.7801 -0.5224 -1.4574
 8468TIP3   OH225339   6.434   0.218   3.649  0.4067 -0.2111  0.0007
 8468TIP3    H125340   6.462   0.279   3.581  1.1384 -0.7618 -0.1996
 8468TIP3    H225341   6.500   0.227   3.718  0.2868 -0.4683  0.1482
 8469TIP3   OH225342   3.303   7.116   0.190  0.2294 -0.1323  0.3511
 8469TIP3    H125343   3.211   7.122   0.213  0.0684  0.4206 -0.3977
 8469TIP3    H225344   3.350   7.153   0.265 -0.2138  0.4881  0.3300
 8470TIP3   OH225345   1.846   5.199   3.255  0.1616  0.3644 -0.1716
 8470TIP3    H125346   1.903   5.241   3.190  0.4100 -0.4059 -0.4501
 8470TIP3    H225347   1.887   5.220   3.339  0.1835  0.8366 -0.2967
 8471TIP3   OH225348   4.242   5.912   3.895  0.1897  0.0745 -0.5057
 8471TIP3    H125349   4.317   5.970   3.901  0.4792 -0.3648  0.2608
 8471TIP3    H225350   4.168   5.964   3.925  0.5768 -0.1726  0.9221
 8472TIP3   OH225351   4.773   6.018   1.825  0.1572  0.4385  0.4166
 8472TIP3    H125352   4.774   6.011   1.729  1.6236 -0.8252  0.5004
 8472TIP3    H225353   4.818   6.100   1.844  1.2005 -0.0487  0.0700
 8473TIP3   OH225354   4.632   4.679   4.013  0.0504 -0.0576 -0.0988
 8473TIP3    H125355   4.630   4.691   4.108 -1.4767 -1.2168  0.0303
 8473TIP3    H225356   4.705   4.619   3.998 -0.0222 -0.2688  0.3840
 8474TIP3   OH225357   5.225   7.052   2.941  0.7049  0.3656 -0.5499
 8474TIP3    H125358   5.205   7.074   2.850  0.4916 -0.6692 -0.7554
 8474TIP3    H225359   5.149   7.003   2.972  1.4979 -0.7664 -0.3477
 8475TIP3   OH225360   1.110   0.822   1.007  0.1137 -0.4939  0.1961
 8475TIP3    H125361   1.137   0.748   1.062  0.1928 -1.4715 -1.1311
 8475TIP3    H225362   1.175   0.825   0.937 -1.1733 -0.6234 -1.0299
 8476TIP3   OH225363   2.342   6.095   2.739 -0.2910  0.3307 -0.0668
 8476TIP3    H125364   2.283   6.071   2.811  0.5363  1.1033  0.8774
 8476TIP3    H225365   2.426   6.056   2.763 -0.3168 -0.4460 -1.2248
 8477TIP3   OH225366   4.571   6.543   4.749  0.0345 -0.1441 -0.2557
 8477TIP3    H125367   4.608   6.460   4.719  1.2993 -0.2200  1.4522
 8477TIP3    H225368   4.636   6.609   4.724  0.2383  0.0081  0.6487
 8478TIP3   OH225369   3.110   6.808   2.330  0.2061  0.5598  0.2005
 8478TIP3    H125370   3.162   6.878   2.290 -0.3511  0.3849 -0.8455
 8478TIP3    H225371   3.098   6.744   2.260 -1.1154  0.4268  0.5471
 8479TIP3   OH225372   2.618   7.229   3.048 -0.1884 -0.2585 -0.2524
 8479TIP3    H125373   2.567   7.159   3.008 -0.8083 -0.7312  1.3196
 8479TIP3    H225374   2.671   7.185   3.115 -0.3378  0.7241  0.5247
 8480TIP3   OH225375   3.068   7.680   1.652  0.0624 -0.1772 -0.1750
 8480TIP3    H125376   3.023   7.663   1.569  0.4176  0.0260 -0.4104
 8480TIP3    H225377   3.007   7.650   1.719 -1.1979  1.8114 -0.4001
 8481TIP3   OH225378   5.074   3.962   3.832 -0.2356  0.1145 -0.2078
 8481TIP3    H125379   5.015   4.038   3.828 -1.0080 -0.5387 -1.5442
 8481TIP3    H225380   5.116   3.960   3.746 -0.0808 -0.8725 -0.1175
 8482TIP3   OH225381   3.279   5.320   6.743  0.1779  0.3059  0.3833
 8482TIP3    H125382   3.265   5.244   6.686 -2.8549  2.3169 -1.6973
 8482TIP3    H225383   3.228   5.300   6.822 -1.2537  0.5078 -0.4797
 8483TIP3   OH225384   4.623   5.200   1.730 -0.3407  0.2284 -0.1609
 8483TIP3    H125385   4.644   5.132   1.666 -1.5825  0.1904 -0.5307
 8483TIP3    H225386   4.684   5.271   1.710 -0.4341  0.0466 -1.0960
 8484TIP3   OH225387   1.249   4.431   2.545  0.2106  0.5508 -0.2257
 8484TIP3    H125388   1.270   4.431   2.638 -2.8710  0.2195  0.5330
 8484TIP3    H225389   1.253   4.339   2.519 -0.4386  0.4713 -0.0451
 8485TIP3   OH225390   3.976   7.269   3.765  0.5561  0.2685  0.6042
 8485TIP3    H125391   3.978   7.173   3.761  1.4113  0.2974  0.3545
 8485TIP3    H225392   4.000   7.290   3.856 -1.0581  0.2072  1.0607
 8486TIP3   OH225393   4.003   4.486   2.688  0.1742 -0.0257 -0.4164
 8486TIP3    H125394   4.052   4.405   2.701 -1.3503 -0.9274 -0.1023
 8486TIP3    H225395   4.046   4.549   2.746  2.0081 -0.3225 -1.4330
 8487TIP3   OH225396   2.888   5.126   3.338 -1.1436  0.4373  0.3063
 8487TIP3    H125397   2.803   5.139   3.380 -1.2565  3.4775 -0.7629
 8487TIP3    H225398   2.896   5.198   3.275  2.1983  0.1737  0.3151
 8488TIP3   OH225399   5.201   6.260   1.110  0.4978 -0.2533  0.6259
 8488TIP3    H125400   5.187   6.350   1.083  0.6294  0.4406  2.7298
 8488TIP3    H225401   5.128   6.211   1.073 -0.6517  1.0852  1.0857
 8489TIP3   OH225402   4.330   5.198   5.096  0.0018  0.5039 -0.0985
 8489TIP3    H125403   4.323   5.105   5.117 -3.5635  0.7665  0.0896
 8489TIP3    H225404   4.289   5.243   5.169  2.1412  2.3020  0.0543
 8490TIP3   OH225405   3.489   6.320   4.569  0.4975 -0.1900  0.5512
 8490TIP3    H125406   3.511   6.405   4.608  2.0978 -0.9878  1.4118
 8490TIP3    H225407   3.568   6.295   4.521 -0.8729  0.0234 -1.9304
 8491TIP3   OH225408   8.154   7.514   3.212  0.1747  0.2196 -0.1627
 8491TIP3    H125409   8.082   7.454   3.191  1.4939 -0.7092 -2.1533
 8491TIP3    H225410   8.218   7.459   3.257  0.3977  0.6595  0.0584
 8492TIP3   OH225411   1.338   4.966   3.808  0.2708 -0.3504  0.5554
 8492TIP3    H125412   1.397   4.910   3.758  1.0127 -0.3229  1.3835
 8492TIP3    H225413   1.255   4.918   3.810  0.0774 -0.1232 -1.1128
 8493TIP3   OH225414   3.335   6.374   3.582 -0.0483  0.3338 -0.4570
 8493TIP3    H125415   3.261   6.420   3.621  1.5711  1.3025  1.5745
 8493TIP3    H225416   3.362   6.429   3.508 -0.4792  0.6744 -0.3614
 8494TIP3   OH225417   2.055   6.159   3.525  0.0639 -0.6960  0.3107
 8494TIP3    H125418   1.996   6.135   3.454  0.9775  1.0321 -1.0665
 8494TIP3    H225419   2.130   6.100   3.515  0.3078 -0.2786 -0.3102
 8495TIP3   OH225420   0.520   1.590   0.993  0.2660  0.1093  0.2932
 8495TIP3    H125421   0.610   1.573   1.022  0.7020  2.1940  0.2413
 8495TIP3    H225422   0.496   1.672   1.036 -1.1198  0.2743 -0.7657
 8496TIP3   OH225423   5.366   4.033   4.892 -0.1057 -0.1550 -0.0180
 8496TIP3    H125424   5.298   3.994   4.836  0.0322 -1.2481  0.5610
 8496TIP3    H225425   5.334   4.019   4.981  0.3983  0.2352  0.2243
 8497TIP3   OH225426   3.148   4.664   2.877  0.5144  0.2126  0.1142
 8497TIP3    H125427   3.218   4.669   2.813  0.9153  3.0660  0.6914
 8497TIP3    H225428   3.183   4.709   2.954 -0.8222 -1.0766  1.5236
 8498TIP3   OH225429   3.663   4.955   6.819  0.1861 -0.2562 -0.7720
 8498TIP3    H125430   3.595   5.022   6.827 -0.9448 -1.1499 -2.6196
 8498TIP3    H225431   3.629   4.881   6.870 -0.5819 -0.9555 -2.2687
 8499TIP3   OH225432   5.924   1.054   1.969 -0.0492 -0.1506  0.2796
 8499TIP3    H125433   5.992   0.987   1.968  0.5018  0.4072 -0.7260
 8499TIP3    H225434   5.885   1.048   2.057  1.0967 -0.6607  0.7602
 8500TIP3   OH225435   2.502   7.150   4.614  0.1019  0.2334 -0.5211
 8500TIP3    H125436   2.427   7.113   4.660 -0.3631 -0.8903 -2.1157
 8500TIP3    H225437   2.578   7.117   4.661 -0.3414 -1.6388 -1.0312
 8501TIP3   OH225438   4.026   5.806   0.548 -0.0528  0.2592 -0.5253
 8501TIP3    H125439   3.983   5.770   0.470 -1.1679 -0.3652  0.3672
 8501TIP3    H225440   3.975   5.884   0.570 -0.3193 -0.0979  0.1320
 8502TIP3   OH225441   3.645   6.202   5.173  0.2031 -0.3374  0.5952
 8502TIP3    H125442   3.571   6.159   5.215  0.7660 -0.3119  1.6289
 8502TIP3    H225443   3.673   6.141   5.104 -0.7945 -0.3225  0.1662
 8503TIP3   OH225444   3.449   5.989   3.637  0.3502  0.3994  0.0950
 8503TIP3    H125445   3.441   6.041   3.717 -0.4284  0.5220 -0.0611
 8503TIP3    H225446   3.400   6.038   3.571  0.6145  0.0727 -0.3491
 8504TIP3   OH225447   2.857   3.751   4.908  0.2865 -0.0634  0.4078
 8504TIP3    H125448   2.820   3.737   4.995  0.1608 -0.1773  0.3361
 8504TIP3    H225449   2.798   3.705   4.849  0.6955 -0.4960  0.3220
 8505TIP3   OH225450   3.302   4.936   4.243 -0.1336 -0.3203  0.0145
 8505TIP3    H125451   3.378   4.902   4.290  0.1879  2.8291  1.8409
 8505TIP3    H225452   3.227   4.910   4.297 -0.1699 -0.9346 -0.3168
 8506TIP3   OH225453   3.637   5.106   2.458 -0.2781  0.0611 -0.5224
 8506TIP3    H125454   3.713   5.150   2.420  0.9544 -2.0261 -0.5761
 8506TIP3    H225455   3.566   5.169   2.450  1.3323  1.8673 -0.9338
 8507TIP3   OH225456   4.362   4.701   4.029 -0.0485 -0.8318 -0.4054
 8507TIP3    H125457   4.456   4.697   4.010 -0.1992 -1.5483 -1.0235
 8507TIP3    H225458   4.358   4.725   4.122  0.7532 -1.1727 -0.2717
 8508TIP3   OH225459   4.225   5.241   2.665 -0.1065  0.5302 -0.8283
 8508TIP3    H125460   4.171   5.315   2.638 -0.7007  0.2359 -0.4707
 8508TIP3    H225461   4.169   5.164   2.652 -0.3777  0.3739  1.0945
 8509TIP3   OH225462   5.515   5.579   2.111 -0.1033  0.0609  0.0608
 8509TIP3    H125463   5.465   5.659   2.130  0.1624  0.1668  0.3241
 8509TIP3    H225464   5.489   5.518   2.180 -0.9473 -0.3670 -0.6364
 8510TIP3   OH225465   3.820   6.461   2.658 -0.3571  0.4183  0.2539
 8510TIP3    H125466   3.915   6.458   2.642  0.1223 -1.8039  3.1029
 8510TIP3    H225467   3.809   6.528   2.726 -0.8018  0.4863  0.1161
 8511TIP3   OH225468   3.884   6.368   3.935 -0.0350  0.9031 -0.0542
 8511TIP3    H125469   3.885   6.275   3.959  0.1906  0.8438 -0.2877
 8511TIP3    H225470   3.875   6.367   3.839  2.4516  1.0726 -0.3178
 8512TIP3   OH225471   3.380   3.596   6.161  0.2660 -0.2968  0.1223
 8512TIP3    H125472   3.303   3.572   6.213  0.1970 -0.5611 -0.1041
 8512TIP3    H225473   3.382   3.691   6.164 -0.9426 -0.2200 -1.1342
 8513TIP3   OH225474   3.621   6.857   4.179 -0.0001  0.1887  0.0819
 8513TIP3    H125475   3.673   6.855   4.259 -1.4024  0.0428  1.0121
 8513TIP3    H225476   3.624   6.948   4.151  1.5982 -0.0099 -0.4529
 8514TIP3   OH225477   3.477   5.701   3.001 -0.6315 -0.2642 -0.3833
 8514TIP3    H125478   3.386   5.670   3.001  0.0643 -2.4002  0.4846
 8514TIP3    H225479   3.505   5.695   3.092  1.0874 -1.8932 -0.9780
 8515TIP3   OH225480   4.387   5.532   4.561  0.5629  0.5200  0.0031
 8515TIP3    H125481   4.323   5.585   4.513  2.5179  1.9161 -1.1119
 8515TIP3    H225482   4.440   5.595   4.609  2.8714 -0.3829 -1.2753
 8516TIP3   OH225483   4.627   6.380   4.003  0.1749  0.2412  0.3665
 8516TIP3    H125484   4.572   6.315   3.959  0.3193 -1.4438  2.5806
 8516TIP3    H225485   4.576   6.407   4.080  0.4626  2.1877 -0.0858
 8517TIP3   OH225486   3.474   5.743   4.835  0.7042  0.1438  0.7283
 8517TIP3    H125487   3.518   5.795   4.767 -0.3387 -1.1801 -0.9962
 8517TIP3    H225488   3.514   5.657   4.828  1.2207  0.2265  2.4345
 8518TIP3   OH225489   2.007   4.727   6.460  0.2244 -0.5499 -0.2113
 8518TIP3    H125490   2.007   4.811   6.505 -2.9763 -1.1138  0.9884
 8518TIP3    H225491   2.066   4.739   6.386  0.8689  2.3024  0.7100
 8519TIP3   OH225492   5.228   4.900   6.730  0.4184  0.1021  0.1799
 8519TIP3    H125493   5.189   4.930   6.647 -0.1570  0.2847  0.5138
 8519TIP3    H225494   5.153   4.884   6.787  0.8811  2.1171  1.4197
 8520TIP3   OH225495   5.929   4.891   4.525 -0.5093 -0.1234 -0.1101
 8520TIP3    H125496   5.851   4.945   4.535 -0.0976  0.7787 -1.6461
 8520TIP3    H225497   5.986   4.941   4.466  0.9367 -1.0899  0.4301
 8521TIP3   OH225498   1.482   4.657   4.599 -0.4754 -0.5268  0.1444
 8521TIP3    H125499   1.470   4.577   4.548 -0.1327 -1.2751  1.2166
 8521TIP3    H225500   1.428   4.644   4.677 -0.2275  0.1834  0.4387
 8522TIP3   OH225501   3.253   5.447   5.252  0.0931 -0.0764  0.4876
 8522TIP3    H125502   3.237   5.480   5.164  0.4142 -2.5851 -0.5558
 8522TIP3    H225503   3.337   5.485   5.278  0.2056  0.3174 -0.4698
 8523TIP3   OH225504   3.625   6.051   4.305  0.1067  0.0489 -0.2484
 8523TIP3    H125505   3.692   6.017   4.364 -1.2462 -1.0143  0.6859
 8523TIP3    H225506   3.636   6.000   4.225  0.2253 -0.3127 -0.0018
 8524TIP3   OH225507   4.547   7.265   3.113  0.0614  0.1208  0.6911
 8524TIP3    H125508   4.559   7.322   3.189 -0.3238 -0.4123  1.1584
 8524TIP3    H225509   4.555   7.323   3.038 -1.4110  0.9979  1.1831
 8525TIP3   OH225510   3.679   4.490   2.809  0.0296  0.6730 -0.4427
 8525TIP3    H125511   3.770   4.497   2.779 -0.3801  0.3592 -1.8009
 8525TIP3    H225512   3.657   4.577   2.841  0.8615  0.7090  0.0511
 8526TIP3   OH225513   1.774   7.052   4.220 -0.4304 -0.0044  0.5913
 8526TIP3    H125514   1.788   7.023   4.310 -0.7449  0.0939  0.6712
 8526TIP3    H225515   1.714   7.126   4.228 -0.0312  0.3445  0.3461
 8527TIP3   OH225516   2.647   5.468   5.560 -0.0781  0.0418 -0.4036
 8527TIP3    H125517   2.555   5.493   5.568 -0.3736 -0.8991 -0.7911
 8527TIP3    H225518   2.694   5.533   5.612 -0.8364  1.2893 -1.2615
 8528TIP3   OH225519   6.138   6.340   3.171 -0.3675  0.0225 -0.5331
 8528TIP3    H125520   6.048   6.370   3.183  0.2984  1.6276  0.5806
 8528TIP3    H225521   6.190   6.420   3.171  1.2156 -0.9839  0.3062
 8529TIP3   OH225522   4.337   7.091   3.752  0.6448 -0.3538  0.7062
 8529TIP3    H125523   4.359   7.040   3.830  0.9987 -0.4315  0.5583
 8529TIP3    H225524   4.386   7.172   3.762 -2.5307  1.4205  2.6011
 8530TIP3   OH225525   5.059   7.602   5.362 -0.6863  0.7326  0.3215
 8530TIP3    H125526   4.993   7.617   5.294 -1.9646 -0.1965  1.3280
 8530TIP3    H225527   5.120   7.675   5.352 -0.5547  0.3212 -2.1594
 8531TIP3   OH225528   3.874   5.293   2.752 -0.1589  0.2193 -0.3419
 8531TIP3    H125529   3.908   5.298   2.663 -0.4588 -0.1635 -0.4780
 8531TIP3    H225530   3.837   5.205   2.759 -0.4458  0.3693  0.0471
 8532TIP3   OH225531   5.282   6.165   3.334 -0.0556 -0.1780  0.6906
 8532TIP3    H125532   5.226   6.118   3.272 -0.1348  0.3123  0.3844
 8532TIP3    H225533   5.245   6.147   3.420  0.3475 -1.2751  0.6351
 8533TIP3   OH225534   4.236   6.736   2.901 -0.5793  0.1357  0.0984
 8533TIP3    H125535   4.244   6.796   2.827  1.0858  1.3839  1.2427
 8533TIP3    H225536   4.145   6.746   2.930 -0.5930  1.4060 -0.3338
 8534TIP3   OH225537   3.648   5.300   3.519  0.4460  0.1757 -0.6113
 8534TIP3    H125538   3.669   5.248   3.442 -0.9133  0.5448 -1.2523
 8534TIP3    H225539   3.598   5.374   3.485  0.5247  0.7710  0.5334
 8535TIP3   OH225540   3.308   5.439   4.280 -0.9761 -0.0331 -0.1786
 8535TIP3    H125541   3.279   5.493   4.353 -0.3582  0.0621 -0.0021
 8535TIP3    H225542   3.282   5.350   4.303 -1.7855  0.1470 -0.3624
 8536TIP3   OH225543   4.444   4.289   2.309 -0.2378 -0.4171  0.2094
 8536TIP3    H125544   4.365   4.262   2.263  0.8152  0.9775 -2.5200
 8536TIP3    H225545   4.417   4.361   2.365 -1.3633 -1.5429  1.1399
 8537TIP3   OH225546   4.248   5.146   1.420 -0.1077 -0.0168  0.6868
 8537TIP3    H125547   4.344   5.147   1.427  0.0773 -1.7128 -1.1815
 8537TIP3    H225548   4.226   5.054   1.407 -1.6088  0.7904 -3.1748
 8538TIP3   OH225549   3.543   4.705   2.938  0.3287  0.0035 -0.3563
 8538TIP3    H125550   3.516   4.638   3.000  0.9379  0.7013  0.6895
 8538TIP3    H225551   3.559   4.783   2.992 -0.4328  1.0156 -1.5432
 8539TIP3   OH225552   7.567   7.153   5.145  0.6625 -0.3784 -0.0147
 8539TIP3    H125553   7.602   7.233   5.106  0.2307 -0.5624 -0.8039
 8539TIP3    H225554   7.576   7.087   5.076  1.0107 -1.0032  0.6326
 8540TIP3   OH225555   5.849   6.661   4.468  0.6089 -0.0439  1.0815
 8540TIP3    H125556   5.921   6.723   4.481  0.0431  0.6425  0.9886
 8540TIP3    H225557   5.860   6.596   4.537  1.9130 -0.5112  0.4413
 8541TIP3   OH225558   1.996   5.534   1.022  0.0516  0.2455  0.0795
 8541TIP3    H125559   1.990   5.624   0.988 -1.3852  0.3699  0.6212
 8541TIP3    H225560   2.062   5.539   1.091  0.7547  0.6526 -0.6156
 8542TIP3   OH225561   3.788   3.872   3.206  0.3864 -0.1581  0.0916
 8542TIP3    H125562   3.792   3.943   3.141  0.0716 -0.1725  0.0544
 8542TIP3    H225563   3.879   3.848   3.220  0.3862 -1.2041 -1.5074
 8543TIP3   OH225564   3.068   4.243   3.341  0.0259 -0.1064  0.0865
 8543TIP3    H125565   2.977   4.227   3.364  0.4564  0.1686  2.1178
 8543TIP3    H225566   3.117   4.221   3.421  1.4652  2.5771  0.0097
 8544TIP3   OH225567   4.785   5.681   3.687 -0.7070 -0.1662 -0.3191
 8544TIP3    H125568   4.812   5.594   3.713 -1.7421 -0.4466 -0.1686
 8544TIP3    H225569   4.771   5.728   3.769 -1.7269 -0.3588 -0.3706
 8545TIP3   OH225570   3.894   6.914   4.745 -0.2921  0.1022  0.3949
 8545TIP3    H125571   3.886   6.842   4.808  0.5489 -0.0189  0.3795
 8545TIP3    H225572   3.963   6.970   4.781 -1.1545  1.0646  0.5579
 8546TIP3   OH225573   5.833   4.421   4.280  0.3957  0.6780 -0.4574
 8546TIP3    H125574   5.879   4.358   4.225 -0.7531  0.2035 -0.8883
 8546TIP3    H225575   5.902   4.479   4.312  1.3896 -0.4472 -0.5087
 8547TIP3   OH225576   4.268   5.707   4.974  0.2215 -0.0094 -0.0119
 8547TIP3    H125577   4.257   5.630   4.918  0.9206  0.5581 -0.9452
 8547TIP3    H225578   4.186   5.713   5.023 -0.1711 -0.8470 -0.5533
 8548TIP3   OH225579   1.595   6.552   5.334 -0.2674 -0.0648 -0.0855
 8548TIP3    H125580   1.611   6.516   5.246 -3.4339 -1.1710 -0.2715
 8548TIP3    H225581   1.501   6.569   5.336  0.0362  1.4971  2.5530
 8549TIP3   OH225582   4.164   6.537   4.955 -0.0612  0.3766  0.4722
 8549TIP3    H125583   4.126   6.577   5.033 -2.0127  0.9213 -0.7264
 8549TIP3    H225584   4.187   6.611   4.899 -1.7155 -0.1105 -0.8586
 8550TIP3   OH225585   6.390   4.440   2.731 -0.1300 -0.0818  0.1257
 8550TIP3    H125586   6.330   4.469   2.662 -0.9916 -0.9738  0.4854
 8550TIP3    H225587   6.368   4.348   2.744 -0.9951  0.4367  2.6150
 8551TIP3   OH225588   3.012   5.849   3.336 -0.3040 -0.4445 -0.5284
 8551TIP3    H125589   2.927   5.874   3.373 -0.8058 -2.0906 -0.5317
 8551TIP3    H225590   3.026   5.910   3.264 -0.8746  0.6731  0.3013
 8552TIP3   OH225591   3.752   6.897   3.567 -0.3374  0.2179  0.8495
 8552TIP3    H125592   3.727   6.828   3.505  1.9233  1.0776 -1.0966
 8552TIP3    H225593   3.698   6.973   3.541 -0.4048  0.1672  0.8422
 8553TIP3   OH225594   3.607   4.375   4.335 -0.3689  0.4573  0.7551
 8553TIP3    H125595   3.625   4.297   4.388 -1.3883 -0.0162  0.4193
 8553TIP3    H225596   3.607   4.343   4.245  1.8284  1.3459  0.4220
 8554TIP3   OH225597   3.526   6.486   4.022  0.0548 -0.2774 -0.3032
 8554TIP3    H125598   3.511   6.573   3.983  3.0050  0.2559 -0.3815
 8554TIP3    H225599   3.560   6.433   3.950 -1.7141 -1.5405 -0.2481
 8555TIP3   OH225600   2.559   7.707   4.019 -0.0226 -0.0903  0.1483
 8555TIP3    H125601   2.568   7.648   4.093 -0.6675 -0.6863 -0.2406
 8555TIP3    H225602   2.470   7.691   3.986  0.4678 -0.2794 -1.1132
 8556TIP3   OH225603   4.024   6.845   2.578 -0.1827  0.0868 -0.2022
 8556TIP3    H125604   3.974   6.824   2.657  0.2376 -0.4333 -0.0713
 8556TIP3    H225605   3.970   6.812   2.506 -0.4086  0.2557 -0.1091
 8557TIP3   OH225606   4.894   7.903   4.138  0.1476 -0.0346  0.0221
 8557TIP3    H125607   4.820   7.855   4.100 -2.2344  2.2965  1.5586
 8557TIP3    H225608   4.965   7.892   4.075 -2.3631  0.0967 -2.9317
 8558TIP3   OH225609   5.059   5.458   4.520  0.5723  0.3262  0.0690
 8558TIP3    H125610   4.964   5.457   4.527  0.3261  2.6649 -2.1600
 8558TIP3    H225611   5.079   5.398   4.448  1.0582 -2.2489  2.2371
 8559TIP3   OH225612   4.638   5.044   6.209  0.0546  0.0679 -0.2844
 8559TIP3    H125613   4.595   4.975   6.158  0.3397  0.1979 -0.6921
 8559TIP3    H225614   4.700   5.085   6.149  2.2076 -1.4281  0.8379
 8560TIP3   OH225615   3.128   6.627   4.168  0.5420  0.6301 -0.0546
 8560TIP3    H125616   3.127   6.653   4.260 -0.9615 -0.2518  0.2004
 8560TIP3    H225617   3.195   6.559   4.163 -1.1230 -1.1150  0.9249
 8561TIP3   OH225618   4.356   5.686   3.359 -0.2804  0.2988 -0.0943
 8561TIP3    H125619   4.266   5.659   3.376  1.0409 -3.3351  1.7648
 8561TIP3    H225620   4.385   5.628   3.288  1.7828 -1.4029  2.0600
 8562TIP3   OH225621   0.902   1.585   0.739  0.1524 -0.7025 -0.0331
 8562TIP3    H125622   0.818   1.617   0.706 -0.4878 -1.1527  1.1118
 8562TIP3    H225623   0.964   1.654   0.719 -0.3896 -0.5837 -1.3599
 8563TIP3   OH225624   3.587   6.100   4.737 -0.3854 -0.0702  0.1209
 8563TIP3    H125625   3.639   6.029   4.774  0.0992  0.6161  0.7689
 8563TIP3    H225626   3.544   6.061   4.661  1.1885 -0.6004 -0.5202
 8564TIP3   OH225627   2.633   6.048   3.272  0.1642  0.3892  0.5029
 8564TIP3    H125628   2.707   6.076   3.219 -0.7967 -0.4244 -1.3333
 8564TIP3    H225629   2.581   6.128   3.286  1.0210  0.8286  1.2400
 8565TIP3   OH225630   3.929   7.794   3.320 -0.3425  0.2977 -0.3947
 8565TIP3    H125631   3.871   7.868   3.301 -2.3684 -1.1883 -0.1723
 8565TIP3    H225632   3.900   7.762   3.405  1.3653  0.0385  0.1015
 8566TIP3   OH225633   4.795   4.568   5.666 -0.7563 -0.2316 -0.0687
 8566TIP3    H125634   4.860   4.632   5.638  1.3317 -2.4160 -0.4052
 8566TIP3    H225635   4.827   4.537   5.751 -1.5949 -1.0048 -0.0215
 8567TIP3   OH225636   5.917   3.608   1.695  0.1561  0.3126 -0.1910
 8567TIP3    H125637   5.990   3.668   1.684 -1.1832  1.9907 -0.0442
 8567TIP3    H225638   5.913   3.591   1.789 -1.3438  2.4224  0.1551
 8568TIP3   OH225639   2.667   5.927   4.803 -0.4703 -0.2711  0.3712
 8568TIP3    H125640   2.721   5.880   4.866  1.3271  0.1246 -0.8470
 8568TIP3    H225641   2.721   6.001   4.775 -1.5156 -0.0408 -1.1204
 8569TIP3   OH225642   2.497   5.307   4.990 -0.0188  0.5622 -0.2916
 8569TIP3    H125643   2.491   5.212   4.990  0.7973  0.5029 -1.8052
 8569TIP3    H225644   2.424   5.337   4.937 -1.1557  0.8728  1.3854
 8570TIP3   OH225645   4.378   4.405   2.671  0.6070 -0.2265 -0.2994
 8570TIP3    H125646   4.348   4.443   2.588 -0.1282 -0.4545 -0.1425
 8570TIP3    H225647   4.403   4.480   2.725  0.1471 -0.0248 -0.3681
 8571TIP3   OH225648   2.503   6.631   4.891 -0.4492  0.1520  0.9424
 8571TIP3    H125649   2.579   6.573   4.879 -0.7178 -0.1235  0.5702
 8571TIP3    H225650   2.542   6.716   4.912 -0.0172  0.1313  0.2528
 8572TIP3   OH225651   4.989   4.727   2.465  0.4874  0.0063 -0.5197
 8572TIP3    H125652   4.983   4.765   2.553 -2.4306  1.3897 -1.2485
 8572TIP3    H225653   5.042   4.790   2.416  0.8554  0.0050 -0.1257
 8573TIP3   OH225654   5.140   3.536   3.476  0.3037 -0.4091  0.0590
 8573TIP3    H125655   5.189   3.529   3.558  0.8499 -0.2864 -0.2507
 8573TIP3    H225656   5.069   3.473   3.485 -0.6776  0.8312  1.3322
 8574TIP3   OH225657   4.575   0.602   3.016  0.5162 -0.0502 -0.5120
 8574TIP3    H125658   4.588   0.648   2.933 -0.3468 -0.2078 -0.7340
 8574TIP3    H225659   4.493   0.636   3.050 -0.2674 -1.6138 -0.8045
 8575TIP3   OH225660   3.536   6.178   3.341  0.0399  0.4462  0.1380
 8575TIP3    H125661   3.469   6.112   3.358 -0.0436  0.5670  0.2740
 8575TIP3    H225662   3.618   6.133   3.357 -0.0667  1.0559  2.6243
 8576TIP3   OH225663   4.182   4.674   4.595  0.5366  0.0843  0.0564
 8576TIP3    H125664   4.127   4.598   4.618  1.4303 -1.3379 -2.3643
 8576TIP3    H225665   4.233   4.691   4.674 -1.2914 -0.3820  1.3871
 8577TIP3   OH225666   3.290   7.462   4.838  0.0773  0.3209  0.3229
 8577TIP3    H125667   3.303   7.512   4.757  0.4494 -0.0490  0.1528
 8577TIP3    H225668   3.309   7.372   4.813 -1.0514  0.0316  0.5161
 8578TIP3   OH225669   4.195   6.730   5.259  0.3892 -0.2984 -0.0834
 8578TIP3    H125670   4.110   6.769   5.275 -0.4580 -0.9607 -2.7123
 8578TIP3    H225671   4.187   6.640   5.290 -0.2616 -0.6898 -1.3477
 8579TIP3   OH225672   7.102   2.751   0.437 -0.4303  0.1532  0.3930
 8579TIP3    H125673   7.074   2.802   0.361  0.4641 -0.3998 -0.3230
 8579TIP3    H225674   7.183   2.793   0.466  0.2303 -0.7614 -0.1116
 8580TIP3   OH225675   4.062   5.888   5.075  0.3978  0.1381 -0.4267
 8580TIP3    H125676   3.997   5.958   5.069 -0.4772 -0.7049 -0.8248
 8580TIP3    H225677   4.129   5.912   5.012  0.4196  0.9400 -0.1126
 8581TIP3   OH225678   2.241   4.676   4.910  0.2119 -0.0184  0.2788
 8581TIP3    H125679   2.278   4.709   4.992  0.2651 -3.2908  1.6556
 8581TIP3    H225680   2.318   4.651   4.858  0.1223  0.2012  0.0412
 8582TIP3   OH225681   3.439   5.777   6.140  0.2194  0.3647  0.3311
 8582TIP3    H125682   3.384   5.751   6.214 -0.5321  1.3936  0.1303
 8582TIP3    H225683   3.382   5.769   6.064  0.7011  0.2954 -0.0233
 8583TIP3   OH225684   4.136   5.584   4.336 -0.0025 -0.4290  0.4457
 8583TIP3    H125685   4.109   5.515   4.275 -0.0132  0.5967 -0.7326
 8583TIP3    H225686   4.211   5.625   4.293  0.2451  0.0313  1.3257
 8584TIP3   OH225687   5.490   4.756   6.692 -0.5006  0.3105  0.0957
 8584TIP3    H125688   5.424   4.825   6.694 -0.4911  0.2895  2.1604
 8584TIP3    H225689   5.439   4.675   6.699 -0.4442  0.1465 -1.3030
 8585TIP3   OH225690   6.754   6.952   2.664  0.0471 -0.3313 -0.2161
 8585TIP3    H125691   6.717   6.877   2.618 -0.2775 -0.6163  0.5003
 8585TIP3    H225692   6.836   6.920   2.701  0.0617 -0.2476 -0.1746
 8586TIP3   OH225693   5.597   7.160   4.441  0.5472 -0.0651 -0.0365
 8586TIP3    H125694   5.671   7.215   4.466  0.7038 -0.3181  0.0536
 8586TIP3    H225695   5.635   7.091   4.387 -0.0494  1.6601 -2.7548
 8587TIP3   OH225696   5.141   4.923   2.346 -0.2193  0.7349  0.5654
 8587TIP3    H125697   5.115   5.008   2.310 -1.6670  0.1748  0.2535
 8587TIP3    H225698   5.236   4.930   2.356  0.0229  1.5302 -1.7606
 8588TIP3   OH225699   5.028   6.683   2.385 -0.1295 -0.2245 -0.2014
 8588TIP3    H125700   5.048   6.591   2.370  1.0453  0.0051 -0.1204
 8588TIP3    H225701   4.934   6.691   2.368 -0.8068 -1.9849  2.4493
 8589TIP3   OH225702   3.112   5.607   2.747 -0.0188 -0.4544  0.7471
 8589TIP3    H125703   3.125   5.678   2.684  0.0949 -0.7689  0.4116
 8589TIP3    H225704   3.033   5.563   2.717 -0.7519  0.2445  1.6369
 8590TIP3   OH225705   4.963   5.042   4.534  0.9251 -0.3001 -0.0517
 8590TIP3    H125706   4.921   5.127   4.545 -1.6669 -1.5602  0.1910
 8590TIP3    H225707   4.966   5.005   4.622  0.0861 -1.3170 -0.4323
 8591TIP3   OH225708   6.198   7.288   2.087 -0.2906  0.1424 -0.1436
 8591TIP3    H125709   6.163   7.259   2.002  0.3391 -0.7696 -0.1109
 8591TIP3    H225710   6.274   7.230   2.101  0.7618  1.5700  0.1281
 8592TIP3   OH225711   7.090   0.067   4.680 -0.0785 -0.2647  0.4379
 8592TIP3    H125712   7.033   0.101   4.750 -0.1494 -0.8468  0.6625
 8592TIP3    H225713   7.167   0.125   4.682 -0.3285  0.0646  0.6264
 8593TIP3   OH225714   5.795   6.175   1.959  0.0564 -0.3350  0.3395
 8593TIP3    H125715   5.720   6.174   2.020  0.2278  2.4707  0.6459
 8593TIP3    H225716   5.863   6.222   2.007 -0.1252  2.8219 -2.3429
 8594TIP3   OH225717   6.044   4.813   4.172  1.2306  0.0058 -0.0032
 8594TIP3    H125718   6.072   4.722   4.164  1.0130 -0.0821  0.2317
 8594TIP3    H225719   6.079   4.842   4.256 -1.4890 -0.8717  1.4818
 8595TIP3   OH225720   6.711   3.722   3.954  0.5011 -0.1093 -0.0844
 8595TIP3    H125721   6.646   3.757   4.015  1.1900  0.3333  0.4094
 8595TIP3    H225722   6.673   3.736   3.867  0.9579  2.3450  0.0728
 8596TIP3   OH225723   5.624   6.018   2.991 -0.1472 -0.4611  0.8283
 8596TIP3    H125724   5.641   6.020   3.085 -1.9609  0.7358  1.1487
 8596TIP3    H225725   5.604   5.926   2.973  1.4187 -0.9251  1.3655
 8597TIP3   OH225726   5.978   4.425   4.734  0.6314 -0.3684 -0.3101
 8597TIP3    H125727   5.934   4.507   4.712  0.8442 -0.0599  0.3892
 8597TIP3    H225728   5.911   4.358   4.722 -0.9562  0.3749  3.4529
 8598TIP3   OH225729   5.086   5.427   2.041  0.4855 -0.0283 -0.5335
 8598TIP3    H125730   5.100   5.499   2.103  0.8689 -0.4665 -0.1039
 8598TIP3    H225731   5.165   5.426   1.988  0.7788 -0.5559 -0.0982
 8599TIP3   OH225732   7.577   7.154   4.231  0.2669  0.1391 -0.1012
 8599TIP3    H125733   7.483   7.141   4.244  0.0053  1.3078 -0.7214
 8599TIP3    H225734   7.583   7.212   4.155  1.5121 -0.4013 -0.4238
 8600TIP3   OH225735   4.821   6.307   4.248 -0.2894 -0.5903 -0.2146
 8600TIP3    H125736   4.789   6.371   4.312  1.2736  0.4590 -0.4518
 8600TIP3    H225737   4.744   6.286   4.194 -0.9156  0.7780  0.1336
 8601TIP3   OH225738   3.512   6.175   1.830  0.6101 -0.0692  0.3647
 8601TIP3    H125739   3.582   6.166   1.894  0.4006  1.1143  0.7705
 8601TIP3    H225740   3.490   6.268   1.831  0.4020 -0.0995 -1.2187
 8602TIP3   OH225741   4.108   7.435   4.007 -0.1391  0.0159 -0.5095
 8602TIP3    H125742   4.058   7.481   4.074 -0.1042  0.3472 -0.7106
 8602TIP3    H225743   4.144   7.504   3.952 -1.0975 -0.2824 -1.5295
 8603TIP3   OH225744   6.296   5.270   1.413 -0.6386 -0.1338 -0.0171
 8603TIP3    H125745   6.281   5.331   1.486 -0.9160  0.3521 -0.4814
 8603TIP3    H225746   6.305   5.185   1.455 -0.2395  0.2252  0.6411
 8604TIP3   OH225747   6.159   6.810   5.250 -0.0878  0.0112  0.5624
 8604TIP3    H125748   6.170   6.717   5.231  1.3564  0.3246 -0.1678
 8604TIP3    H225749   6.213   6.826   5.328  0.2332  0.3949  0.2606
 8605TIP3   OH225750   4.967   6.770   4.514 -0.2666  0.0992  0.3389
 8605TIP3    H125751   5.002   6.685   4.485 -1.1265  0.4200 -1.7128
 8605TIP3    H225752   5.040   6.831   4.502 -0.7995  0.3403 -1.7582
 8606TIP3   OH225753   3.842   6.956   2.229 -0.1930  0.4139 -0.0204
 8606TIP3    H125754   3.807   6.898   2.295 -0.0390  0.2851 -0.0519
 8606TIP3    H225755   3.903   7.013   2.276 -1.1714  1.2776  0.2101
 8607TIP3   OH225756   5.933   6.929   3.456 -0.6227 -0.3390 -0.1865
 8607TIP3    H125757   5.896   6.841   3.449 -0.6815 -0.3520  0.2378
 8607TIP3    H225758   6.026   6.918   3.435 -0.3811 -0.7157  1.0434
 8608TIP3   OH225759   6.479   7.204   2.373  0.2386  0.5423 -1.0581
 8608TIP3    H125760   6.565   7.221   2.411 -0.4901 -1.2293  1.6131
 8608TIP3    H225761   6.426   7.280   2.399  0.7875  1.2489 -2.0057
 8609TIP3   OH225762   5.058   6.168   4.138  0.3753  0.3325 -0.5958
 8609TIP3    H125763   5.044   6.119   4.057  1.2063  0.2050 -0.6654
 8609TIP3    H225764   4.970   6.188   4.169  0.0434 -0.1135 -1.2302
 8610TIP3   OH225765   6.959   6.734   2.526  0.2832  0.0464 -0.9923
 8610TIP3    H125766   6.905   6.699   2.455 -1.6843 -1.0086  0.9333
 8610TIP3    H225767   6.958   6.665   2.592  2.4681  0.8198 -0.1264
 8611TIP3   OH225768   5.450   6.153   2.427  0.0370 -0.1220  0.1945
 8611TIP3    H125769   5.520   6.189   2.483  0.3383 -2.0589  1.0943
 8611TIP3    H225770   5.372   6.203   2.452  1.0109  1.9089 -0.6594
 8612TIP3   OH225771   1.802   0.902   2.600 -0.2771  0.1897 -0.0846
 8612TIP3    H125772   1.863   0.973   2.621 -0.5272 -0.1086  1.7496
 8612TIP3    H225773   1.725   0.920   2.654 -0.9536 -0.6340 -0.7643
 8613TIP3   OH225774   4.762   4.547   2.900  0.2561 -0.3370  0.5542
 8613TIP3    H125775   4.855   4.539   2.878 -0.2761 -0.4213 -1.8047
 8613TIP3    H225776   4.760   4.608   2.974  2.2035 -0.5512  0.8085
 8614TIP3   OH225777   5.461   5.285   2.530  0.2452  0.4142  0.5590
 8614TIP3    H125778   5.414   5.211   2.569 -0.7091  0.5402 -0.3162
 8614TIP3    H225779   5.515   5.319   2.601  2.0515 -2.2119  0.4940
 8615TIP3   OH225780   6.208   5.224   4.289 -0.1525 -0.0166  0.2181
 8615TIP3    H125781   6.171   5.197   4.205 -1.3446 -1.3430  1.1481
 8615TIP3    H225782   6.249   5.308   4.271 -0.7963 -0.0712 -1.5971
 8616TIP3   OH225783   6.320   5.125   4.596 -0.0041 -0.0142  0.3169
 8616TIP3    H125784   6.360   5.203   4.634 -0.7814  0.3892  0.3325
 8616TIP3    H225785   6.248   5.104   4.656 -1.8660  1.1988 -1.4051
 8617TIP3   OH225786   6.266   4.850   3.043  0.0080  0.0098  0.4697
 8617TIP3    H125787   6.209   4.912   3.089 -0.7235 -2.2840  2.8348
 8617TIP3    H225788   6.206   4.791   2.998  0.5764 -1.0279  1.0541
 8618TIP3   OH225789   4.692   4.703   2.679  0.6939  1.2077 -0.0673
 8618TIP3    H125790   4.712   4.632   2.740 -1.6883  0.8980  0.3861
 8618TIP3    H225791   4.746   4.684   2.602  0.8524 -0.5303  0.4501
 8619TIP3   OH225792   6.125   4.128   1.473 -0.4481 -0.4640  0.8328
 8619TIP3    H125793   6.195   4.172   1.523  0.6536  0.4386 -1.4142
 8619TIP3    H225794   6.171   4.062   1.421 -1.4203 -0.6577  0.2179
 8620TIP3   OH225795   5.421   7.627   2.196  0.0037 -0.2095  0.0396
 8620TIP3    H125796   5.505   7.622   2.241  0.4688  0.9033 -0.6841
 8620TIP3    H225797   5.357   7.601   2.263  0.5815  2.4322  1.7276
 8621TIP3   OH225798   7.255   5.227   5.342  0.7727 -0.3502  0.2691
 8621TIP3    H125799   7.192   5.200   5.276  0.5646 -1.2386  0.8116
 8621TIP3    H225800   7.316   5.154   5.348  0.9514 -0.1610  0.8416
 8622TIP3   OH225801   5.795   6.168   2.828 -0.1349 -0.5178 -0.3979
 8622TIP3    H125802   5.753   6.114   2.895  0.3841 -1.3581 -0.7469
 8622TIP3    H225803   5.884   6.134   2.822  0.4589  0.9407 -0.0000
 8623TIP3   OH225804   8.071   6.758   2.583 -0.6302 -0.6073  0.1231
 8623TIP3    H125805   8.161   6.725   2.581  0.0375  1.1625 -0.0881
 8623TIP3    H225806   8.027   6.714   2.510  0.2176 -1.0481 -0.1248
 8624TIP3   OH225807   0.872   0.077   5.574  0.3224 -0.0233  0.0728
 8624TIP3    H125808   0.949   0.058   5.627 -0.4656 -1.2552  0.7800
 8624TIP3    H225809   0.886   0.167   5.542  2.6837 -0.7236 -0.9441
 8625TIP3   OH225810   7.477   5.669   1.121  0.1996 -0.8869  0.1764
 8625TIP3    H125811   7.415   5.680   1.193  0.7461 -0.6876  0.6176
 8625TIP3    H225812   7.471   5.576   1.098 -0.5397 -0.7882 -0.0375
 8626TIP3   OH225813   4.083   5.639   4.662 -0.0637  0.3689  0.0591
 8626TIP3    H125814   3.988   5.647   4.668 -0.1865  0.1027 -1.3455
 8626TIP3    H225815   4.099   5.610   4.572  1.3577  0.6475  0.2086
 8627TIP3   OH225816   7.300   3.788   2.965  0.4465 -0.5575  0.1629
 8627TIP3    H125817   7.354   3.709   2.975  0.5236 -0.4843  0.3191
 8627TIP3    H225818   7.218   3.767   3.010  0.4864 -0.5298  0.2493
 8628TIP3   OH225819   5.430   5.096   3.011 -0.6483  0.2768 -0.4106
 8628TIP3    H125820   5.499   5.142   2.964  0.1580 -0.9336 -0.4271
 8628TIP3    H225821   5.404   5.156   3.080 -0.7143  1.4068 -1.3975
 8629TIP3   OH225822   5.179   7.685   1.317 -0.0823 -0.4319 -0.3881
 8629TIP3    H125823   5.239   7.710   1.247  1.6436  0.3559  1.3290
 8629TIP3    H225824   5.215   7.604   1.352  1.0176  0.9780  1.8193
 8630TIP3   OH225825   4.447   5.720   6.571  0.1033  0.6820  0.5655
 8630TIP3    H125826   4.407   5.638   6.541 -0.6905  1.3212 -0.1362
 8630TIP3    H225827   4.524   5.731   6.516 -1.9182  2.3871 -1.9982
 8631TIP3   OH225828   5.066   4.603   2.865 -0.1199 -0.1605 -0.6108
 8631TIP3    H125829   5.090   4.609   2.957 -3.6313 -0.4643  0.3835
 8631TIP3    H225830   5.060   4.694   2.836  4.1950 -0.0449 -1.5337
 8632TIP3   OH225831   6.536   5.176   4.180 -0.7869 -0.6760 -0.9584
 8632TIP3    H125832   6.480   5.253   4.184  0.5445  0.2308  0.8663
 8632TIP3    H225833   6.623   5.210   4.157  0.4756 -1.2198  2.7730
 8633TIP3   OH225834   3.529   7.310   4.566 -0.3472 -0.3642  0.0533
 8633TIP3    H125835   3.565   7.371   4.630 -1.0908 -1.7677  1.8721
 8633TIP3    H225836   3.544   7.351   4.481  0.7209  1.5094  1.1327
 8634TIP3   OH225837   4.617   6.202   3.164 -0.3680  0.2769  0.3077
 8634TIP3    H125838   4.611   6.211   3.069  1.5587 -1.4049 -0.0127
 8634TIP3    H225839   4.584   6.114   3.182  0.3418  0.1621  1.0620
 8635TIP3   OH225840   5.456   7.918   2.580  0.2132  0.4598  0.2871
 8635TIP3    H125841   5.379   7.921   2.524 -0.3876  1.6335  1.1656
 8635TIP3    H225842   5.498   7.834   2.558 -0.7469  0.2774 -0.9185
 8636TIP3   OH225843   4.496   7.726   4.764 -0.1858 -0.3322 -0.4990
 8636TIP3    H125844   4.418   7.754   4.811 -0.2369 -0.8869 -0.2467
 8636TIP3    H225845   4.536   7.807   4.733 -0.5425 -0.0082 -0.1188
 8637TIP3   OH225846   0.198   0.244   1.531 -0.2169  0.0950  0.1987
 8637TIP3    H125847   0.256   0.267   1.459 -0.5051  2.8113  0.7907
 8637TIP3    H225848   0.255   0.204   1.596  0.2048 -1.4282 -1.0627
 8638TIP3   OH225849   7.574   4.990   4.792 -0.3109 -0.7059 -0.0513
 8638TIP3    H125850   7.641   4.922   4.801 -0.3494 -1.0387 -2.0889
 8638TIP3    H225851   7.616   5.059   4.740 -1.4467 -0.7869 -1.1037
 8639TIP3   OH225852   5.733   6.830   4.789 -0.0668 -0.3075 -0.0098
 8639TIP3    H125853   5.750   6.738   4.807  0.4249 -0.1994  0.0975
 8639TIP3    H225854   5.731   6.837   4.694  2.2965 -0.0103 -0.0571
 8640TIP3   OH225855   5.118   5.553   2.641  0.4343  0.3175  0.4548
 8640TIP3    H125856   5.108   5.497   2.564 -0.5078  0.6476  0.3331
 8640TIP3    H225857   5.138   5.639   2.606 -1.6118  0.8448  0.4907
 8641TIP3   OH225858   7.659   6.776   4.364  0.3769  0.2850 -0.0226
 8641TIP3    H125859   7.731   6.720   4.394  0.0230 -0.3337 -0.3364
 8641TIP3    H225860   7.686   6.864   4.389  0.2778 -0.1723  1.7643
 8642TIP3   OH225861   6.382   7.101   4.000  0.0021  0.2945  0.3125
 8642TIP3    H125862   6.321   7.173   4.014  1.0428  0.8954  1.9629
 8642TIP3    H225863   6.328   7.022   4.000 -1.3869  1.1381 -3.1931
 8643TIP3   OH225864   7.355   6.181   4.921  0.0254  0.2652  0.2191
 8643TIP3    H125865   7.277   6.185   4.866 -0.4052 -0.0778  0.7959
 8643TIP3    H225866   7.328   6.220   5.004  0.0242 -1.1746  0.9213
 8644TIP3   OH225867   6.006   5.565   1.046  0.0982 -0.6347 -0.2222
 8644TIP3    H125868   5.968   5.487   1.007  1.1459 -1.3451  0.1364
 8644TIP3    H225869   6.083   5.533   1.094  1.3330  0.7787 -1.1895
 8645TIP3   OH225870   5.017   4.523   5.125  0.0891  0.3392 -0.0930
 8645TIP3    H125871   5.065   4.525   5.207 -2.1487 -0.9898  1.2886
 8645TIP3    H225872   4.996   4.615   5.108  2.3353  0.8438 -0.2959
 8646TIP3   OH225873   3.963   5.458   3.676  0.0894  1.0524  0.3160
 8646TIP3    H125874   4.051   5.473   3.643  0.6898 -1.5439  0.5636
 8646TIP3    H225875   3.975   5.444   3.770 -0.3344 -0.7911  0.1299
 8647TIP3   OH225876   5.139   6.440   4.199  0.3722  0.0768  0.1428
 8647TIP3    H125877   5.050   6.463   4.224  0.4670  0.7924 -0.1553
 8647TIP3    H225878   5.131   6.354   4.158 -0.7984  1.7188 -3.3259
 8648TIP3   OH225879   6.115   5.368   3.736 -0.6555  0.1653 -0.4726
 8648TIP3    H125880   6.095   5.326   3.652 -0.6992 -2.6954  0.8961
 8648TIP3    H225881   6.204   5.341   3.756 -1.0318 -0.0838  0.9151
 8649TIP3   OH225882   7.090   5.574   1.513  0.5273  0.5685 -0.4270
 8649TIP3    H125883   7.095   5.481   1.490  1.6814  0.3538  0.6417
 8649TIP3    H225884   6.997   5.589   1.530  0.2765 -0.2912 -0.9794
 8650TIP3   OH225885   5.025   6.203   5.001 -0.5118 -0.2114  0.1949
 8650TIP3    H125886   4.952   6.156   5.042 -0.1763  0.0193  1.0833
 8650TIP3    H225887   5.099   6.143   5.008 -0.5360 -0.3144 -0.4092
 8651TIP3   OH225888   5.411   5.880   2.416 -0.0578 -0.0479 -0.1238
 8651TIP3    H125889   5.429   5.854   2.506  0.7289  1.5021  0.1716
 8651TIP3    H225890   5.441   5.970   2.410 -0.4552 -0.0117 -1.8366
 8652TIP3   OH225891   4.089   4.578   4.915 -0.3926 -0.1058  0.1830
 8652TIP3    H125892   4.063   4.536   4.833  0.1138 -0.5679  0.2649
 8652TIP3    H225893   4.111   4.506   4.973  0.0377  0.2559  0.4643
 8653TIP3   OH225894   5.750   5.461   2.945  0.4389 -0.3689 -0.5017
 8653TIP3    H125895   5.687   5.389   2.951  0.6950 -0.5606 -0.1249
 8653TIP3    H225896   5.728   5.518   3.019  2.1312 -1.5729  0.9668
 8654TIP3   OH225897   4.959   4.898   4.306 -0.6218 -0.6402  0.9588
 8654TIP3    H125898   4.871   4.864   4.293 -0.8535 -0.0042  0.8237
 8654TIP3    H225899   4.954   4.948   4.387 -0.5839  0.0479  0.5412
 8655TIP3   OH225900   4.757   5.391   2.310 -0.0502 -0.0138  0.0689
 8655TIP3    H125901   4.671   5.430   2.321  0.4736  0.9078  1.0270
 8655TIP3    H225902   4.768   5.382   2.215 -0.9546  0.4179 -0.0775
 8656TIP3   OH225903   4.539   5.496   5.783  0.2390  0.5562  0.1259
 8656TIP3    H125904   4.528   5.401   5.776 -0.9614  0.7907 -1.3233
 8656TIP3    H225905   4.632   5.511   5.765  0.7588 -0.4632  1.8522
 8657TIP3   OH225906   5.037   5.518   5.394  0.2545  0.3107 -0.1675
 8657TIP3    H125907   5.113   5.465   5.370  0.8039  1.5441 -1.1588
 8657TIP3    H225908   4.966   5.483   5.340 -0.1218 -1.4186  1.3830
 8658TIP3   OH225909   6.098   6.200   3.872 -0.7817 -0.9525  0.2895
 8658TIP3    H125910   6.151   6.168   3.944  0.7194  2.3247  0.7520
 8658TIP3    H225911   6.156   6.201   3.796 -0.6519  0.9157  0.3755
 8659TIP3   OH225912   2.754   4.214   3.858 -0.6028  0.7557  0.2181
 8659TIP3    H125913   2.740   4.143   3.795  0.1878 -0.1784  1.0715
 8659TIP3    H225914   2.795   4.284   3.807 -1.8907  0.8219 -0.7500
 8660TIP3   OH225915   5.911   6.254   3.479  0.4875  0.7297  0.1833
 8660TIP3    H125916   5.953   6.270   3.563 -3.8263  3.5674  1.9771
 8660TIP3    H225917   5.919   6.337   3.432 -3.8127  1.7206  1.0056
 8661TIP3   OH225918   3.814   3.862   5.853  0.2235 -0.0273  0.2594
 8661TIP3    H125919   3.800   3.956   5.839 -0.1496  0.0809  1.3548
 8661TIP3    H225920   3.747   3.820   5.799 -1.7890  0.4088  2.3668
 8662TIP3   OH225921   5.973   5.723   4.263  0.3471  0.0497 -0.0439
 8662TIP3    H125922   5.967   5.628   4.250  0.9932 -0.1599  1.1305
 8662TIP3    H225923   5.930   5.738   4.347  0.5271  0.7572 -0.0772
 8663TIP3   OH225924   4.595   6.341   3.404  0.5640 -0.1243  0.1995
 8663TIP3    H125925   4.608   6.288   3.326 -1.1524 -0.5859  0.2071
 8663TIP3    H225926   4.598   6.431   3.372  0.5974 -0.2964 -0.2864
 8664TIP3   OH225927   5.875   7.899   4.908  0.1006  0.4593 -0.1728
 8664TIP3    H125928   5.910   7.814   4.935 -0.7622  0.4492  0.9315
 8664TIP3    H225929   5.843   7.884   4.819 -1.8102 -0.8982  0.6961
 8665TIP3   OH225930   4.414   6.612   4.004  0.0309 -0.5363 -0.1513
 8665TIP3    H125931   4.347   6.562   4.051  1.1122 -1.0601  0.8279
 8665TIP3    H225932   4.445   6.553   3.936  1.1207 -1.1130  0.8389
 8666TIP3   OH225933   5.019   6.368   2.663  0.5344 -0.0391 -0.3930
 8666TIP3    H125934   4.932   6.350   2.628 -0.1562 -1.8928  2.1100
 8666TIP3    H225935   5.007   6.448   2.715  0.1509 -0.6711  0.5024
 8667TIP3   OH225936   5.460   2.942   2.927  0.1007 -0.4521  0.4994
 8667TIP3    H125937   5.408   3.022   2.918  1.1099  0.3159  1.4200
 8667TIP3    H225938   5.520   2.944   2.853  0.1425 -0.3620  0.5370
 8668TIP3   OH225939   5.976   6.579   3.727 -0.2013 -0.0138 -0.0148
 8668TIP3    H125940   5.952   6.662   3.769 -0.9970  0.0940 -0.6623
 8668TIP3    H225941   5.925   6.513   3.774 -1.0043  0.0926 -0.7327
 8669TIP3   OH225942   5.738   4.734   2.752 -0.2385  0.0932 -0.4456
 8669TIP3    H125943   5.733   4.728   2.847 -0.2558 -2.0507 -0.5639
 8669TIP3    H225944   5.662   4.787   2.727 -1.9838 -1.8908  0.5185
 8670TIP3   OH225945   2.739   4.423   4.173  0.5276  0.5883 -0.0709
 8670TIP3    H125946   2.720   4.375   4.253  0.0033  1.2179  0.1923
 8670TIP3    H225947   2.705   4.367   4.103 -1.2175  1.1337  0.3182
 8671TIP3   OH225948   4.405   7.430   2.243  0.2347  0.1948 -0.0031
 8671TIP3    H125949   4.409   7.359   2.306  1.7957  0.6340  0.3875
 8671TIP3    H225950   4.335   7.487   2.275 -2.1158 -1.9376 -1.1599
 8672TIP3   OH225951   6.725   6.023   3.771  0.0919  0.8031 -0.4060
 8672TIP3    H125952   6.791   5.985   3.713 -1.5436 -6.3152  1.8415
 8672TIP3    H225953   6.652   6.047   3.714  0.8808 -0.4114 -1.9470
 8673TIP3   OH225954   7.648   5.253   5.349  0.2605  0.8293  0.3854
 8673TIP3    H125955   7.674   5.281   5.437 -0.3160 -1.7376  1.4280
 8673TIP3    H225956   7.672   5.326   5.292  4.3371  0.9307  2.0935
 8674TIP3   OH225957   7.675   0.131   4.492 -0.1758 -0.5340 -0.2472
 8674TIP3    H125958   7.680   0.116   4.398  1.3733  0.8354 -0.4103
 8674TIP3    H225959   7.711   0.051   4.531 -0.7356 -1.0668 -0.8183
 8675TIP3   OH225960   7.056   5.923   4.745 -1.0364 -0.2313 -0.4019
 8675TIP3    H125961   7.096   6.009   4.733 -0.8062 -0.2741  0.0507
 8675TIP3    H225962   6.967   5.942   4.777 -1.2283 -0.1484 -0.9788
 8676TIP3   OH225963   8.410   5.927   2.338 -0.3277  0.1706  0.4055
 8676TIP3    H125964   8.505   5.939   2.338 -0.2013 -0.7673  0.6233
 8676TIP3    H225965   8.374   6.015   2.351  0.4821  0.7062 -0.9551
 8677TIP3   OH225966   5.525   6.248   1.752 -0.2025 -0.1888 -0.4996
 8677TIP3    H125967   5.542   6.201   1.834 -0.2120  0.7154  0.0268
 8677TIP3    H225968   5.570   6.197   1.685 -1.3594 -1.7130 -0.1388
 8678TIP3   OH225969   7.248   6.777   3.574  0.4163  0.5382  0.0210
 8678TIP3    H125970   7.168   6.724   3.584  0.8642 -0.5662 -1.9494
 8678TIP3    H225971   7.224   6.862   3.609 -1.7505  0.3207 -0.7980
 8679TIP3   OH225972   5.902   6.429   3.225  0.3646  0.6330 -0.9893
 8679TIP3    H125973   5.820   6.430   3.176  0.6896  0.1093 -1.5536
 8679TIP3    H225974   5.903   6.512   3.272 -1.3964 -0.1787  0.5416
 8680TIP3   OH225975   4.197   8.020   2.621  0.4735  0.1704  0.1161
 8680TIP3    H125976   4.122   8.020   2.680 -0.7284  0.5013 -1.3813
 8680TIP3    H225977   4.265   7.973   2.669 -0.2804  0.9364  1.9826
 8681TIP3   OH225978   2.214   7.087   3.539  0.0044  0.2870  0.7431
 8681TIP3    H125979   2.296   7.114   3.497  1.3828 -2.9901  1.1428
 8681TIP3    H225980   2.153   7.072   3.467  1.0478 -1.1677  0.1314
 8682TIP3   OH225981   6.826   6.242   2.911 -0.6845 -0.4491  0.0780
 8682TIP3    H125982   6.800   6.161   2.957  0.9104 -1.3123 -0.5177
 8682TIP3    H225983   6.769   6.309   2.949 -1.1046 -1.5984  1.5687
 8683TIP3   OH225984   5.598   6.944   3.371  0.4269  0.3943 -0.8431
 8683TIP3    H125985   5.570   6.853   3.360  1.7466 -0.2166  0.7905
 8683TIP3    H225986   5.531   6.995   3.324 -2.3908 -1.1613  1.3372
 8684TIP3   OH225987   3.363   7.624   5.050  0.0789  0.6141 -0.1237
 8684TIP3    H125988   3.354   7.586   4.963 -0.1825 -0.4999  0.3830
 8684TIP3    H225989   3.319   7.562   5.108 -1.7863  2.4924  0.5221
 8685TIP3   OH225990   2.316   0.879   2.365  0.6288  0.3659 -0.2707
 8685TIP3    H125991   2.306   0.856   2.273 -1.7542 -0.2174  0.1046
 8685TIP3    H225992   2.347   0.798   2.407  0.2922  0.2029 -0.3319
 8686TIP3   OH225993   6.625   7.035   4.091  0.1325  0.0496  0.1626
 8686TIP3    H125994   6.673   6.962   4.052  0.6037  1.1125 -1.2751
 8686TIP3    H225995   6.548   7.046   4.036 -0.7874 -0.3982  1.3334
 8687TIP3   OH225996   7.332   7.055   1.421 -0.7581 -0.4579 -0.2152
 8687TIP3    H125997   7.378   6.995   1.480 -2.9266 -1.4485  0.5384
 8687TIP3    H225998   7.297   7.124   1.478 -2.8535 -1.4099 -0.2785
 8688TIP3   OH225999   4.448   5.866   3.556  0.6589  0.1485 -0.0827
 8688TIP3    H126000   4.436   5.821   3.640  0.7635 -0.6591 -0.4972
 8688TIP3    H226001   4.421   5.802   3.490 -1.6912  1.5909 -0.5718
 8689TIP3   OH226002   5.155   6.303   4.496  0.5122 -0.2224 -0.1264
 8689TIP3    H126003   5.111   6.233   4.449 -3.3024 -0.0929  2.9844
 8689TIP3    H226004   5.192   6.261   4.574 -2.0197  1.1104  1.8985
 8690TIP3   OH226005   3.149   4.490   3.233  0.1659 -0.2235 -0.0852
 8690TIP3    H126006   3.115   4.409   3.271 -0.9953  1.7119  3.1513
 8690TIP3    H226007   3.071   4.544   3.218  0.9319  0.3887 -2.1082
 8691TIP3   OH226008   1.011   0.019   1.343  0.3143  0.2601  0.0462
 8691TIP3    H126009   1.065   0.018   1.422 -0.5224 -1.2286  0.6291
 8691TIP3    H226010   0.990   0.112   1.330 -1.0060  0.3965  2.6415
 8692TIP3   OH226011   4.726   7.515   5.828 -0.7000  0.1201  0.0158
 8692TIP3    H126012   4.646   7.478   5.792 -2.7831  3.5042  0.9228
 8692TIP3    H226013   4.732   7.478   5.916 -1.7400  0.4598  0.2378
 8693TIP3   OH226014   3.567   6.425   2.769  0.2567 -0.1924  0.3923
 8693TIP3    H126015   3.536   6.343   2.808 -1.1744 -0.7333 -1.7752
 8693TIP3    H226016   3.643   6.400   2.717  0.1415 -0.0713  0.1627
 8694TIP3   OH226017   7.765   3.543   5.290  0.1245  0.1685  0.9072
 8694TIP3    H126018   7.759   3.535   5.195 -1.2847 -0.4695  1.0472
 8694TIP3    H226019   7.681   3.512   5.322  0.9963 -0.6474  2.4325
 8695TIP3   OH226020   6.301   4.342   6.187  0.3369  0.0765  0.4776
 8695TIP3    H126021   6.275   4.291   6.110 -1.3777  2.0593 -0.3145
 8695TIP3    H226022   6.332   4.276   6.250 -2.1524 -1.9934 -0.3509
 8696TIP3   OH226023   5.699   3.688   2.528  0.4114  0.0006 -0.6380
 8696TIP3    H126024   5.742   3.687   2.614  0.8311 -0.1081 -0.8477
 8696TIP3    H226025   5.612   3.725   2.545 -0.5028 -2.4996  0.3078
 8697TIP3   OH226026   4.364   6.038   4.638 -0.2243 -0.4654 -0.1851
 8697TIP3    H126027   4.286   6.093   4.635  0.0262 -0.1480 -1.3568
 8697TIP3    H226028   4.346   5.967   4.576 -0.1476 -1.1632  0.5881
 8698TIP3   OH226029   5.793   6.532   5.114  0.2309  0.3332 -0.2720
 8698TIP3    H126030   5.711   6.556   5.071 -0.7979  0.1657  1.5563
 8698TIP3    H226031   5.811   6.604   5.174  1.0732  0.0477 -0.1728
 8699TIP3   OH226032   5.444   7.586   4.054  0.1389 -0.0985  0.7828
 8699TIP3    H126033   5.446   7.549   4.142  0.3990 -1.8805  0.0515
 8699TIP3    H226034   5.355   7.620   4.043 -0.1815 -0.7650  1.3647
 8700TIP3   OH226035   5.457   5.185   0.451  0.5178 -0.6481  0.1128
 8700TIP3    H126036   5.460   5.256   0.387 -1.1704 -0.2623  0.4331
 8700TIP3    H226037   5.364   5.161   0.456  0.5628 -0.4273  2.6726
 8701TIP3   OH226038   5.445   5.413   3.459 -0.3652 -0.3926  0.1448
 8701TIP3    H126039   5.484   5.498   3.437  1.0493 -1.2138 -0.6119
 8701TIP3    H226040   5.476   5.395   3.548  0.2717 -0.6340 -0.1227
 8702TIP3   OH226041   6.686   6.508   1.994  0.1218 -0.8343 -0.4377
 8702TIP3    H126042   6.720   6.501   2.083 -0.9380 -0.6400 -0.0163
 8702TIP3    H226043   6.601   6.550   2.004 -0.0056 -0.8258 -1.5399
 8703TIP3   OH226044   5.755   7.185   2.933  0.4906  0.1714  0.3179
 8703TIP3    H126045   5.682   7.130   2.905  1.0653 -1.1782  1.4010
 8703TIP3    H226046   5.792   7.139   3.008  1.4028  1.7149  0.8283
 8704TIP3   OH226047   4.161   6.570   3.258 -0.4114 -0.1250 -0.7736
 8704TIP3    H126048   4.247   6.583   3.218 -0.8106 -2.8074 -2.7027
 8704TIP3    H226049   4.176   6.503   3.324 -0.4641  1.6275  1.0381
 8705TIP3   OH226050   6.600   6.246   2.216  0.1595 -0.4097 -0.7701
 8705TIP3    H126051   6.642   6.331   2.231 -1.7800  0.6160 -0.9557
 8705TIP3    H226052   6.565   6.221   2.301 -0.3372 -0.4347 -0.9819
 8706TIP3   OH226053   5.575   7.142   5.296  0.0033 -0.2229  0.0014
 8706TIP3    H126054   5.665   7.123   5.323  0.0640 -0.9095 -0.6670
 8706TIP3    H226055   5.521   7.088   5.354  0.0512 -0.3155 -0.0404
 8707TIP3   OH226056   6.717   6.226   4.309 -0.4194  0.4249 -0.0475
 8707TIP3    H126057   6.660   6.219   4.385  0.9076 -0.2826  0.9114
 8707TIP3    H226058   6.690   6.307   4.265 -2.7923 -0.4097 -0.1774
 8708TIP3   OH226059   5.374   5.420   2.312  0.1195  0.3812 -0.5095
 8708TIP3    H126060   5.324   5.501   2.328  0.6283  0.6248 -0.1450
 8708TIP3    H226061   5.391   5.384   2.399  0.3296  0.1440 -0.6489
 8709TIP3   OH226062   4.947   7.866   3.642 -0.2145  0.1613 -0.0902
 8709TIP3    H126063   4.947   7.802   3.571 -0.2103 -0.9557  0.8968
 8709TIP3    H226064   4.866   7.848   3.690 -0.6322  1.4569 -0.2802
 8710TIP3   OH226065   5.577   6.865   4.283 -0.3738  0.2162  0.0267
 8710TIP3    H126066   5.485   6.884   4.265 -0.7078 -1.6641 -0.3841
 8710TIP3    H226067   5.577   6.831   4.373  0.0133  0.8634  0.2714
 8711TIP3   OH226068   7.630   5.297   1.908 -0.1250  0.2368 -0.5286
 8711TIP3    H126069   7.570   5.236   1.864  2.3607 -1.8912 -1.0916
 8711TIP3    H226070   7.660   5.356   1.839 -0.4616  0.4066 -0.5325
 8712TIP3   OH226071   5.926   7.925   6.812  0.3332 -0.4829 -0.0386
 8712TIP3    H126072   5.915   8.013   6.775  1.7629 -0.8640 -1.3533
 8712TIP3    H226073   5.885   7.867   6.748  1.0962 -0.9594 -0.0877
 8713TIP3   OH226074   6.058   6.448   2.339 -0.6115 -0.1226  0.3466
 8713TIP3    H126075   6.002   6.519   2.371 -1.1884  0.2014 -1.3086
 8713TIP3    H226076   6.036   6.373   2.393 -0.2262  0.8721  1.9097
 8714TIP3   OH226077   4.592   5.071   4.617 -0.3859  0.1200 -0.1921
 8714TIP3    H126078   4.612   5.138   4.552  0.0603  0.4088  0.2341
 8714TIP3    H226079   4.593   4.989   4.568 -0.7737  0.4060 -0.6848
 8715TIP3   OH226080   8.294   0.110   2.237 -0.6737  0.3965 -0.9037
 8715TIP3    H126081   8.270   0.030   2.191 -0.1744 -0.6877  0.6989
 8715TIP3    H226082   8.367   0.085   2.294  1.2037  2.5626 -2.2436
 8716TIP3   OH226083   4.404   7.431   3.419 -0.3655  0.1872  0.2408
 8716TIP3    H126084   4.327   7.383   3.388 -0.9692  0.7833  0.8087
 8716TIP3    H226085   4.407   7.509   3.364 -0.4083  0.3662  0.4937
 8717TIP3   OH226086   7.434   6.471   1.270  0.3983  0.1499 -0.0547
 8717TIP3    H126087   7.382   6.537   1.316  0.1355  0.8365 -1.3319
 8717TIP3    H226088   7.513   6.518   1.243  0.4782 -0.2136 -0.4483
 8718TIP3   OH226089   6.046   6.833   4.532  0.3336 -0.2279  0.0375
 8718TIP3    H126090   6.126   6.869   4.571  0.0890  0.7802 -0.3751
 8718TIP3    H226091   5.979   6.899   4.548 -0.4091 -1.0448  0.3320
 8719TIP3   OH226092   4.984   6.817   6.002 -0.1236  0.6782 -0.3713
 8719TIP3    H126093   5.045   6.808   5.928 -0.0453 -1.2388 -0.0935
 8719TIP3    H226094   4.898   6.803   5.964 -0.0892 -0.2338 -0.1196
 8720TIP3   OH226095   3.530   5.731   1.088 -0.3296 -0.0732  0.1354
 8720TIP3    H126096   3.609   5.768   1.126  1.9645 -0.7298 -3.6876
 8720TIP3    H226097   3.494   5.801   1.034 -0.9108 -0.5759 -0.1375
 8721TIP3   OH226098   5.333   5.656   4.298 -0.2583 -0.2675  0.8446
 8721TIP3    H126099   5.410   5.691   4.343 -0.0648 -1.2887  1.3221
 8721TIP3    H226100   5.263   5.661   4.364 -0.0960 -1.2825  1.1031
 8722TIP3   OH226101   1.393   0.740   6.568  0.2858 -0.0946 -0.1140
 8722TIP3    H126102   1.443   0.690   6.632  0.4789 -2.1739 -1.8308
 8722TIP3    H226103   1.441   0.730   6.486 -0.4880  1.7024 -0.8330
 8723TIP3   OH226104   7.255   5.396   3.705  0.1962 -0.1030  0.2693
 8723TIP3    H126105   7.289   5.434   3.786 -0.7017  1.3154  0.0203
 8723TIP3    H226106   7.161   5.385   3.721  0.2685 -1.2604 -0.0452
 8724TIP3   OH226107   5.656   7.386   1.510  0.4009  0.1547  0.2303
 8724TIP3    H126108   5.578   7.333   1.523  0.9755 -0.6913  0.2543
 8724TIP3    H226109   5.624   7.467   1.469 -0.2350 -1.0491 -1.7073
 8725TIP3   OH226110   7.567   6.067   4.634  0.0856  0.0809 -0.0001
 8725TIP3    H126111   7.508   6.112   4.573  0.9345 -0.3088 -1.1191
 8725TIP3    H226112   7.579   6.130   4.706 -0.2259  0.8904 -0.6439
 8726TIP3   OH226113   4.183   7.138   3.539  0.2403  0.3735  0.1963
 8726TIP3    H126114   4.243   7.091   3.481 -0.6950 -0.2189 -0.3070
 8726TIP3    H226115   4.236   7.159   3.616  0.5676 -2.0152  0.6853
 8727TIP3   OH226116   4.741   4.100   5.053 -0.0342  0.0188  0.0996
 8727TIP3    H126117   4.769   4.181   5.096  0.0234 -0.7713  1.5976
 8727TIP3    H226118   4.733   4.036   5.124 -0.2675 -1.2478 -1.0271
 8728TIP3   OH226119   6.297   6.089   2.691 -0.2773  0.3920 -0.4076
 8728TIP3    H126120   6.334   6.021   2.747  0.3075  0.9072 -0.1650
 8728TIP3    H226121   6.250   6.146   2.750 -0.4860  0.3880 -0.5687
 8729TIP3   OH226122   8.070   7.787   3.890  0.1093  0.1601 -0.2000
 8729TIP3    H126123   7.985   7.797   3.932  0.7482  0.9949  0.9378
 8729TIP3    H226124   8.057   7.721   3.823 -1.2073 -0.3907  0.5973
 8730TIP3   OH226125   7.500   6.674   2.871  1.2938 -0.6627 -0.2325
 8730TIP3    H126126   7.473   6.725   2.795  0.3703 -0.4657  0.2314
 8730TIP3    H226127   7.441   6.600   2.873  0.6619 -0.1318  0.8873
 8731TIP3   OH226128   4.737   4.566   3.373 -0.3816 -0.4411 -1.0243
 8731TIP3    H126129   4.663   4.607   3.416 -1.1464 -0.7911 -1.9777
 8731TIP3    H226130   4.707   4.478   3.352 -0.0145 -0.2948 -2.2040
 8732TIP3   OH226131   5.611   7.752   5.973 -0.2030  0.2860  0.5182
 8732TIP3    H126132   5.585   7.696   5.900  0.0884  0.1649  0.5080
 8732TIP3    H226133   5.542   7.818   5.978  1.5147  2.4296 -2.1438
 8733TIP3   OH226134   5.580   6.404   4.442 -0.1384 -0.8808 -0.0613
 8733TIP3    H126135   5.666   6.407   4.399 -1.3609 -2.2925 -2.6950
 8733TIP3    H226136   5.547   6.316   4.425 -2.3834 -0.1626  0.3969
 8734TIP3   OH226137   6.824   3.879   3.182  0.0210 -0.0117 -0.2594
 8734TIP3    H126138   6.735   3.914   3.184  0.4012  0.9390  2.2733
 8734TIP3    H226139   6.849   3.881   3.090 -2.1761  0.7374 -0.8714
 8735TIP3   OH226140   5.292   4.862   3.653 -0.4303 -0.4587 -0.0167
 8735TIP3    H126141   5.373   4.817   3.675 -0.1299  0.3322  0.4954
 8735TIP3    H226142   5.301   4.949   3.692 -1.3763 -0.2515 -0.2497
 8736TIP3   OH226143   7.210   3.468   6.308  0.6904 -0.2161  0.0437
 8736TIP3    H126144   7.246   3.381   6.328  3.7943  1.1001  0.4149
 8736TIP3    H226145   7.232   3.521   6.384 -2.8478  0.4874  0.6575
 8737TIP3   OH226146   4.329   5.601   5.933  0.0153  0.0184  0.0692
 8737TIP3    H126147   4.344   5.616   6.026 -2.3473  1.3896  0.2824
 8737TIP3    H226148   4.394   5.535   5.908  1.2210  0.2304  2.4806
 8738TIP3   OH226149   7.769   5.744   3.700  0.4023 -0.4422  0.1634
 8738TIP3    H126150   7.716   5.683   3.649  0.1667 -0.8354  0.8768
 8738TIP3    H226151   7.809   5.690   3.769  0.8193  0.0615  0.3186
 8739TIP3   OH226152   2.764   6.692   2.341  0.4534 -0.5568 -0.7517
 8739TIP3    H126153   2.800   6.691   2.430 -2.2112 -2.3036  0.3462
 8739TIP3    H226154   2.805   6.617   2.298  0.8980 -0.3628 -0.6772
 8740TIP3   OH226155   8.179   0.871   1.363  0.2271 -0.2279 -0.0209
 8740TIP3    H126156   8.211   0.905   1.279  0.1149 -0.9023 -0.3435
 8740TIP3    H226157   8.250   0.889   1.425  1.4847 -2.1343 -0.8306
 8741TIP3   OH226158   4.042   5.715   3.364  0.1834 -0.0809  0.1103
 8741TIP3    H126159   4.009   5.625   3.376  1.8931 -0.3624  3.2054
 8741TIP3    H226160   4.029   5.757   3.449  2.7654  1.4719 -0.2137
 8742TIP3   OH226161   8.157   6.757   4.986  0.5935  0.1069  0.8380
 8742TIP3    H126162   8.071   6.798   4.989  1.2415  1.3652  3.2632
 8742TIP3    H226163   8.158   6.699   5.062  0.8153 -2.1731 -0.8479
 8743TIP3   OH226164   6.577   7.414   4.017  0.5997 -0.2968  0.2852
 8743TIP3    H126165   6.581   7.346   3.950  0.2897  0.6692 -0.7347
 8743TIP3    H226166   6.561   7.495   3.968  0.6083  0.4593  1.5064
 8744TIP3   OH226167   6.608   6.742   2.521  0.1806  0.3597  0.9648
 8744TIP3    H126168   6.558   6.824   2.521 -0.4312 -0.0153  0.5121
 8744TIP3    H226169   6.582   6.697   2.441  1.6225  0.3855  0.4615
 8745TIP3   OH226170   6.779   4.350   1.504  0.6149  0.1710  0.1931
 8745TIP3    H126171   6.834   4.352   1.583 -0.1424  2.0013  0.6880
 8745TIP3    H226172   6.691   4.331   1.538  0.2750  1.0347 -0.2162
 8746TIP3   OH226173   5.486   5.747   2.913 -0.0330  0.0716 -0.4319
 8746TIP3    H126174   5.400   5.786   2.927  1.8958  3.9378  1.6820
 8746TIP3    H226175   5.495   5.683   2.984 -1.1180 -0.3424 -0.6565
 8747TIP3   OH226176   8.276   7.737   1.354  0.0183  0.1194 -0.0865
 8747TIP3    H126177   8.303   7.728   1.445 -0.4975  1.4848  0.2205
 8747TIP3    H226178   8.356   7.759   1.307  0.0340  0.9165  0.2976
 8748TIP3   OH226179   5.913   4.215   5.388  0.1960  0.2041 -1.0956
 8748TIP3    H126180   5.894   4.204   5.481 -0.8225  2.0386 -1.0722
 8748TIP3    H226181   5.935   4.127   5.358  1.9562 -0.1826  1.1758
 8749TIP3   OH226182   4.672   3.273   3.401  0.1418  0.1639 -0.2969
 8749TIP3    H126183   4.627   3.240   3.323 -1.2192 -0.2924  0.6710
 8749TIP3    H226184   4.665   3.369   3.394 -1.0140  0.0912 -0.1356
 8750TIP3   OH226185   6.746   6.390   2.554 -0.5017 -0.0302 -0.0847
 8750TIP3    H126186   6.697   6.319   2.595 -0.8282  1.8986  3.0318
 8750TIP3    H226187   6.831   6.352   2.532 -0.9418 -1.5713  0.8246
 8751TIP3   OH226188   6.308   7.545   0.819  0.3696  0.4083 -0.5860
 8751TIP3    H126189   6.279   7.636   0.823  1.7257  0.8267  0.1080
 8751TIP3    H226190   6.265   7.503   0.894  0.8906  0.8226 -0.0531
 8752TIP3   OH226191   2.464   4.895   5.256 -0.3154 -0.2278 -0.7831
 8752TIP3    H126192   2.495   4.986   5.253  0.4458 -0.5098 -2.2638
 8752TIP3    H226193   2.533   4.849   5.304 -0.1803 -0.2046 -0.9512
 8753TIP3   OH226194   6.373   5.104   3.404  0.2036  0.0281  0.0467
 8753TIP3    H126195   6.327   5.031   3.445  0.1353  0.0526  0.0146
 8753TIP3    H226196   6.454   5.113   3.454 -0.0501  0.2994  0.4140
 8754TIP3   OH226197   7.128   6.998   2.489 -0.2565 -0.6841 -0.1358
 8754TIP3    H126198   7.066   6.930   2.515 -0.7733 -0.1650 -0.0228
 8754TIP3    H226199   7.197   6.950   2.443 -0.1807 -1.3912  0.7148
 8755TIP3   OH226200   5.035   5.044   3.229  0.3431  0.3194 -0.0997
 8755TIP3    H126201   5.050   5.040   3.323  0.1874 -0.5824 -0.1039
 8755TIP3    H226202   5.045   4.953   3.200  0.0863  0.5442 -0.9030
 8756TIP3   OH226203   5.928   7.525   4.222  0.3223  0.1683 -0.0107
 8756TIP3    H126204   5.955   7.439   4.190  2.5022  0.9159 -0.2473
 8756TIP3    H226205   5.863   7.555   4.159  2.5166  0.4162 -2.1933
 8757TIP3   OH226206   7.742   5.937   4.457 -0.0488  0.1121  0.4593
 8757TIP3    H126207   7.784   5.994   4.393 -0.6342 -0.5429 -0.5122
 8757TIP3    H226208   7.682   5.994   4.504 -1.6686  0.0449 -1.4510
 8758TIP3   OH226209   7.752   5.174   4.681 -0.1012 -0.1309  0.6201
 8758TIP3    H126210   7.690   5.247   4.671 -0.5978 -0.6757 -0.4389
 8758TIP3    H226211   7.779   5.154   4.591 -0.0899 -1.3611  0.8937
 8759TIP3   OH226212   0.381   8.001   5.453 -0.4448  0.4562  0.0962
 8759TIP3    H126213   0.423   7.952   5.523  1.2953  2.2051  0.3405
 8759TIP3    H226214   0.296   8.025   5.488  0.0832  0.6164  1.3019
 8760TIP3   OH226215   6.488   5.311   4.713 -0.0918 -0.1653 -0.2604
 8760TIP3    H126216   6.491   5.406   4.723 -0.0468 -0.2202  0.2477
 8760TIP3    H226217   6.491   5.277   4.802 -1.3230 -0.6126 -0.3794
 8761TIP3   OH226218   5.664   6.752   3.574 -0.0970  0.6097 -0.5781
 8761TIP3    H126219   5.657   6.828   3.515 -1.0402  0.9392 -0.0545
 8761TIP3    H226220   5.592   6.764   3.636  1.4907  0.7694  1.2521
 8762TIP3   OH226221   4.774   4.214   4.801 -0.2114 -0.3080 -0.0944
 8762TIP3    H126222   4.734   4.147   4.746 -2.9905  1.0525  0.1892
 8762TIP3    H226223   4.741   4.196   4.889  2.8671 -1.4491  0.8695
 8763TIP3   OH226224   5.128   4.630   2.125 -0.7927 -0.3495 -0.3923
 8763TIP3    H126225   5.077   4.683   2.187 -0.8475 -1.7204  0.7590
 8763TIP3    H226226   5.100   4.540   2.142  2.5997 -1.2318  0.9059
 8764TIP3   OH226227   6.272   7.293   3.734  0.1360  0.2394  0.0616
 8764TIP3    H126228   6.355   7.283   3.780  0.1853  1.4160  0.2325
 8764TIP3    H226229   6.218   7.345   3.794 -0.6325 -0.2939 -0.1634
 8765TIP3   OH226230   5.289   4.232   1.544  0.0056 -0.3929 -0.4755
 8765TIP3    H126231   5.355   4.163   1.541 -0.2804 -0.7028  0.4151
 8765TIP3    H226232   5.334   4.306   1.586  0.0525 -0.3151 -0.6622
 8766TIP3   OH226233   3.055   5.079   1.566  0.2748  0.7820  0.3212
 8766TIP3    H126234   3.067   5.154   1.506  1.6073  1.7007  1.6934
 8766TIP3    H226235   3.041   5.119   1.651 -1.8196 -0.5258  0.6322
 8767TIP3   OH226236   5.774   7.133   4.178 -0.3921  0.2659  0.3303
 8767TIP3    H126237   5.719   7.054   4.173  0.6903 -0.4277 -0.7144
 8767TIP3    H226238   5.722   7.200   4.135 -0.4396 -0.3871 -0.6483
 8768TIP3   OH226239   4.295   4.147   4.655 -0.1054 -0.3867 -0.4734
 8768TIP3    H126240   4.254   4.230   4.630 -1.2348 -1.0687 -0.9352
 8768TIP3    H226241   4.371   4.172   4.707 -1.7706  0.9067  1.4475
 8769TIP3   OH226242   4.273   5.651   5.403 -0.3700 -0.2303 -0.2342
 8769TIP3    H126243   4.203   5.716   5.409  0.7913  1.1303 -1.0469
 8769TIP3    H226244   4.340   5.683   5.463 -1.1371 -2.4593  1.8791
 8770TIP3   OH226245   3.748   5.360   2.162 -0.1574 -0.1411 -0.2310
 8770TIP3    H126246   3.776   5.432   2.218 -1.0559  1.2205 -1.4742
 8770TIP3    H226247   3.827   5.308   2.147  0.6903  1.0614  0.0187
 8771TIP3   OH226248   4.813   6.589   4.999 -0.2556 -0.3303  1.2070
 8771TIP3    H126249   4.848   6.670   4.961  0.5716 -0.3626  1.8938
 8771TIP3    H226250   4.723   6.612   5.024  0.1650  0.5577  1.9456
 8772TIP3   OH226251   2.882   6.689   3.763 -0.3045 -0.0890  0.3299
 8772TIP3    H126252   2.901   6.602   3.799  1.4379  0.1446 -0.0145
 8772TIP3    H226253   2.967   6.728   3.746 -1.0829  0.9695 -1.2785
 8773TIP3   OH226254   6.302   4.848   2.513  0.0004  0.3506 -0.4534
 8773TIP3    H126255   6.271   4.855   2.423 -0.1027 -1.5168 -0.5844
 8773TIP3    H226256   6.224   4.828   2.564  0.5110 -1.6149 -0.3960
 8774TIP3   OH226257   3.053   8.033   4.836  0.0269  0.1148  0.3319
 8774TIP3    H126258   2.975   7.986   4.807 -0.4322  2.0500 -1.7019
 8774TIP3    H226259   3.126   7.975   4.812 -0.6401 -0.4983 -0.2515
 8775TIP3   OH226260   4.084   6.533   5.418 -0.4975  0.4859  0.1167
 8775TIP3    H126261   4.001   6.559   5.457 -1.7623 -3.3547  0.2012
 8775TIP3    H226262   4.135   6.498   5.491 -0.2384 -0.4319 -0.4868
 8776TIP3   OH226263   6.975   5.991   1.129  0.3780 -0.3847  0.7495
 8776TIP3    H126264   6.908   6.025   1.070 -0.3401  0.4259  2.0122
 8776TIP3    H226265   7.057   6.029   1.098 -0.0166  0.1649  0.3847
 8777TIP3   OH226266   5.467   4.280   4.864 -0.2095  0.5358 -0.5137
 8777TIP3    H126267   5.396   4.332   4.902 -0.1891 -0.0454  0.3330
 8777TIP3    H226268   5.432   4.191   4.859  0.3741  0.2929 -0.3261
 8778TIP3   OH226269   6.270   6.685   1.179  0.0034 -0.0356  0.2176
 8778TIP3    H126270   6.197   6.726   1.225 -1.0977 -2.3980  0.6356
 8778TIP3    H226271   6.342   6.748   1.188 -1.7700  2.0456  0.3322
 8779TIP3   OH226272   4.952   6.340   5.934  0.1851 -0.1419  0.0602
 8779TIP3    H126273   4.872   6.294   5.960  0.5617 -0.3370  0.9049
 8779TIP3    H226274   4.983   6.380   6.016  0.4788  0.6578 -0.4388
 8780TIP3   OH226275   4.587   4.842   3.811 -0.5634 -0.6304  0.7734
 8780TIP3    H126276   4.550   4.776   3.753 -0.9570 -0.9176  1.3486
 8780TIP3    H226277   4.617   4.794   3.888 -0.5015 -0.1879  1.0310
 8781TIP3   OH226278   4.337   6.181   4.289 -0.2354  0.1783 -0.2434
 8781TIP3    H126279   4.405   6.247   4.272 -0.2520  0.2199 -0.1462
 8781TIP3    H226280   4.262   6.211   4.238 -0.2807  0.2960 -0.1068
 8782TIP3   OH226281   6.030   7.552   4.497  0.0563  0.3802 -0.7831
 8782TIP3    H126282   6.008   7.540   4.404 -1.7940 -0.8036 -0.2244
 8782TIP3    H226283   6.125   7.554   4.499  0.1510 -0.7603 -2.5939
 8783TIP3   OH226284   5.566   5.310   1.613 -0.1942  0.2465  0.0752
 8783TIP3    H126285   5.578   5.382   1.674  0.3499 -0.7785  1.1840
 8783TIP3    H226286   5.611   5.235   1.653 -1.0839 -0.8216 -0.8545
 8784TIP3   OH226287   0.864   3.298   2.711 -0.1828  0.4840  0.1040
 8784TIP3    H126288   0.820   3.276   2.793  1.0833 -3.1257 -0.0857
 8784TIP3    H226289   0.885   3.214   2.672  1.6953  2.1300 -2.6190
 8785TIP3   OH226290   5.786   2.827   2.891 -0.2350  0.3165  0.0296
 8785TIP3    H126291   5.728   2.820   2.967  0.8009  0.2196  0.8097
 8785TIP3    H226292   5.840   2.748   2.894 -1.0603 -0.3322 -1.5450
 8786TIP3   OH226293   4.301   3.917   4.514  0.1948  0.5662 -0.0436
 8786TIP3    H126294   4.286   4.001   4.558 -1.0518  0.7881 -0.8850
 8786TIP3    H226295   4.333   3.940   4.427 -1.0823  0.1902 -0.6205
 8787TIP3   OH226296   4.405   5.834   2.277  0.1723  0.2397  0.0712
 8787TIP3    H126297   4.312   5.830   2.302  0.4207  0.8067  1.1324
 8787TIP3    H226298   4.451   5.795   2.351  0.7724 -0.1627 -0.5179
 8788TIP3   OH226299   4.957   4.838   2.738 -0.1478  0.5387  0.3107
 8788TIP3    H126300   4.878   4.797   2.775  0.4147 -0.1546  0.7513
 8788TIP3    H226301   4.948   4.931   2.760 -1.6013  0.7285 -1.0035
 8789TIP3   OH226302   6.138   5.600   2.290 -0.2152 -0.0924  0.0796
 8789TIP3    H126303   6.117   5.508   2.281 -0.4395  0.1101 -1.6806
 8789TIP3    H226304   6.212   5.614   2.230 -1.7147  1.3527 -1.5073
 8790TIP3   OH226305   6.473   7.491   2.242  0.5706 -0.0491 -0.7180
 8790TIP3    H126306   6.523   7.427   2.191 -0.1104 -0.7910 -0.4680
 8790TIP3    H226307   6.428   7.544   2.177  0.2785 -0.5255 -0.9022
 8791TIP3   OH226308   4.133   6.826   2.276 -0.0830 -0.2340 -0.2935
 8791TIP3    H126309   4.174   6.908   2.249 -0.7340  0.7818  1.7130
 8791TIP3    H226310   4.200   6.759   2.259  0.1187  0.5341 -2.7925
 8792TIP3   OH226311   4.800   5.281   4.584 -0.5365 -0.2089 -0.2235
 8792TIP3    H126312   4.785   5.283   4.679 -0.1336  0.7136 -0.1762
 8792TIP3    H226313   4.724   5.327   4.548  1.0719  2.6744 -0.1075
 8793TIP3   OH226314   4.366   7.371   3.692  0.3663  0.5289 -0.2421
 8793TIP3    H126315   4.391   7.463   3.699 -1.9224  1.2193 -0.9211
 8793TIP3    H226316   4.363   7.355   3.598 -0.1419 -0.0073 -0.1317
 8794TIP3   OH226317   7.848   5.312   0.410  0.4197 -0.0716 -0.4065
 8794TIP3    H126318   7.868   5.251   0.480  0.2553 -0.8522 -1.0305
 8794TIP3    H226319   7.835   5.257   0.333 -0.1207  0.7158 -0.8913
 8795TIP3   OH226320   6.069   7.150   3.290 -0.3139  0.3928 -0.4052
 8795TIP3    H126321   5.997   7.089   3.304 -0.0832  0.0649 -0.6475
 8795TIP3    H226322   6.031   7.220   3.236 -0.9069  1.0967  0.8883
 8796TIP3   OH226323   7.580   6.939   4.984  0.2055  0.2984  0.0748
 8796TIP3    H126324   7.574   6.861   5.039  0.5003  0.3852  0.2285
 8796TIP3    H226325   7.647   6.917   4.918 -1.9206 -0.7722 -1.8057
 8797TIP3   OH226326   6.004   6.328   2.087 -0.1084 -0.2638  0.1189
 8797TIP3    H126327   5.983   6.394   2.154 -3.4099  1.6720 -2.6342
 8797TIP3    H226328   6.061   6.374   2.025  2.8765 -2.0209  1.4634
 8798TIP3   OH226329   7.241   5.033   4.790 -0.0871 -0.4564 -0.2372
 8798TIP3    H126330   7.165   5.048   4.733  0.5217  1.2544 -0.6347
 8798TIP3    H226331   7.315   5.069   4.740  0.7126 -0.4753  0.9280
 8799TIP3   OH226332   1.741   0.583   3.204  0.6059 -0.0191 -0.0935
 8799TIP3    H126333   1.655   0.590   3.245  1.2299  1.4368  0.9941
 8799TIP3    H226334   1.725   0.602   3.112 -0.1836  0.6725  0.1755
 8800TIP3   OH226335   7.136   6.589   2.218  0.6408 -0.1433 -0.2458
 8800TIP3    H126336   7.131   6.498   2.248  0.9097 -0.1138 -0.1122
 8800TIP3    H226337   7.091   6.588   2.134 -2.6129  0.3236  1.4079
 8801TIP3   OH226338   1.840   1.376   2.000 -0.3726 -0.0865 -0.0658
 8801TIP3    H126339   1.802   1.456   2.036  0.5833  0.9175 -1.2739
 8801TIP3    H226340   1.767   1.334   1.954 -0.4315  1.0077 -0.9824
 8802TIP3   OH226341   7.374   6.459   3.001 -0.1112 -0.3040  0.6090
 8802TIP3    H126342   7.295   6.511   3.004 -1.3307 -2.0565 -0.1937
 8802TIP3    H226343   7.394   6.440   3.092 -0.9724 -0.3786  0.7832
 8803TIP3   OH226344   1.546   0.263   2.984 -0.0618  0.2550 -0.5423
 8803TIP3    H126345   1.464   0.312   2.974  0.1489  1.1050  1.5827
 8803TIP3    H226346   1.615   0.328   2.973  0.2581  0.0475  0.1668
 8804TIP3   OH226347   5.996   6.925   1.678 -0.6299 -0.1499 -0.4141
 8804TIP3    H126348   5.910   6.886   1.695  0.2312 -2.1991 -0.5127
 8804TIP3    H226349   5.979   6.994   1.614 -2.3503  0.2287  0.4243
 8805TIP3   OH226350   4.202   6.628   2.503  0.3332 -0.2494 -0.4699
 8805TIP3    H126351   4.149   6.701   2.535 -1.2003 -1.6151  0.2092
 8805TIP3    H226352   4.271   6.669   2.451 -0.0707  1.7162  0.4887
 8806TIP3   OH226353   8.284   4.856   3.084 -0.3000 -0.4353  0.0256
 8806TIP3    H126354   8.212   4.918   3.087  1.1274  1.2063  1.0703
 8806TIP3    H226355   8.330   4.876   3.002 -0.3009 -0.6384 -0.0255
 8807TIP3   OH226356   2.608   0.565   2.280 -0.2178  0.5709  0.0178
 8807TIP3    H126357   2.532   0.507   2.291 -0.8424  1.3994  0.0982
 8807TIP3    H226358   2.601   0.596   2.190 -0.0515  0.7678  0.0738
 8808TIP3   OH226359   6.330   5.535   2.057 -0.1340  0.0736 -0.2907
 8808TIP3    H126360   6.305   5.448   2.026  1.0929 -0.7888  1.0511
 8808TIP3    H226361   6.393   5.566   1.992  1.1727 -1.0298  0.4128
 8809TIP3   OH226362   7.094   6.079   3.467  0.4428  0.6665 -0.0271
 8809TIP3    H126363   7.129   6.157   3.510  2.0372  1.8676 -3.3311
 8809TIP3    H226364   7.046   6.113   3.391 -1.2358 -1.4378  0.0607
 8810TIP3   OH226365   7.109   5.038   4.126 -0.0055  0.0042 -0.3587
 8810TIP3    H126366   7.024   5.024   4.167 -0.7522 -0.2813 -2.0009
 8810TIP3    H226367   7.117   5.133   4.118  0.4635  0.1078  1.0697
 8811TIP3   OH226368   7.259   5.048   2.934  0.4345  0.1509  0.3247
 8811TIP3    H126369   7.232   5.140   2.933 -0.4106 -0.0453  2.1630
 8811TIP3    H226370   7.183   5.001   2.897  1.4620  0.2955 -2.0747
 8812TIP3   OH226371   6.902   5.273   2.330  0.2098  0.2866 -0.0671
 8812TIP3    H126372   6.831   5.335   2.311 -0.7402 -0.5501  0.7184
 8812TIP3    H226373   6.868   5.219   2.401  1.9708  0.4249  0.9093
 8813TIP3   OH226374   6.055   5.111   4.045 -0.6933  0.5172 -0.3014
 8813TIP3    H126375   6.033   5.020   4.062  0.7647  0.3585  0.8253
 8813TIP3    H226376   5.974   5.160   4.063 -1.6039 -0.5751 -1.3514
 8814TIP3   OH226377   4.913   4.146   2.809 -0.4504  0.0105  0.3394
 8814TIP3    H126378   4.884   4.128   2.720  0.3050 -1.1029  0.3036
 8814TIP3    H226379   4.977   4.216   2.799  1.9530 -2.1906 -0.3967
 8815TIP3   OH226380   6.143   6.785   2.766  0.3538 -0.0859  0.3381
 8815TIP3    H126381   6.134   6.851   2.697 -0.9762  0.5043  1.0536
 8815TIP3    H226382   6.155   6.702   2.720 -1.0499  0.2257 -0.6037
 8816TIP3   OH226383   8.258   7.718   3.470 -0.5264 -0.2857  0.0719
 8816TIP3    H126384   8.347   7.741   3.446 -0.5226 -0.1347  0.2381
 8816TIP3    H226385   8.264   7.627   3.499 -0.0400  0.4194  2.2372
 8817TIP3   OH226386   6.060   6.014   3.111 -0.2600 -0.5973 -0.3356
 8817TIP3    H126387   6.063   6.098   3.157 -0.7523 -1.8265  2.0180
 8817TIP3    H226388   6.053   6.038   3.019 -3.4695  2.0082  0.4583
 8818TIP3   OH226389   7.474   5.953   3.509 -0.3419 -0.1927 -0.2012
 8818TIP3    H126390   7.567   5.932   3.518 -0.0845  0.4992 -1.0603
 8818TIP3    H226391   7.469   6.000   3.425 -1.0753  1.9981  1.0347
 8819TIP3   OH226392   7.484   4.858   3.793 -0.2510  0.1586  0.5530
 8819TIP3    H126393   7.556   4.859   3.857 -0.0726 -2.4015  0.4222
 8819TIP3    H226394   7.409   4.892   3.842  0.4903  0.6748  1.3633
 8820TIP3   OH226395   0.791   4.932   3.567 -0.5971  0.5329 -0.0366
 8820TIP3    H126396   0.878   4.955   3.598 -0.9165  2.3770 -0.4729
 8820TIP3    H226397   0.806   4.876   3.491  0.1932  0.3878  0.2243
 8821TIP3   OH226398   6.148   4.985   1.782  0.0874  0.2837  0.5208
 8821TIP3    H126399   6.145   5.080   1.776 -1.2648  0.1975 -0.6308
 8821TIP3    H226400   6.107   4.964   1.866  0.5266  0.7173  0.8436
 8822TIP3   OH226401   2.222   6.007   1.667  0.4441  0.3349  0.0765
 8822TIP3    H126402   2.284   6.079   1.679 -1.2749  2.0700 -1.2125
 8822TIP3    H226403   2.221   5.993   1.572 -1.1098  0.3117  0.0925
 8823TIP3   OH226404   6.899   4.332   2.543  0.0673 -0.1466 -0.4591
 8823TIP3    H126405   6.948   4.386   2.480  0.1386  1.0341  0.5977
 8823TIP3    H226406   6.852   4.395   2.597 -1.6307 -1.2374 -0.6407
 8824TIP3   OH226407   0.192   6.375   3.373  0.7505 -0.4740  0.0995
 8824TIP3    H126408   0.211   6.437   3.443  0.6453  0.2474 -0.4968
 8824TIP3    H226409   0.098   6.360   3.377  0.6101  0.2406 -0.4295
 8825TIP3   OH226410   6.321   6.260   3.709  0.4089 -0.5038 -0.4410
 8825TIP3    H126411   6.298   6.207   3.633  0.6079  0.0161 -0.8647
 8825TIP3    H226412   6.291   6.348   3.688 -3.0272 -1.0898  1.6813
 8826TIP3   OH226413   6.991   5.304   3.684 -0.3662  0.1297 -0.3443
 8826TIP3    H126414   7.038   5.223   3.665  0.4916  1.0340 -2.2122
 8826TIP3    H226415   6.934   5.317   3.607 -2.0802  0.2029  0.8966
 8827TIP3   OH226416   1.715   0.778   2.306 -0.3186  0.3766  0.2057
 8827TIP3    H126417   1.785   0.781   2.372  1.6462 -2.3973 -1.7015
 8827TIP3    H226418   1.721   0.863   2.262  2.0693  0.0710 -0.1298
 8828TIP3   OH226419   2.710   0.950   3.208 -0.2968 -0.1300  0.1746
 8828TIP3    H126420   2.713   1.044   3.190  0.1249 -0.2954 -0.6650
 8828TIP3    H226421   2.777   0.936   3.275  0.1839  0.0653 -0.2509
 8829TIP3   OH226422   2.880   0.269   2.717 -0.4089  0.0618  0.2509
 8829TIP3    H126423   2.879   0.284   2.622  2.0040 -0.5065  0.0830
 8829TIP3    H226424   2.969   0.296   2.744 -1.1231  0.4053  2.3834
 8830TIP3   OH226425   7.962   4.676   0.969 -0.2688 -0.5226 -0.0596
 8830TIP3    H126426   7.974   4.753   1.024  0.5271  0.8594 -2.1078
 8830TIP3    H226427   8.049   4.635   0.967 -1.0096 -2.2945  2.1572
 8831TIP3   OH226428   6.418   2.268   6.207 -0.1046  0.9507 -0.0098
 8831TIP3    H126429   6.513   2.262   6.192  0.1591  1.0667  1.5405
 8831TIP3    H226430   6.385   2.316   6.131  0.8488 -0.4589 -1.3535
 8832TIP3   OH226431   0.070   5.012   3.867 -0.3241  0.1897  0.0134
 8832TIP3    H126432   0.151   4.968   3.892 -1.1101 -0.6934  1.0727
 8832TIP3    H226433   0.062   5.085   3.929  0.4249  1.1984 -1.0562
 8833TIP3   OH226434   6.601   7.723   3.986 -0.4393  0.8783 -0.2124
 8833TIP3    H126435   6.615   7.713   4.080 -0.7938 -0.4114 -0.2900
 8833TIP3    H226436   6.674   7.778   3.957  2.0862 -2.1683  0.1154
 8834TIP3   OH226437   6.741   7.825   2.608  0.1364  0.9701  0.2908
 8834TIP3    H126438   6.822   7.794   2.648 -0.3083  0.8209  1.0868
 8834TIP3    H226439   6.728   7.767   2.533  0.5356  0.7113  0.4206
 8835TIP3   OH226440   1.128   0.196   3.293 -0.2437 -0.0864  0.1076
 8835TIP3    H126441   1.214   0.163   3.267  0.1550 -0.0451  1.3394
 8835TIP3    H226442   1.144   0.289   3.310 -1.0313  0.4255 -1.8857
 8836TIP3   OH226443   7.339   6.920   3.850 -0.2681  0.2937  0.1157
 8836TIP3    H126444   7.296   6.992   3.896  0.3872  0.8258 -0.0993
 8836TIP3    H226445   7.342   6.947   3.759 -0.5968 -0.2947 -0.0763
 8837TIP3   OH226446   7.866   6.931   0.941 -0.1176  0.3782  0.0122
 8837TIP3    H126447   7.780   6.972   0.933  0.7421  2.0914 -0.8289
 8837TIP3    H226448   7.851   6.852   0.992 -2.0200  1.1983  0.7617
 8838TIP3   OH226449   7.774   6.827   2.094  0.1947  0.0933  0.3754
 8838TIP3    H126450   7.726   6.864   2.167  2.7380  1.6269  1.3409
 8838TIP3    H226451   7.865   6.852   2.110  1.6225 -4.1625 -0.4742
 8839TIP3   OH226452   3.099   0.091   3.685  0.0658  0.1881 -0.4524
 8839TIP3    H126453   3.165   0.028   3.714 -0.4647 -0.2894 -0.2837
 8839TIP3    H226454   3.135   0.176   3.710  0.4348 -0.0959  0.0006
 8840TIP3   OH226455   7.344   6.567   4.197  0.3678 -0.2228  0.0831
 8840TIP3    H126456   7.281   6.504   4.232 -0.0977  0.6177  0.7739
 8840TIP3    H226457   7.427   6.519   4.194 -0.0468 -0.9656  0.2881
 8841TIP3   OH226458   2.022   0.795   2.814  0.1395 -0.6935 -0.4072
 8841TIP3    H126459   1.960   0.845   2.761  0.4005 -0.3164 -0.3565
 8841TIP3    H226460   1.995   0.811   2.905  1.1765  0.6255 -0.3161
 8842TIP3   OH226461   4.053   7.303   4.605 -0.5027 -0.5416 -0.0325
 8842TIP3    H126462   4.106   7.321   4.682  0.4015  2.0682 -1.1986
 8842TIP3    H226463   3.977   7.361   4.613  0.6356  1.3436 -2.0581
 8843TIP3   OH226464   0.951   0.211   4.849 -0.1051  0.4229 -0.0120
 8843TIP3    H126465   0.936   0.137   4.790  2.1083  1.5662 -2.0907
 8843TIP3    H226466   1.038   0.195   4.886 -0.5442  0.8670  1.2513
 8844TIP3   OH226467   6.848   6.922   2.009  0.1543 -0.2279 -0.2655
 8844TIP3    H126468   6.854   6.889   2.099 -1.5064 -3.5424 -1.3328
 8844TIP3    H226469   6.914   6.992   2.006  0.8410 -0.5994  3.2574
 8845TIP3   OH226470   7.307   4.603   1.410 -0.2517 -0.4868  0.2939
 8845TIP3    H126471   7.308   4.691   1.371  1.1750 -0.6522 -0.0656
 8845TIP3    H226472   7.324   4.544   1.337  1.0264 -0.9009  0.9131
 8846TIP3   OH226473   0.224   6.899   3.241 -0.1703 -0.1019 -0.0613
 8846TIP3    H126474   0.286   6.955   3.287 -0.9286  0.2429  0.5520
 8846TIP3    H226475   0.251   6.903   3.149 -0.6389  1.8392 -0.1367
 8847TIP3   OH226476   6.612   5.137   2.080 -0.3407  0.5752  0.2448
 8847TIP3    H126477   6.606   5.075   2.007 -3.8139  0.1986  0.7567
 8847TIP3    H226478   6.653   5.086   2.150  1.2294  0.3514 -0.8086
 8848TIP3   OH226479   7.027   4.754   3.488 -0.1035 -0.5176 -0.1831
 8848TIP3    H126480   7.116   4.726   3.507 -0.1618 -1.7550 -1.5401
 8848TIP3    H226481   6.980   4.746   3.571 -0.0366 -4.3192 -0.4323
 8849TIP3   OH226482   7.405   5.590   3.496  0.1601 -0.2118 -0.1890
 8849TIP3    H126483   7.367   5.509   3.530  0.1707  0.0172  0.3758
 8849TIP3    H226484   7.363   5.602   3.411 -1.8117  0.5663  0.8492
 8850TIP3   OH226485   7.883   4.529   4.673  0.9098 -0.5916 -0.6613
 8850TIP3    H126486   7.868   4.468   4.602  0.3771  0.3884 -1.4056
 8850TIP3    H226487   7.845   4.487   4.750  0.1967 -1.0163 -1.2479
 8851TIP3   OH226488   7.892   6.233   1.685  0.2378  0.2737  0.0540
 8851TIP3    H126489   7.895   6.138   1.698 -0.3463  0.0700 -1.2943
 8851TIP3    H226490   7.963   6.251   1.624 -0.5780  0.5101 -0.8365
 8852TIP3   OH226491   5.413   5.510   3.083 -0.1718 -0.1661 -0.3418
 8852TIP3    H126492   5.332   5.508   3.033 -0.1433  2.6089 -0.6038
 8852TIP3    H226493   5.424   5.421   3.115 -3.0815 -0.7029 -0.6915
 8853TIP3   OH226494   6.309   7.817   2.450 -0.0733 -0.1058 -0.3965
 8853TIP3    H126495   6.298   7.876   2.524  2.4293  0.4733 -0.4572
 8853TIP3    H226496   6.342   7.873   2.379 -0.6768 -0.9935 -1.4028
 8854TIP3   OH226497   6.961   6.319   4.221 -0.4991  0.1237  0.2525
 8854TIP3    H126498   6.923   6.357   4.142  1.8394 -1.2122 -1.6015
 8854TIP3    H226499   6.910   6.240   4.237 -2.3082  1.4759  1.3332
 8855TIP3   OH226500   7.460   4.322   0.670  0.3071  0.3491 -0.3902
 8855TIP3    H126501   7.455   4.348   0.578  1.5261 -1.5985 -1.0362
 8855TIP3    H226502   7.554   4.313   0.687 -0.0043 -2.0345  0.2383
 8856TIP3   OH226503   1.061   7.337   4.473 -0.6095 -0.1924 -0.4884
 8856TIP3    H126504   0.970   7.349   4.445 -0.3233 -1.6675 -2.0835
 8856TIP3    H226505   1.089   7.257   4.430  1.8396  0.8957 -0.9628
 8857TIP3   OH226506   7.051   4.523   2.359 -0.2576 -0.0608  0.0794
 8857TIP3    H126507   7.066   4.446   2.304 -0.8738 -0.8505  0.9757
 8857TIP3    H226508   7.132   4.534   2.408  0.3064  0.6764 -1.0329
 8858TIP3   OH226509   7.199   6.326   1.735  0.5277  0.1257 -0.0294
 8858TIP3    H126510   7.246   6.308   1.816  2.4694 -0.8992 -1.3588
 8858TIP3    H226511   7.191   6.241   1.692  0.8422  0.8788 -1.6142
 8859TIP3   OH226512   7.847   4.214   2.369 -0.3752  0.4549  0.3135
 8859TIP3    H126513   7.862   4.281   2.435 -1.2881 -1.2694  2.3264
 8859TIP3    H226514   7.762   4.236   2.331 -1.2689 -0.2615  1.8631
 8860TIP3   OH226515   6.727   6.830   3.247  0.1349 -0.2390  0.6225
 8860TIP3    H126516   6.744   6.922   3.268  1.8110 -0.2580 -0.5381
 8860TIP3    H226517   6.781   6.781   3.309 -0.0283 -0.4291  0.6142
 8861TIP3   OH226518   6.250   6.599   3.157  0.1454  0.4939  0.1192
 8861TIP3    H126519   6.345   6.613   3.152  0.3798 -1.8562 -3.1929
 8861TIP3    H226520   6.213   6.669   3.102  0.1109 -0.0466 -0.5467
 8862TIP3   OH226521   7.376   6.677   4.477  0.2676 -0.3546  0.6990
 8862TIP3    H126522   7.421   6.749   4.432  3.3975 -1.3467  2.1755
 8862TIP3    H226523   7.321   6.638   4.409  2.5014  0.1560 -1.4669
 8863TIP3   OH226524   6.093   4.474   3.232 -0.6787 -0.0220  0.3610
 8863TIP3    H126525   6.015   4.431   3.197 -1.3636  1.5943 -0.1564
 8863TIP3    H226526   6.065   4.563   3.250  1.7287  1.4103 -2.4018
 8864TIP3   OH226527   4.949   5.378   1.405  0.3058  0.0593 -0.3026
 8864TIP3    H126528   4.973   5.464   1.372  1.1075  0.3486  0.9772
 8864TIP3    H226529   5.033   5.339   1.431 -0.0120 -1.2309 -1.1467
 8865TIP3   OH226530   6.526   6.635   2.278  0.1419  0.4122  0.4598
 8865TIP3    H126531   6.449   6.578   2.276  1.0902 -0.8474 -0.1414
 8865TIP3    H226532   6.501   6.711   2.225 -0.8469  0.2090  0.6306
 8866TIP3   OH226533   0.022   7.089   2.309 -0.0830 -0.3675  0.6755
 8866TIP3    H126534   0.093   7.146   2.337 -0.2721 -0.3681  1.1615
 8866TIP3    H226535   0.003   7.035   2.386 -1.0352  0.0654  0.7448
 8867TIP3   OH226536   8.161   6.157   1.914 -0.4111 -0.1416  0.1094
 8867TIP3    H126537   8.093   6.123   1.856 -0.6729  0.5913 -0.0251
 8867TIP3    H226538   8.133   6.131   2.002 -1.1984  0.6878  0.1150
 8868TIP3   OH226539   7.694   7.316   1.910 -0.1244 -0.2378  0.1768
 8868TIP3    H126540   7.776   7.341   1.954  0.0275 -0.0507 -0.2118
 8868TIP3    H226541   7.722   7.287   1.823 -0.7623  2.9986 -1.1867
 8869TIP3   OH226542   6.814   7.087   1.231 -0.2317 -0.5444 -0.2782
 8869TIP3    H126543   6.871   7.023   1.273 -0.8218 -0.6656  0.3508
 8869TIP3    H226544   6.783   7.042   1.152 -0.5184 -0.9789  0.0783
 8870TIP3   OH226545   8.088   5.820   3.016 -0.2520 -0.3924 -0.2190
 8870TIP3    H126546   8.040   5.842   2.936  1.2957 -0.4309 -1.1610
 8870TIP3    H226547   8.037   5.749   3.055 -2.0010  0.8309 -0.2246
 8871TIP3   OH226548   7.259   4.111   2.385  0.2366 -0.0410  0.2198
 8871TIP3    H126549   7.205   4.152   2.453 -0.5830 -0.6478 -0.0557
 8871TIP3    H226550   7.324   4.060   2.434  0.9067  1.1244  0.5572
 8872TIP3   OH226551   7.552   7.086   2.728  0.6218  0.0339 -0.1007
 8872TIP3    H126552   7.513   7.124   2.807  1.8596  2.2967 -0.5247
 8872TIP3    H226553   7.644   7.110   2.733  1.3016 -2.3268 -0.8020
 8873TIP3   OH226554   7.866   7.786   4.233 -0.0510 -0.1531  0.0231
 8873TIP3    H126555   7.957   7.803   4.257  0.3731 -1.0989 -0.8973
 8873TIP3    H226556   7.871   7.730   4.156 -1.4081 -1.3367  0.7603
 8874TIP3   OH226557   4.553   2.836   6.926 -0.3366  0.0761  0.7448
 8874TIP3    H126558   4.546   2.774   6.853 -0.9864  0.6309  0.3345
 8874TIP3    H226559   4.472   2.887   6.923  0.4718  1.3796  0.6869
 8875TIP3   OH226560   2.011   0.791   2.389  0.8245  0.6024 -0.0229
 8875TIP3    H126561   1.963   0.865   2.426  1.5702  0.9060  0.3382
 8875TIP3    H226562   2.101   0.802   2.420  0.6600 -1.2173  1.2023
 8876TIP3   OH226563   8.119   7.446   2.204 -0.2164 -0.8059  0.1034
 8876TIP3    H126564   8.200   7.495   2.189 -1.5173  1.1584 -0.6179
 8876TIP3    H226565   8.121   7.425   2.297  0.4478  0.4674  0.3907
 8877TIP3   OH226566   7.389   5.970   2.637 -0.0601 -0.0124  0.2251
 8877TIP3    H126567   7.411   5.881   2.610 -1.1139 -0.2144  0.0062
 8877TIP3    H226568   7.300   5.963   2.673  0.5576  0.6060  1.9463
 8878TIP3   OH226569   1.044   5.899   3.289  0.7697 -0.8939  0.2160
 8878TIP3    H126570   1.041   5.837   3.362  1.3880  2.0255  2.8492
 8878TIP3    H226571   1.136   5.924   3.282  0.4124  0.3434 -0.2578
 8879TIP3   OH226572   6.338   5.909   4.164 -0.3543  0.1593  0.3203
 8879TIP3    H126573   6.342   5.993   4.119 -1.3216 -0.5286 -1.0806
 8879TIP3    H226574   6.256   5.911   4.212  0.3585  0.6207  1.5496
 8880TIP3   OH226575   6.065   5.265   2.543 -0.5012  0.1605  0.3082
 8880TIP3    H126576   6.023   5.181   2.564 -1.4128  0.6319  0.3884
 8880TIP3    H226577   5.997   5.316   2.499  0.1662  0.7192 -0.0878
 8881TIP3   OH226578   1.567   0.054   1.130  0.2394  0.1809 -0.2653
 8881TIP3    H126579   1.516   0.135   1.128  1.2190  0.7919 -0.9149
 8881TIP3    H226580   1.657   0.083   1.140  0.4449 -0.9070  1.2947
 8882TIP3   OH226581   7.772   5.489   4.603 -0.2365  0.3109 -0.0794
 8882TIP3    H126582   7.758   5.443   4.520  1.5013 -0.5194  0.0771
 8882TIP3    H226583   7.690   5.474   4.652  0.2900 -2.6694 -0.0252
 8883TIP3   OH226584   7.458   6.400   2.393 -0.2690 -0.0800  0.4229
 8883TIP3    H126585   7.528   6.348   2.431 -0.5335  0.1695  1.2563
 8883TIP3    H226586   7.377   6.356   2.420 -0.4404 -0.4533 -0.6549
 8884TIP3   OH226587   4.659   6.668   4.424 -0.5406  0.7292 -0.2960
 8884TIP3    H126588   4.596   6.667   4.495  0.0776 -1.4947  0.2850
 8884TIP3    H226589   4.628   6.600   4.363  1.2328 -0.3716 -0.0093
 8885TIP3   OH226590   1.811   0.669   1.626  0.2814  0.1051  0.4885
 8885TIP3    H126591   1.775   0.617   1.554  0.6332  0.9792 -0.3225
 8885TIP3    H226592   1.785   0.621   1.705  1.5505 -1.8856 -0.2886
 8886TIP3   OH226593   6.016   7.556   1.418  0.2129 -0.9623 -0.2588
 8886TIP3    H126594   6.084   7.590   1.477 -0.9272 -0.8254  0.9961
 8886TIP3    H226595   5.940   7.612   1.435  0.1710 -0.2612 -2.6051
 8887TIP3   OH226596   7.515   6.699   0.927 -0.5534 -0.5151 -0.0462
 8887TIP3    H126597   7.506   6.608   0.900 -0.0919 -1.1185  1.7670
 8887TIP3    H226598   7.426   6.734   0.926 -0.7781 -1.0992 -0.3225
 8888TIP3   OH226599   6.203   7.528   1.205  0.0508 -0.2780 -0.7522
 8888TIP3    H126600   6.116   7.507   1.239 -0.1394 -0.3137 -1.2549
 8888TIP3    H226601   6.257   7.538   1.283 -0.3505 -0.4888 -0.4430
 8889TIP3   OH226602   1.773   1.368   2.698 -0.2628 -0.0332  0.1667
 8889TIP3    H126603   1.783   1.371   2.603  1.3045 -0.1289  0.3075
 8889TIP3    H226604   1.785   1.459   2.726 -1.0142  0.0405  0.2457
 8890TIP3   OH226605   6.033   5.810   5.320 -0.1208 -0.0738  0.1504
 8890TIP3    H126606   5.939   5.819   5.337 -0.5965 -2.2647 -1.0158
 8890TIP3    H226607   6.045   5.847   5.232 -0.5101 -2.6908 -1.0399
 8891TIP3   OH226608   8.120   5.933   3.254 -0.5163  0.2566 -0.7393
 8891TIP3    H126609   8.102   5.911   3.163  0.4049 -0.9319 -0.6448
 8891TIP3    H226610   8.059   5.880   3.304  0.0659 -0.2872 -0.6030
 8892TIP3   OH226611   7.809   7.058   4.078  0.5028 -0.1332  0.1125
 8892TIP3    H126612   7.766   7.100   4.152 -2.0869 -0.8293 -0.9212
 8892TIP3    H226613   7.899   7.044   4.107 -0.3426 -0.0222  2.9489
 8893TIP3   OH226614   0.206   6.573   0.172 -0.0898 -0.0790 -0.0269
 8893TIP3    H126615   0.223   6.568   0.078  0.7928  2.0972 -0.0025
 8893TIP3    H226616   0.111   6.564   0.179 -0.0446 -1.4642 -1.0205
 8894TIP3   OH226617   7.318   7.259   1.645 -0.5986 -0.0066 -0.1669
 8894TIP3    H126618   7.375   7.325   1.684 -1.9406  0.2636  1.3914
 8894TIP3    H226619   7.337   7.178   1.693  0.2436 -0.4973 -1.3170
 8895TIP3   OH226620   6.150   7.190   1.819  0.1638  0.3995  0.5768
 8895TIP3    H126621   6.072   7.230   1.780  0.4511  0.6479  0.2467
 8895TIP3    H226622   6.116   7.117   1.871 -0.4195  1.3904  1.6211
 8896TIP3   OH226623   6.144   4.292   2.524  0.5771 -0.3047 -0.0909
 8896TIP3    H126624   6.167   4.237   2.600 -2.7370  1.2206  2.1605
 8896TIP3    H226625   6.184   4.377   2.543  0.8001 -0.2794 -0.6758
 8897TIP3   OH226626   8.355   7.283   3.373 -0.7807  0.0381 -0.4059
 8897TIP3    H126627   8.319   7.226   3.306 -0.6091 -1.8597  1.0520
 8897TIP3    H226628   8.390   7.223   3.439 -1.3124  1.8295  1.5687
 8898TIP3   OH226629   5.878   7.126   3.848 -0.0323  0.3218  0.6562
 8898TIP3    H126630   5.796   7.077   3.859  0.0316 -0.3287 -1.5840
 8898TIP3    H226631   5.909   7.142   3.937 -1.1963 -1.7911  1.4509
 8899TIP3   OH226632   6.887   4.102   2.375  0.6370  0.2612 -0.3462
 8899TIP3    H126633   6.877   4.177   2.434 -0.1812 -0.5878  0.5994
 8899TIP3    H226634   6.948   4.044   2.420  0.1425 -0.3122 -0.4189
 8900TIP3   OH226635   7.073   7.372   1.820  0.2542 -0.2684 -0.6011
 8900TIP3    H126636   7.092   7.465   1.833 -0.5733 -0.2905  0.9317
 8900TIP3    H226637   7.145   7.339   1.766  0.7145  1.1946 -0.8835
 8901TIP3   OH226638   7.837   4.500   3.456  0.0811 -0.5099 -0.1377
 8901TIP3    H126639   7.781   4.426   3.434  1.0474 -1.5603  0.8868
 8901TIP3    H226640   7.875   4.527   3.373 -2.1483  0.4049 -0.8982
 8902TIP3   OH226641   2.019   0.223   2.986 -0.1335  0.1668  0.3230
 8902TIP3    H126642   1.950   0.163   2.956 -0.6715  1.2507 -0.6379
 8902TIP3    H226643   2.023   0.209   3.080 -0.0902 -1.5563  0.0854
 8903TIP3   OH226644   7.449   4.843   1.130  0.4372  0.2792  0.5094
 8903TIP3    H126645   7.450   4.793   1.048 -0.7777  0.6321  0.2661
 8903TIP3    H226646   7.540   4.842   1.160  1.1779  1.3345 -1.5816
 8904TIP3   OH226647   3.291   0.720   3.148  0.6330 -0.3003  0.6445
 8904TIP3    H126648   3.351   0.704   3.074 -1.1455 -0.9399 -0.6947
 8904TIP3    H226649   3.239   0.640   3.153  1.6188 -0.8099  3.4890
 8905TIP3   OH226650   6.380   6.860   2.208 -0.2309  0.2803  0.3185
 8905TIP3    H126651   6.380   6.895   2.297  1.0629  0.9314  0.0714
 8905TIP3    H226652   6.294   6.818   2.198 -0.3725  0.1918  1.8706
 8906TIP3   OH226653   0.099   5.561   2.963  0.2334 -0.2506  0.0179
 8906TIP3    H126654   0.040   5.630   2.996  0.8136  0.5192 -0.5603
 8906TIP3    H226655   0.159   5.545   3.036 -0.2490 -0.5539  0.3596
 8907TIP3   OH226656   6.920   5.312   2.651  1.0774  0.4817 -0.6435
 8907TIP3    H126657   6.910   5.400   2.614  1.3785  1.3736  1.3135
 8907TIP3    H226658   6.892   5.321   2.742  0.2358 -1.6717 -0.6621
 8908TIP3   OH226659   8.243   5.892   4.762 -0.1782 -0.3795  0.0212
 8908TIP3    H126660   8.280   5.815   4.806  2.2982  0.4769 -0.4825
 8908TIP3    H226661   8.149   5.886   4.778  0.3947 -1.4014  3.3691
 8909TIP3   OH226662   6.327   6.734   0.211 -0.2158  0.0134 -0.3851
 8909TIP3    H126663   6.310   6.807   0.270 -0.3272 -0.6745  0.4456
 8909TIP3    H226664   6.358   6.775   0.130 -0.1152  0.9642  0.1310
 8910TIP3   OH226665   6.670   6.520   3.523 -0.3041 -0.1049  0.1597
 8910TIP3    H126666   6.598   6.573   3.488  0.5255  0.5850 -0.5426
 8910TIP3    H226667   6.660   6.524   3.618 -1.7217 -0.7714  0.0431
 8911TIP3   OH226668   6.000   7.350   3.068  0.3148 -0.1839  0.0504
 8911TIP3    H126669   5.909   7.373   3.084 -0.3193 -2.0566 -0.7187
 8911TIP3    H226670   6.015   7.372   2.977  0.5666 -0.1163  0.1075
 8912TIP3   OH226671   3.079   2.351   6.570  0.1774 -0.4441 -1.1749
 8912TIP3    H126672   3.090   2.343   6.664  1.4542 -2.3614 -1.4742
 8912TIP3    H226673   3.140   2.421   6.545  0.8320 -0.8766 -0.7812
 8913TIP3   OH226674   7.200   6.340   0.083  0.1794  0.6617 -0.1415
 8913TIP3    H126675   7.118   6.372   0.122 -0.0876  0.9503 -0.9229
 8913TIP3    H226676   7.265   6.349   0.152 -0.8782 -1.6181  1.2392
 8914TIP3   OH226677   6.822   5.339   3.383 -0.5447  0.4660 -0.3103
 8914TIP3    H126678   6.841   5.251   3.415 -0.5389  0.0040 -1.5828
 8914TIP3    H226679   6.764   5.326   3.308  0.8360  1.4268 -1.5761
 8915TIP3   OH226680   5.544   6.549   1.260 -0.3878  0.0286  0.4376
 8915TIP3    H126681   5.588   6.545   1.175  0.9785 -0.9172  1.1547
 8915TIP3    H226682   5.551   6.460   1.294  1.5569  0.9907  2.7241
 8916TIP3   OH226683   0.160   6.219   3.164 -0.1768  0.4200 -0.7854
 8916TIP3    H126684   0.173   6.262   3.249  0.8157  0.6884 -1.0674
 8916TIP3    H226685   0.107   6.141   3.185  1.0861 -0.1827  0.2660
 8917TIP3   OH226686   7.019   5.025   1.779  0.6451 -0.6312 -0.0383
 8917TIP3    H126687   7.096   4.972   1.798 -0.2714 -1.9717  0.0189
 8917TIP3    H226688   6.990   5.058   1.864  1.7895  0.7865 -0.1863
 8918TIP3   OH226689   1.145   7.951   3.248 -0.2231 -0.2422  0.1993
 8918TIP3    H126690   1.201   7.954   3.326  1.3487 -1.3975 -0.8609
 8918TIP3    H226691   1.169   7.870   3.203 -2.5103 -0.5961 -0.4841
 8919TIP3   OH226692   0.499   6.260   5.383 -0.4682 -0.5190 -0.2380
 8919TIP3    H126693   0.571   6.319   5.361 -2.3514  1.3562 -1.5680
 8919TIP3    H226694   0.423   6.298   5.339 -2.3990 -2.1019  1.6446
 8920TIP3   OH226695   6.038   6.995   2.010  0.5988  0.0378 -0.2117
 8920TIP3    H126696   5.954   7.035   1.987  0.3498  0.1161  0.8159
 8920TIP3    H226697   6.022   6.901   2.004  0.8212  0.0570 -1.3332
 8921TIP3   OH226698   1.976   0.501   2.296 -0.0369  0.4586  0.0854
 8921TIP3    H126699   2.032   0.543   2.231 -0.2314  0.6717  0.0533
 8921TIP3    H226700   1.925   0.573   2.334  1.4203  0.6266  1.8202
 8922TIP3   OH226701   8.054   5.540   1.373  0.4779 -0.5377  0.5337
 8922TIP3    H126702   8.041   5.623   1.328 -1.3857 -0.5363  1.0362
 8922TIP3    H226703   8.093   5.564   1.457  0.5462 -0.2297  0.4149
 8923TIP3   OH226704   5.782   7.118   3.569 -0.5000 -0.1919  0.0383
 8923TIP3    H126705   5.833   7.136   3.648  0.2257 -0.1308 -0.4420
 8923TIP3    H226706   5.839   7.062   3.516 -0.5493  0.6621 -0.9274
 8924TIP3   OH226707   7.772   2.672   5.473 -0.1118  0.0463 -1.0847
 8924TIP3    H126708   7.841   2.605   5.477  0.7153  0.9520  0.2025
 8924TIP3    H226709   7.816   2.753   5.496 -1.5464  0.7132 -0.6416
 8925TIP3   OH226710   8.175   5.617   4.266 -0.4524 -0.6563 -0.2512
 8925TIP3    H126711   8.096   5.638   4.217  0.0580 -3.1419 -2.2596
 8925TIP3    H226712   8.245   5.622   4.201  0.9841  0.9488  1.3774
 8926TIP3   OH226713   4.340   0.781   2.376  0.3614  0.5311  0.4705
 8926TIP3    H126714   4.399   0.854   2.359  0.8134  0.1151  0.2305
 8926TIP3    H226715   4.253   0.815   2.354  0.5475  1.0468  0.5202
 8927TIP3   OH226716   8.178   5.292   2.829  0.3150 -0.4862 -0.0931
 8927TIP3    H126717   8.085   5.303   2.806  0.4684 -1.5585 -1.2944
 8927TIP3    H226718   8.196   5.200   2.808  1.4786 -0.4595  0.7824
 8928TIP3   OH226719   7.256   7.050   2.111 -0.0776  0.0521 -0.5743
 8928TIP3    H126720   7.290   6.981   2.168 -0.4986 -0.7983 -1.3477
 8928TIP3    H226721   7.334   7.099   2.084 -0.0447  1.6820  2.2774
 8929TIP3   OH226722   6.446   5.075   1.577  1.0897 -0.3514  0.8143
 8929TIP3    H126723   6.501   5.093   1.501  0.6872 -0.5338  0.4797
 8929TIP3    H226724   6.456   5.152   1.633  0.1503  0.4822 -0.1500
 8930TIP3   OH226725   7.981   4.058   3.854  0.0440 -0.9781 -0.3112
 8930TIP3    H126726   7.910   4.110   3.815  0.3535 -0.4588 -0.1786
 8930TIP3    H226727   7.978   4.080   3.947  2.2088  1.2219 -0.7221
 8931TIP3   OH226728   3.568   0.248   3.179  0.2383 -0.3161  0.4074
 8931TIP3    H126729   3.595   0.172   3.128 -0.0332 -1.1789  1.5083
 8931TIP3    H226730   3.495   0.286   3.130  0.7617 -0.4127 -0.4541
 8932TIP3   OH226731   2.726   0.950   2.358  0.5700 -0.0641 -0.0332
 8932TIP3    H126732   2.678   1.026   2.324  0.6893 -0.0296 -0.1249
 8932TIP3    H226733   2.660   0.901   2.407  0.3151 -0.2966 -0.6078
 8933TIP3   OH226734   8.257   6.936   4.523 -0.5570 -0.4182 -0.0711
 8933TIP3    H126735   8.232   7.006   4.584 -1.0467 -1.1327  0.5676
 8933TIP3    H226736   8.308   6.980   4.456  1.0055  0.2048  1.4818
 8934TIP3   OH226737   4.728   5.955   4.831 -0.3991 -0.1452 -0.0233
 8934TIP3    H126738   4.668   5.929   4.901 -0.6025 -0.5459 -0.3460
 8934TIP3    H226739   4.672   5.993   4.763 -0.2679 -0.3487 -0.2457
 8935TIP3   OH226740   8.238   3.031   4.810 -0.2609 -0.7982  0.0070
 8935TIP3    H126741   8.316   3.052   4.860  0.5051 -0.7099 -1.2019
 8935TIP3    H226742   8.252   2.941   4.780 -0.1855 -0.4610 -0.9966
 8936TIP3   OH226743   6.475   5.990   1.466  0.2825  0.0685 -0.0942
 8936TIP3    H126744   6.457   5.986   1.559  0.3976  1.3056 -0.0146
 8936TIP3    H226745   6.569   5.975   1.459  0.2722 -0.0316 -0.0191
 8937TIP3   OH226746   6.466   8.020   2.363 -0.2354  0.3406  0.0717
 8937TIP3    H126747   6.532   7.987   2.302 -0.1975  0.2230  0.1755
 8937TIP3    H226748   6.511   8.021   2.448  0.3671  2.4330 -0.2394
 8938TIP3   OH226749   6.779   6.236   1.941 -0.8581 -0.2252  0.4442
 8938TIP3    H126750   6.713   6.283   1.991 -0.7741  0.8406 -0.4202
 8938TIP3    H226751   6.770   6.269   1.852  0.4177 -0.5265  0.1828
 8939TIP3   OH226752   6.171   5.630   3.006  0.6095  0.0237  0.9238
 8939TIP3    H126753   6.082   5.660   3.022  0.0146 -0.7782 -0.7646
 8939TIP3    H226754   6.165   5.534   3.007  0.8106 -0.0656 -2.4076
 8940TIP3   OH226755   6.997   7.807   2.391 -0.3485  0.3520  0.3206
 8940TIP3    H126756   6.978   7.895   2.423  0.2197 -0.1588  2.1329
 8940TIP3    H226757   7.015   7.756   2.470  0.3257 -1.1498 -0.7714
 8941TIP3   OH226758   1.407   3.693   4.417  0.3041  0.0617 -0.5159
 8941TIP3    H126759   1.367   3.618   4.373  0.1998  0.2143 -0.6854
 8941TIP3    H226760   1.483   3.657   4.463 -2.3410 -1.0157  3.2824
 8942TIP3   OH226761   7.108   5.833   1.648 -0.0894  0.2401 -0.7023
 8942TIP3    H126762   7.127   5.760   1.590 -0.4482 -1.4815  1.3016
 8942TIP3    H226763   7.107   5.795   1.736  0.9353  2.8582  0.5050
 8943TIP3   OH226764   7.372   6.725   2.130  0.2100  0.3709  0.8608
 8943TIP3    H126765   7.382   6.793   2.197 -1.9487  1.9955 -0.3816
 8943TIP3    H226766   7.293   6.677   2.156 -0.0419  0.3416  0.0595
 8944TIP3   OH226767   6.377   6.938   1.841 -0.1562  0.2810  0.4457
 8944TIP3    H126768   6.411   6.999   1.906  0.7741  0.8020 -0.5008
 8944TIP3    H226769   6.283   6.938   1.853 -0.0092  0.5746  1.6058
 8945TIP3   OH226770   2.427   0.418   1.650 -0.0915 -0.1540 -0.0457
 8945TIP3    H126771   2.487   0.380   1.585 -0.0106  2.0684 -1.3054
 8945TIP3    H226772   2.447   0.370   1.731  2.3077 -0.5167 -0.8087
 8946TIP3   OH226773   6.786   6.548   4.803 -0.1005  0.0384  0.2195
 8946TIP3    H126774   6.711   6.555   4.744 -0.1588 -1.8092  0.0574
 8946TIP3    H226775   6.795   6.455   4.820  2.3364  0.2066  0.0179
 8947TIP3   OH226776   0.323   5.090   4.475  0.1190  0.5594 -0.3806
 8947TIP3    H126777   0.387   5.135   4.531 -0.5835  1.0697  0.0135
 8947TIP3    H226778   0.242   5.139   4.486 -0.2985  0.0279 -1.0330
 8948TIP3   OH226779   2.587   1.039   0.643  0.3861 -0.0725 -0.1410
 8948TIP3    H126780   2.499   1.009   0.665  0.6998 -0.9121 -0.0150
 8948TIP3    H226781   2.619   0.975   0.579  1.7723 -1.1399  1.5500
 8949TIP3   OH226782   6.837   5.968   4.934  0.2143 -0.3638  0.3357
 8949TIP3    H126783   6.766   5.980   4.997  1.6394  1.6745  1.6315
 8949TIP3    H226784   6.853   5.874   4.932 -0.6643 -0.5709  2.1327
 8950TIP3   OH226785   0.212   6.828   3.520  0.2833 -0.3117 -0.5276
 8950TIP3    H126786   0.187   6.827   3.427 -1.2475  0.1070 -0.1295
 8950TIP3    H226787   0.281   6.894   3.525 -2.0099  2.1923 -0.7928
 8951TIP3   OH226788   7.881   5.720   4.552  0.4821  0.6369 -0.0329
 8951TIP3    H126789   7.831   5.781   4.497  1.4014 -0.0648 -1.6809
 8951TIP3    H226790   7.823   5.645   4.563  0.3604  0.7097 -0.1651
 8952TIP3   OH226791   6.197   5.313   3.030  0.0098 -0.4566  0.3673
 8952TIP3    H126792   6.165   5.241   3.084 -1.7819  0.1334  0.1475
 8952TIP3    H226793   6.276   5.344   3.074 -0.3773 -1.1987  1.6103
 8953TIP3   OH226794   3.948   6.177   2.666 -0.5811  0.0739 -0.1827
 8953TIP3    H126795   3.852   6.183   2.665 -0.7268 -1.7955 -0.9324
 8953TIP3    H226796   3.978   6.258   2.626 -1.9497 -0.1931 -1.8139
 8954TIP3   OH226797   5.895   6.295   2.509  0.4087  0.0014 -0.3897
 8954TIP3    H126798   5.942   6.219   2.543  0.0614 -0.3463 -0.6910
 8954TIP3    H226799   5.804   6.267   2.504  0.3937  0.1900 -1.2029
 8955TIP3   OH226800   5.031   6.797   3.397 -0.2471 -0.3643 -0.6919
 8955TIP3    H126801   5.027   6.889   3.371 -1.5533 -0.5073 -1.0742
 8955TIP3    H226802   5.090   6.795   3.472  0.0585  0.7302 -0.8955
 8956TIP3   OH226803   8.066   6.300   1.482  0.0212 -0.6924 -0.1720
 8956TIP3    H126804   8.084   6.394   1.492 -0.4061 -0.8544  2.6139
 8956TIP3    H226805   8.150   6.262   1.459  0.7220  0.0857  1.0270
 8957TIP3   OH226806   6.538   6.997   2.836 -0.4392 -0.4637 -0.0151
 8957TIP3    H126807   6.521   7.089   2.815 -0.6871 -0.5027  0.0173
 8957TIP3    H226808   6.629   6.983   2.809  0.7507  0.7127  3.1324
 8958TIP3   OH226809   8.417   6.845   2.474 -0.2364  0.1401  0.3936
 8958TIP3    H126810   8.342   6.853   2.415 -0.0796 -0.6975  0.0761
 8958TIP3    H226811   8.398   6.768   2.527  0.6337 -0.3733 -0.0326
 8959TIP3   OH226812   4.385   7.202   2.413  0.1892  0.5017  0.0420
 8959TIP3    H126813   4.423   7.128   2.461 -1.3173  1.0925  2.2207
 8959TIP3    H226814   4.330   7.161   2.346  0.2324 -0.3652  0.5240
 8960TIP3   OH226815   5.471   6.415   2.672 -0.4089  0.0836 -0.6341
 8960TIP3    H126816   5.391   6.410   2.619 -0.6149  0.6397 -0.3774
 8960TIP3    H226817   5.506   6.503   2.653  0.4380 -0.3611 -1.1747
 8961TIP3   OH226818   1.822   0.273   2.309  0.2732  0.3435 -0.0450
 8961TIP3    H126819   1.869   0.348   2.271  0.4982  0.9461  1.4102
 8961TIP3    H226820   1.806   0.216   2.234  4.1079 -0.2926 -0.5221
 8962TIP3   OH226821   5.321   5.125   2.109 -0.0802  0.2797  0.0489
 8962TIP3    H126822   5.332   5.131   2.204  0.3390  1.1017 -0.0455
 8962TIP3    H226823   5.289   5.212   2.084 -1.1654 -0.2499 -0.4307
 8963TIP3   OH226824   6.787   5.555   1.074 -0.0150  0.1442 -0.1611
 8963TIP3    H126825   6.827   5.476   1.037 -0.0434  0.5033 -0.9783
 8963TIP3    H226826   6.862   5.611   1.096  0.0220 -0.3376  0.9283
 8964TIP3   OH226827   6.149   7.769   5.480  0.5275  0.4203  0.1807
 8964TIP3    H126828   6.233   7.723   5.478 -0.1062 -0.7795  0.9297
 8964TIP3    H226829   6.095   7.719   5.542 -1.3772  0.0406 -1.7186
 8965TIP3   OH226830   7.738   4.778   2.425 -0.0459 -0.0569 -0.2662
 8965TIP3    H126831   7.704   4.861   2.459  2.1718  0.5918  0.4395
 8965TIP3    H226832   7.810   4.803   2.367  0.3020 -1.4759 -0.4637
 8966TIP3   OH226833   0.309   7.682   4.248  0.1470  0.4339 -0.3253
 8966TIP3    H126834   0.306   7.592   4.215 -2.0697  0.0451  0.8379
 8966TIP3    H226835   0.402   7.704   4.249  0.6719 -1.6148 -1.2337
 8967TIP3   OH226836   0.159   3.831   2.644  0.0849 -0.0585  0.1501
 8967TIP3    H126837   0.139   3.740   2.620  1.5226 -0.5876  0.8508
 8967TIP3    H226838   0.104   3.884   2.587 -1.0498 -1.3850 -0.0010
 8968TIP3   OH226839   4.598   4.370   3.651  0.3400  0.3823 -0.3072
 8968TIP3    H126840   4.678   4.318   3.642  0.7734  1.3434 -2.3341
 8968TIP3    H226841   4.540   4.316   3.704  1.0786 -1.8271 -1.6897
 8969TIP3   OH226842   6.312   5.991   0.645  0.2082  0.1747 -0.3083
 8969TIP3    H126843   6.363   5.910   0.650 -0.9384 -0.5797 -0.6828
 8969TIP3    H226844   6.306   6.021   0.736 -0.3742 -0.7878 -0.0343
 8970TIP3   OH226845   1.067   4.684   3.320 -0.0785 -1.0751 -0.0161
 8970TIP3    H126846   1.157   4.716   3.322 -0.1131 -1.0299  1.0413
 8970TIP3    H226847   1.062   4.631   3.240  0.4199  0.2707 -0.9497
 8971TIP3   OH226848   8.417   4.550   4.193  0.7163 -0.5250 -0.0660
 8971TIP3    H126849   8.479   4.491   4.237  0.8615  0.1517  0.6370
 8971TIP3    H226850   8.338   4.546   4.247  1.2435  1.1095  0.8695
 8972TIP3   OH226851   6.970   6.236   2.544  0.4345 -0.2669  0.4618
 8972TIP3    H126852   6.988   6.207   2.455 -1.3373 -0.0953  0.0324
 8972TIP3    H226853   7.029   6.183   2.599  0.2795 -1.6340 -0.6613
 8973TIP3   OH226854   7.247   5.826   3.365 -0.2892 -0.1157  0.4956
 8973TIP3    H126855   7.195   5.903   3.385  0.8506  0.8641 -0.2882
 8973TIP3    H226856   7.286   5.801   3.449 -1.1111 -0.1904  0.8581
 8974TIP3   OH226857   6.323   6.444   2.278 -0.1466  0.0818 -0.2783
 8974TIP3    H126858   6.324   6.404   2.364 -0.1815 -0.8333 -0.6967
 8974TIP3    H226859   6.231   6.441   2.251 -0.0911  0.0763 -0.4733
 8975TIP3   OH226860   7.202   4.965   3.390  0.2999 -0.4233  0.2686
 8975TIP3    H126861   7.164   4.918   3.317  1.4476  0.3435 -0.8458
 8975TIP3    H226862   7.171   4.918   3.468 -2.2216 -0.3077 -0.6138
 8976TIP3   OH226863   7.898   5.620   3.091 -0.0841 -0.0785 -0.1992
 8976TIP3    H126864   7.826   5.654   3.037  0.8240 -0.8889 -1.9866
 8976TIP3    H226865   7.919   5.535   3.051  1.5283 -0.0766  0.6041
 8977TIP3   OH226866   0.809   5.259   4.958 -0.8839  0.1909  0.3253
 8977TIP3    H126867   0.793   5.322   4.888  0.9247 -0.6887 -0.9401
 8977TIP3    H226868   0.861   5.190   4.916  0.2847 -0.3342  2.5480
 8978TIP3   OH226869   6.893   5.041   5.368  0.6209  0.0006  0.0947
 8978TIP3    H126870   6.947   5.051   5.446  0.2737  0.0726  0.3221
 8978TIP3    H226871   6.907   5.122   5.319 -0.1653  0.4945  0.6945
 8979TIP3   OH226872   4.657   2.083   6.801  0.3515 -0.0046 -0.4767
 8979TIP3    H126873   4.660   2.174   6.830 -0.1939 -0.4251  0.9320
 8979TIP3    H226874   4.652   2.032   6.881 -1.7020 -1.1633 -1.2831
 8980TIP3   OH226875   0.298   3.407   2.563 -0.3806  0.2172 -0.0179
 8980TIP3    H126876   0.357   3.401   2.638  0.3354  1.1682 -0.4860
 8980TIP3    H226877   0.357   3.416   2.487 -1.0958 -0.5252 -0.6777
 8981TIP3   OH226878   2.534   0.773   4.843 -0.2713  0.2567  0.4179
 8981TIP3    H126879   2.463   0.714   4.867 -0.9376  0.3102 -1.3452
 8981TIP3    H226880   2.516   0.797   4.752  1.2517  1.3588  0.3816
 8982TIP3   OH226881   3.594   1.784   6.187  0.0125  0.1781 -0.6222
 8982TIP3    H126882   3.650   1.792   6.109  2.2545  1.2757  1.0304
 8982TIP3    H226883   3.600   1.691   6.211  1.5433  0.3683 -0.1985
 8983TIP3   OH226884   4.962   0.079   4.014 -0.0537 -0.5854  0.4542
 8983TIP3    H126885   5.047   0.122   4.006  0.4483 -1.6740 -0.1012
 8983TIP3    H226886   4.976   0.009   4.079 -1.4138  1.4150  3.0190
 8984TIP3   OH226887   0.406   4.563   3.435  0.4991 -0.4821  0.4632
 8984TIP3    H126888   0.352   4.640   3.418  0.8822 -0.7834 -2.2614
 8984TIP3    H226889   0.495   4.597   3.441  0.5537 -0.5895  0.2615
 8985TIP3   OH226890   1.600   0.874   5.758 -0.1584 -0.1049  0.1920
 8985TIP3    H126891   1.676   0.887   5.701  1.2293 -0.4995  1.8822
 8985TIP3    H226892   1.534   0.934   5.725  2.1997  3.0859  0.9750
 8986TIP3   OH226893   4.827   1.983   2.855  0.5508 -0.0221  0.5517
 8986TIP3    H126894   4.900   1.928   2.884  0.2064 -1.1988 -0.7951
 8986TIP3    H226895   4.749   1.943   2.894  0.4369  0.3059  0.6701
 8987TIP3   OH226896   0.378   7.407   4.216 -0.4961 -0.8984  0.7306
 8987TIP3    H126897   0.375   7.311   4.220  0.9405 -1.1158 -1.9060
 8987TIP3    H226898   0.463   7.430   4.253 -0.9366 -0.6100  1.5724
 8988TIP3   OH226899   0.185   7.912   6.148 -0.1074 -0.2351 -0.0423
 8988TIP3    H126900   0.116   7.845   6.151 -0.8387  0.5020 -0.0083
 8988TIP3    H226901   0.166   7.961   6.068 -1.1545  1.5512  1.2469
 8989TIP3   OH226902   0.422   7.401   4.612 -0.1930  0.9395  0.2654
 8989TIP3    H126903   0.363   7.407   4.687 -1.5729 -1.7279 -0.5858
 8989TIP3    H226904   0.451   7.491   4.598 -0.3528  1.5831  3.6313
 8990TIP3   OH226905   2.823   0.235   4.798  0.5092 -0.3337 -0.2266
 8990TIP3    H126906   2.756   0.183   4.843  1.0691 -0.0407  0.9884
 8990TIP3    H226907   2.774   0.290   4.738 -0.5660  1.3715  2.1162
 8991TIP3   OH226908   0.485   7.193   2.143  0.0276  0.3657  0.1088
 8991TIP3    H126909   0.489   7.269   2.085 -1.3894  1.2082  1.0679
 8991TIP3    H226910   0.418   7.137   2.104 -0.0389  0.3497  0.2454
 8992TIP3   OH226911   7.804   7.038   3.082  0.0653  0.0651  0.5418
 8992TIP3    H126912   7.732   7.072   3.028  0.7760  2.7455  1.1845
 8992TIP3    H226913   7.856   6.985   3.021 -1.3134 -0.2090 -0.4205
 8993TIP3   OH226914   4.172   0.783   4.004 -0.0032 -0.5952  0.1216
 8993TIP3    H126915   4.179   0.809   3.912  0.6095 -1.7606 -0.1714
 8993TIP3    H226916   4.112   0.709   4.004 -0.9884  0.1850  0.8299
 8994TIP3   OH226917   6.803   7.505   1.339  0.3727 -0.7213  0.0457
 8994TIP3    H126918   6.735   7.519   1.405 -0.1168 -1.0079 -0.3912
 8994TIP3    H226919   6.765   7.539   1.258  0.8603 -0.6268 -0.1412
 8995TIP3   OH226920   2.627   7.216   5.567  0.0326 -0.1831  0.3224
 8995TIP3    H126921   2.604   7.303   5.597 -0.3019 -0.4122  0.7326
 8995TIP3    H226922   2.716   7.202   5.598 -0.7292 -0.8877  2.2801
 8996TIP3   OH226923   0.779   6.736   2.915  1.2620 -0.1479  0.2681
 8996TIP3    H126924   0.804   6.815   2.962 -0.7429 -0.3004  1.6576
 8996TIP3    H226925   0.691   6.754   2.881  0.9565 -1.5932  0.2199
 8997TIP3   OH226926   0.010   7.052   3.253 -0.2835 -0.3205  0.2869
 8997TIP3    H126927   0.074   6.981   3.256  0.9298  0.7090 -0.9826
 8997TIP3    H226928  -0.073   7.010   3.278  0.2664 -2.3457 -1.2036
 8998TIP3   OH226929   0.028   7.485   3.736  0.4575 -0.5929 -0.6329
 8998TIP3    H126930   0.089   7.491   3.662  1.6528 -0.9384  0.3034
 8998TIP3    H226931   0.082   7.455   3.809 -0.6558  0.0276  0.4601
 8999TIP3   OH226932   0.066   7.991   1.491  0.0056  0.5831 -0.0961
 8999TIP3    H126933   0.036   8.064   1.544  1.7323  1.9441 -0.9599
 8999TIP3    H226934   0.125   7.942   1.548  1.1950  1.5668 -0.4679
 9000TIP3   OH226935   0.078   7.514   4.667  0.3564  0.2388 -0.4776
 9000TIP3    H126936   0.151   7.508   4.727  0.7044 -0.2466 -0.9502
 9000TIP3    H226937   0.047   7.605   4.676  1.0181  0.4462 -0.2957
 9001TIP3   OH226938   2.578   1.918   2.765  0.1337 -0.3355 -0.6937
 9001TIP3    H126939   2.538   1.838   2.731  0.5406 -0.2801 -1.3071
 9001TIP3    H226940   2.600   1.896   2.855  1.0586 -1.2115 -1.1249
 9002TIP3   OH226941   7.311   7.682   5.710  0.0561  0.1548  0.3801
 9002TIP3    H126942   7.365   7.662   5.634  0.7352 -0.2296  0.9611
 9002TIP3    H226943   7.223   7.694   5.675  0.5847  1.1944 -0.6324
 9003TIP3   OH226944   3.654   6.540   6.368  0.6922 -0.4495 -0.1511
 9003TIP3    H126945   3.744   6.509   6.379  1.1612  1.3846  1.2884
 9003TIP3    H226946   3.661   6.615   6.309  0.3038  0.5621  1.0592
 9004TIP3   OH226947   3.194   1.526   2.581 -0.4661 -0.9835  0.2586
 9004TIP3    H126948   3.279   1.502   2.618 -0.8470 -0.4803  1.4962
 9004TIP3    H226949   3.192   1.621   2.584 -1.1420 -0.9990  0.4029
 9005TIP3   OH226950   1.510   7.321   5.494 -0.4253 -0.0887 -0.3199
 9005TIP3    H126951   1.539   7.230   5.492 -0.8575 -0.2451  0.3009
 9005TIP3    H226952   1.572   7.368   5.438  0.0032 -0.7044 -0.3616
 9006TIP3   OH226953   4.083   7.378   6.387  0.0995 -0.1933 -0.0449
 9006TIP3    H126954   3.998   7.339   6.366  0.1644  0.1959 -1.0749
 9006TIP3    H226955   4.102   7.348   6.476  0.2633 -2.7303 -0.8701
 9007TIP3   OH226956   1.423   6.657   4.987  0.0399  0.4043 -0.5060
 9007TIP3    H126957   1.447   6.567   4.964  1.1003  0.6548 -0.4031
 9007TIP3    H226958   1.363   6.685   4.917  0.4367 -0.0644 -1.0305
 9008TIP3   OH226959   0.530   7.674   4.562 -0.0059  0.0648 -0.0767
 9008TIP3    H126960   0.626   7.671   4.567 -0.0701 -1.6154  0.8501
 9008TIP3    H226961   0.504   7.731   4.634  0.3456  1.4894 -1.0776
 9009TIP3   OH226962   2.342   7.237   4.135 -0.1279  0.0959 -0.2743
 9009TIP3    H126963   2.376   7.248   4.224 -0.1660  0.9258 -0.3514
 9009TIP3    H226964   2.293   7.155   4.136  0.1545 -0.0614  0.3817
 9010TIP3   OH226965   2.936   0.924   3.397 -0.0126 -0.3574 -0.2739
 9010TIP3    H126966   3.017   0.925   3.346  0.4832 -0.7216  0.5123
 9010TIP3    H226967   2.936   0.839   3.442 -2.3542 -1.7241 -2.7115
 9011TIP3   OH226968   1.569   7.005   4.813 -0.2462  0.1764  0.2873
 9011TIP3    H126969   1.579   7.015   4.718 -0.5167 -1.6262  0.0547
 9011TIP3    H226970   1.619   7.078   4.849  0.4166  0.5138 -1.2336
 9012TIP3   OH226971   1.333   7.607   3.363 -0.8282  0.2857 -0.1449
 9012TIP3    H126972   1.273   7.599   3.437  0.7065  0.6851  1.1643
 9012TIP3    H226973   1.420   7.601   3.401 -0.0180 -0.8502 -2.0952
 9013TIP3   OH226974   4.201   0.346   1.556  0.3861 -0.2550 -0.3569
 9013TIP3    H126975   4.165   0.426   1.595  1.3527 -0.5004  1.0742
 9013TIP3    H226976   4.291   0.369   1.534  0.6058 -0.8862 -0.1128
 9014TIP3   OH226977   7.888   7.402   2.082 -0.2312  0.4634 -0.7345
 9014TIP3    H126978   7.976   7.411   2.118 -1.3879  2.6740  1.6307
 9014TIP3    H226979   7.867   7.309   2.093  0.7798  0.4380  1.0728
 9015TIP3   OH226980   1.315   7.371   4.704  0.0666 -0.1436 -0.0748
 9015TIP3    H126981   1.332   7.430   4.778 -1.6835  1.4217 -0.8777
 9015TIP3    H226982   1.228   7.334   4.722  0.7720 -1.8062 -0.0294
 9016TIP3   OH226983   2.225   0.541   3.564 -0.1660  0.2412  0.2637
 9016TIP3    H126984   2.268   0.530   3.479 -2.1981 -1.7044 -0.5649
 9016TIP3    H226985   2.283   0.497   3.626 -0.9691 -2.5523 -0.8764
 9017TIP3   OH226986   0.408   7.518   3.107  0.0215  0.2588 -0.4303
 9017TIP3    H126987   0.503   7.511   3.116 -0.1836 -1.6412  0.4194
 9017TIP3    H226988   0.376   7.520   3.197 -0.6393  2.9483 -0.6783
 9018TIP3   OH226989   1.067   7.057   3.782  0.2119  0.4789  0.5598
 9018TIP3    H126990   1.138   7.021   3.836 -1.1693 -1.5842  1.0417
 9018TIP3    H226991   1.007   7.097   3.844  0.4057  1.2707  0.2424
 9019TIP3   OH226992   5.647   0.067   4.664  0.3119 -0.0724  0.1422
 9019TIP3    H126993   5.603   0.152   4.657  2.1729  0.9907  0.8738
 9019TIP3    H226994   5.594   0.018   4.727  0.2991  1.2815  1.2318
 9020TIP3   OH226995   6.416   0.330   5.804  0.0193 -0.2048 -0.3340
 9020TIP3    H126996   6.470   0.371   5.736  0.1723  0.6271  0.2688
 9020TIP3    H226997   6.456   0.360   5.886 -0.4309 -0.8404  0.1199
 9021TIP3   OH226998   3.661   7.665   3.015 -0.4817 -0.4079 -0.1332
 9021TIP3    H126999   3.632   7.750   3.049 -0.9936  0.2175 -2.0259
 9021TIP3    H227000   3.580   7.621   2.991 -0.1153 -0.3894 -1.4801
 9022TIP3   OH227001   3.267   1.568   4.242 -1.0012 -0.0079  0.1397
 9022TIP3    H127002   3.246   1.604   4.329  1.4754  0.7045  0.5057
 9022TIP3    H227003   3.322   1.636   4.202 -1.0755 -0.8985 -1.4727
 9023TIP3   OH227004   3.948   1.061   3.083 -0.2796 -0.0968  0.3033
 9023TIP3    H127005   3.874   1.109   3.046 -0.1803  0.7679  1.2243
 9023TIP3    H227006   3.992   1.124   3.140  0.1587 -1.1221  1.1194
 9024TIP3   OH227007   1.861   6.340   3.512  0.3406 -0.0469  0.2185
 9024TIP3    H127008   1.852   6.385   3.596  0.5826 -1.0735  0.8025
 9024TIP3    H227009   1.939   6.285   3.522 -1.5461 -2.7891  0.5334
 9025TIP3   OH227010   3.309   6.345   3.169 -0.1772  0.1659 -0.2710
 9025TIP3    H127011   3.231   6.324   3.118  1.0882  0.4814 -2.3972
 9025TIP3    H227012   3.358   6.263   3.174 -0.1270  0.2177  0.1675
 9026TIP3   OH227013   4.470   0.509   1.981 -0.0627 -0.2720  0.5037
 9026TIP3    H127014   4.448   0.454   1.906  0.0119  1.6426 -0.9582
 9026TIP3    H227015   4.399   0.573   1.985  0.6456  0.4646  1.2425
 9027TIP3   OH227016   0.428   6.839   6.831  0.1982 -0.2745  0.3531
 9027TIP3    H127017   0.452   6.889   6.753 -1.5325  1.0272  0.6148
 9027TIP3    H227018   0.466   6.752   6.817 -0.0920 -0.0595 -1.9303
 9028TIP3   OH227019   4.795   0.669   5.183  0.0813  0.6856 -0.1342
 9028TIP3    H127020   4.756   0.730   5.246 -2.1442 -0.8360  0.0383
 9028TIP3    H227021   4.874   0.637   5.226  0.7783  2.7481  0.1499
 9029TIP3   OH227022   2.400   1.031   2.633 -0.0931  0.3530  0.6434
 9029TIP3    H127023   2.388   0.991   2.547 -1.7645  2.3490 -0.0900
 9029TIP3    H227024   2.484   1.078   2.625  1.1053 -1.6923  1.0143
 9030TIP3   OH227025   2.621   6.686   3.901  0.4672 -0.0023  0.1354
 9030TIP3    H127026   2.715   6.692   3.886  0.2602 -1.1693 -1.7723
 9030TIP3    H227027   2.594   6.776   3.918  1.5050  0.7336 -1.9919
 9031TIP3   OH227028   2.146   4.965   5.150 -0.5600  0.8529 -0.2643
 9031TIP3    H127029   2.052   4.984   5.149 -0.5813  0.8451  0.9552
 9031TIP3    H227030   2.158   4.906   5.224  0.5472  1.6162  0.1733
 9032TIP3   OH227031   6.046   0.694   4.953 -0.4650  0.2065 -0.1442
 9032TIP3    H127032   6.027   0.648   4.871  0.3130  0.9544 -0.7506
 9032TIP3    H227033   6.122   0.649   4.989 -1.9610 -1.3443  1.1467
 9033TIP3   OH227034   4.144   1.019   4.433  0.1676 -0.2229 -0.0603
 9033TIP3    H127035   4.155   1.114   4.433  1.0319 -0.3153 -1.2565
 9033TIP3    H227036   4.110   0.998   4.346  0.5596 -1.0643 -0.0230
 9034TIP3   OH227037   5.012   0.811   3.761 -0.5589  0.0957 -0.2222
 9034TIP3    H127038   5.010   0.805   3.857 -1.6940  0.1882 -0.2318
 9034TIP3    H227039   5.032   0.903   3.744 -0.6393  0.1421 -0.0740
 9035TIP3   OH227040   5.763   0.385   5.693 -0.1326 -0.1775  0.0085
 9035TIP3    H127041   5.844   0.349   5.729 -0.0249  1.2276  1.2355
 9035TIP3    H227042   5.774   0.379   5.598  0.3471 -2.2687  0.1709
 9036TIP3   OH227043   1.644   5.260   4.013  0.3826 -1.0909  0.3565
 9036TIP3    H127044   1.700   5.233   3.940 -1.1743 -1.3925 -0.7412
 9036TIP3    H227045   1.680   5.345   4.040  1.2144 -1.1618 -0.5070
 9037TIP3   OH227046   2.263   7.910   4.717 -0.3878  0.0849  0.5536
 9037TIP3    H127047   2.247   7.883   4.807 -1.7792  1.3516  0.6991
 9037TIP3    H227048   2.317   7.988   4.724 -0.4649  0.1630  0.2821
 9038TIP3   OH227049   0.683   7.775   3.021  0.4080 -0.2901  0.1892
 9038TIP3    H127050   0.686   7.697   3.076 -1.2166 -0.4333  0.1018
 9038TIP3    H227051   0.730   7.751   2.941 -0.6335 -1.3865 -0.0948
 9039TIP3   OH227052   6.142   0.632   4.498 -0.1713  0.2006 -0.5514
 9039TIP3    H127053   6.100   0.585   4.570  0.5190  1.1479  0.4766
 9039TIP3    H227054   6.071   0.682   4.458 -0.2529  0.9116  0.4700
 9040TIP3   OH227055   0.470   7.585   2.640  0.0370  0.4149 -0.3330
 9040TIP3    H127056   0.534   7.529   2.683  0.9222  2.0986  0.5960
 9040TIP3    H227057   0.406   7.604   2.708 -0.9066 -0.4199 -0.9772
 9041TIP3   OH227058   6.833   0.913   4.662 -0.3990  0.6219 -0.0931
 9041TIP3    H127059   6.823   0.850   4.735  2.0423  0.3054 -0.0109
 9041TIP3    H227060   6.852   0.858   4.586 -1.7440  1.0451 -0.7476
 9042TIP3   OH227061   5.600   1.504   5.959 -0.2298 -0.0711  0.0288
 9042TIP3    H127062   5.533   1.481   6.023 -0.8526 -0.9124 -0.9142
 9042TIP3    H227063   5.654   1.570   6.004 -0.0436 -1.3760  1.7765
 9043TIP3   OH227064   2.196   6.951   5.345  0.3454  0.4603  0.4033
 9043TIP3    H127065   2.191   6.967   5.251  1.9521  0.2075  0.2518
 9043TIP3    H227066   2.275   6.999   5.373  0.2464  0.0035  1.5032
 9044TIP3   OH227067   3.267   0.569   3.636  0.6441  0.0804 -0.3029
 9044TIP3    H127068   3.327   0.502   3.604  1.3366  0.6828 -0.2996
 9044TIP3    H227069   3.282   0.644   3.578 -0.7139 -0.0472 -0.8257
 9045TIP3   OH227070   2.505   7.947   3.104 -0.2703  0.1735 -0.0959
 9045TIP3    H127071   2.572   7.895   3.060 -0.5101  0.0852 -0.3585
 9045TIP3    H227072   2.439   7.964   3.036 -0.6297  0.0522  0.2238
 9046TIP3   OH227073   2.578   6.904   4.134  0.0905 -0.2025  0.8734
 9046TIP3    H127074   2.500   6.908   4.078  1.9307  1.0423 -1.6729
 9046TIP3    H227075   2.550   6.943   4.217 -1.7976  0.9345 -0.2596
 9047TIP3   OH227076   3.046   7.525   6.248  0.3289 -0.5934 -0.5286
 9047TIP3    H127077   3.118   7.468   6.277  0.3362 -1.1210 -1.5452
 9047TIP3    H227078   3.087   7.611   6.237  0.2092 -0.2599  1.4893
 9048TIP3   OH227079   4.343   1.583   3.364  0.4175 -0.3483  0.1176
 9048TIP3    H127080   4.356   1.489   3.355 -0.1540 -0.4088 -0.0975
 9048TIP3    H227081   4.248   1.593   3.376  0.3046  0.3117 -1.2600
 9049TIP3   OH227082   1.971   5.859   3.040 -0.1931 -0.3447  0.0737
 9049TIP3    H127083   1.909   5.929   3.062  0.4031  0.5196 -0.9911
 9049TIP3    H227084   1.939   5.824   2.956  0.5927 -0.0899 -0.3344
 9050TIP3   OH227085   1.931   7.792   3.299 -0.2364 -0.2751  0.0716
 9050TIP3    H127086   1.851   7.813   3.250 -0.4649 -0.0212  0.5449
 9050TIP3    H227087   1.992   7.862   3.274  0.0005 -0.7328 -0.6536
 9051TIP3   OH227088   3.704   0.099   3.770  0.4740  0.3435 -0.3510
 9051TIP3    H127089   3.722   0.118   3.677  0.7637 -0.3587 -0.4394
 9051TIP3    H227090   3.609   0.087   3.774  0.6026 -0.8791 -0.7933
 9052TIP3   OH227091   0.435   6.559   3.545  0.2357  0.4010 -0.4178
 9052TIP3    H127092   0.422   6.618   3.471 -1.3531 -0.3258 -0.7512
 9052TIP3    H227093   0.348   6.548   3.583  1.0318  0.7298  1.5551
 9053TIP3   OH227094   8.178   7.212   4.872  0.3941 -0.0209  0.3141
 9053TIP3    H127095   8.108   7.176   4.927  0.3062 -1.7311 -0.8966
 9053TIP3    H227096   8.256   7.209   4.928  0.0078 -0.4103  0.8345
 9054TIP3   OH227097   3.444   8.028   1.539 -0.2808  0.2123  0.3953
 9054TIP3    H127098   3.365   7.991   1.578  0.1733 -0.3500  0.7930
 9054TIP3    H227099   3.482   7.956   1.488  0.3240  0.2759  0.7454
 9055TIP3   OH227100   2.753   1.232   3.115  0.1859  0.0222  0.0411
 9055TIP3    H127101   2.847   1.220   3.129  0.3859  2.6350  1.3616
 9055TIP3    H227102   2.739   1.208   3.024  1.8489 -1.8739  0.2579
 9056TIP3   OH227103   1.139   7.078   4.412  0.1731 -0.1293 -0.0320
 9056TIP3    H127104   1.143   6.987   4.385  0.6869  0.2497 -1.2791
 9056TIP3    H227105   1.222   7.094   4.457 -0.6316 -0.7286  1.6731
 9057TIP3   OH227106   2.077   7.966   6.846  0.4367  0.7045 -0.0970
 9057TIP3    H127107   2.100   7.930   6.931  1.7578  1.1389 -0.2523
 9057TIP3    H227108   2.153   8.020   6.821 -0.0381  0.7915 -1.4191
 9058TIP3   OH227109   2.247   6.848   6.095  0.4439  0.7120 -0.1698
 9058TIP3    H127110   2.333   6.883   6.070  0.4917 -0.1728 -1.2689
 9058TIP3    H227111   2.261   6.754   6.106 -0.1200  0.7394  0.8595
 9059TIP3   OH227112   5.147   0.493   4.848  0.0859 -0.5898  0.7851
 9059TIP3    H127113   5.065   0.472   4.894 -0.8592 -0.1224 -0.6610
 9059TIP3    H227114   5.145   0.438   4.770 -0.0306  1.2223 -0.5088
 9060TIP3   OH227115   2.078   6.107   6.240  0.2665 -0.3572  0.1048
 9060TIP3    H127116   2.156   6.052   6.250 -0.0240 -0.6697  0.6711
 9060TIP3    H227117   2.018   6.053   6.189  0.0046 -0.5323  0.6065
 9061TIP3   OH227118   2.045   5.846   6.650  0.0761  0.7293 -0.4407
 9061TIP3    H127119   1.954   5.844   6.620 -0.1012  1.1582  0.0503
 9061TIP3    H227120   2.064   5.940   6.662  0.3745  0.6081  0.0623
 9062TIP3   OH227121   2.113   7.886   4.228  0.3609 -0.8454  0.3151
 9062TIP3    H127122   2.019   7.872   4.224  0.3081 -0.5014  0.3572
 9062TIP3    H227123   2.131   7.904   4.321  0.2019  0.9631  0.0099
 9063TIP3   OH227124   1.183   7.923   1.724  0.7941 -0.4511 -0.4107
 9063TIP3    H127125   1.278   7.930   1.734  0.4661 -0.0387  3.0996
 9063TIP3    H227126   1.150   8.013   1.737 -0.1276 -0.7106 -0.8696
 9064TIP3   OH227127   1.936   5.982   2.691 -0.1914  0.1141  0.1917
 9064TIP3    H127128   2.023   5.958   2.660  0.0291 -0.0704  0.9312
 9064TIP3    H227129   1.876   5.938   2.631  0.2276 -0.1680 -0.0208
 9065TIP3   OH227130   4.362   0.775   2.877  0.2135  0.1756  0.0004
 9065TIP3    H127131   4.419   0.707   2.840  0.0425 -0.0200  0.0945
 9065TIP3    H227132   4.274   0.742   2.862  0.1322  0.3492  0.1052
 9066TIP3   OH227133   5.368   1.104   4.405  0.3252  0.3245  0.1478
 9066TIP3    H127134   5.371   1.146   4.319  0.8854  0.2179  0.1096
 9066TIP3    H227135   5.406   1.017   4.389  0.8072  0.4542  0.5867
 9067TIP3   OH227136   1.542   7.757   4.216 -0.1126  0.1299 -0.5240
 9067TIP3    H127137   1.545   7.852   4.200 -1.2023  0.3295  0.4076
 9067TIP3    H227138   1.609   7.721   4.157  1.0077  1.5745 -0.1823
 9068TIP3   OH227139   8.338   6.383   1.912 -0.0363  0.1654 -0.1685
 9068TIP3    H127140   8.295   6.306   1.948 -1.0286  0.2753 -1.1108
 9068TIP3    H227141   8.268   6.446   1.898  0.3492  0.2307 -2.0209
 9069TIP3   OH227142   2.672   7.286   3.856  0.0511 -0.2802  0.1345
 9069TIP3    H127143   2.675   7.255   3.946  0.1090 -1.4908 -0.2700
 9069TIP3    H227144   2.632   7.213   3.807 -3.1506  1.6547 -0.2891
 9070TIP3   OH227145   6.633   0.952   4.121  0.5470 -0.4574 -0.3423
 9070TIP3    H127146   6.635   0.868   4.167  1.6104 -0.2503  0.0115
 9070TIP3    H227147   6.541   0.978   4.122  0.3468 -1.1737  0.3569
 9071TIP3   OH227148   2.744   0.033   3.095 -0.4089 -0.3841  0.3013
 9071TIP3    H127149   2.816   0.030   3.157 -0.3401  0.5958  0.2694
 9071TIP3    H227150   2.666   0.044   3.149 -0.2771  1.2916  0.1903
 9072TIP3   OH227151   2.867   5.495   2.725 -0.4041 -0.1437 -0.9238
 9072TIP3    H127152   2.801   5.425   2.723  0.9888 -1.5737  1.3617
 9072TIP3    H227153   2.817   5.574   2.745 -1.3804 -1.3321  1.5413
 9073TIP3   OH227154   4.233   3.128   3.685 -0.3900 -0.1276  0.2980
 9073TIP3    H127155   4.318   3.172   3.693 -1.3385  1.5948  1.3137
 9073TIP3    H227156   4.201   3.121   3.775 -0.8435 -1.7744  0.0275
 9074TIP3   OH227157   2.221   6.778   4.804 -0.0107 -0.0091  0.0338
 9074TIP3    H127158   2.217   6.740   4.716 -0.0809 -0.8982  0.4170
 9074TIP3    H227159   2.296   6.734   4.845  0.8650  1.3826 -0.0289
 9075TIP3   OH227160   2.108   5.786   3.650  0.5958  0.3155  0.3261
 9075TIP3    H127161   2.174   5.822   3.710  1.6258 -0.7376 -0.1430
 9075TIP3    H227162   2.155   5.776   3.567 -0.1889 -0.3529 -0.0404
 9076TIP3   OH227163   3.745   0.256   2.332  0.2003 -0.2640  0.6781
 9076TIP3    H127164   3.712   0.230   2.418  0.0747  0.4174  0.8399
 9076TIP3    H227165   3.833   0.219   2.328  0.7121  0.7929  1.6403
 9077TIP3   OH227166   0.025   7.663   4.292  0.0427  0.3533 -0.3052
 9077TIP3    H127167   0.119   7.678   4.282  0.3564 -0.7395  0.8783
 9077TIP3    H227168  -0.002   7.728   4.358  0.4203 -0.7933  1.0167
 9078TIP3   OH227169   0.917   6.222   3.672  0.2338 -0.1986  0.1502
 9078TIP3    H127170   0.898   6.302   3.623  0.5108 -0.2552 -0.0520
 9078TIP3    H227171   0.998   6.241   3.719 -0.3038  0.0324  0.9891
 9079TIP3   OH227172   2.328   6.283   3.588  0.1771 -0.2968  0.0080
 9079TIP3    H127173   2.327   6.194   3.553 -1.0464 -1.0083  1.8239
 9079TIP3    H227174   2.374   6.276   3.671 -1.7674  0.3646  1.1668
 9080TIP3   OH227175   3.923   7.065   6.083 -0.5108  0.3703  0.4138
 9080TIP3    H127176   3.844   7.010   6.086  0.1244 -0.6790 -1.3453
 9080TIP3    H227177   3.898   7.140   6.029 -0.1846 -0.2084 -0.5644
 9081TIP3   OH227178   1.659   7.265   3.664 -0.1346  0.0407 -0.4802
 9081TIP3    H127179   1.736   7.321   3.674  0.2999 -0.8560  1.4696
 9081TIP3    H227180   1.590   7.311   3.712 -0.2760 -0.1484 -0.5038
 9082TIP3   OH227181   5.763   0.058   4.036 -0.6284  0.2137 -0.5130
 9082TIP3    H127182   5.853   0.045   4.067 -1.1548 -0.1897  0.8697
 9082TIP3    H227183   5.764   0.028   3.945  0.1952 -1.5368  0.0604
 9083TIP3   OH227184   3.171   7.379   3.191  0.6121 -0.4206 -0.2998
 9083TIP3    H127185   3.217   7.307   3.147  0.6309 -0.0676 -0.8671
 9083TIP3    H227186   3.172   7.355   3.284  1.8398 -0.4799 -0.3110
 9084TIP3   OH227187   2.641   6.679   4.275 -0.2939  0.0526 -0.1603
 9084TIP3    H127188   2.702   6.632   4.218 -2.3004 -0.7837 -1.6994
 9084TIP3    H227189   2.605   6.749   4.219 -0.3391  0.8839  0.8936
 9085TIP3   OH227190   4.608   0.466   3.351 -0.6058  0.2272 -0.1356
 9085TIP3    H127191   4.599   0.497   3.441 -0.0856  0.3336 -0.1220
 9085TIP3    H227192   4.583   0.541   3.297  0.2394  0.5377 -0.0967
 9086TIP3   OH227193   8.463   7.756   3.766  0.5371  0.2043 -0.2827
 9086TIP3    H127194   8.472   7.661   3.766 -1.0753  0.0311 -1.0584
 9086TIP3    H227195   8.468   7.781   3.674  1.6077  0.9449 -0.0326
 9087TIP3   OH227196   1.833   6.454   3.759 -0.0049  0.4969  0.1876
 9087TIP3    H127197   1.877   6.472   3.842  1.3030 -2.3663  0.1770
 9087TIP3    H227198   1.845   6.533   3.707  0.8691  1.5841  2.0181
 9088TIP3   OH227199   0.656   6.230   5.072  0.3746 -0.6487  0.6304
 9088TIP3    H127200   0.614   6.254   4.989  0.0151  1.0707  1.2844
 9088TIP3    H227201   0.586   6.191   5.124  0.2415 -0.3391  0.6847
 9089TIP3   OH227202   1.856   6.758   4.216 -0.0331 -0.0201  0.2450
 9089TIP3    H127203   1.764   6.757   4.189 -0.1896  0.5921  0.7366
 9089TIP3    H227204   1.905   6.777   4.136 -0.5534  2.7864  0.5343
 9090TIP3   OH227205   2.677   6.479   3.664 -0.2376 -0.2983 -0.1955
 9090TIP3    H127206   2.716   6.395   3.686  0.6316  0.0447 -0.3703
 9090TIP3    H227207   2.654   6.519   3.748 -0.4099 -0.5980 -0.1017
 9091TIP3   OH227208   4.978   3.416   5.111  0.2821  0.0801  0.3453
 9091TIP3    H127209   4.973   3.332   5.064  0.6127 -0.1818  0.7802
 9091TIP3    H227210   4.939   3.398   5.196  0.2158  0.4115  0.3865
 9092TIP3   OH227211   3.118   7.938   3.597 -0.4279  0.2169 -0.1270
 9092TIP3    H127212   3.189   8.000   3.616 -2.7319  2.3708  1.8832
 9092TIP3    H227213   3.153   7.853   3.622  0.7949  1.5124  2.8685
 9093TIP3   OH227214   8.025   7.767   2.368  0.1435 -0.1557  0.2186
 9093TIP3    H127215   8.015   7.791   2.461  0.1228  0.0781  0.1552
 9093TIP3    H227216   8.103   7.712   2.367 -0.2747 -0.7613  0.4875
 9094TIP3   OH227217   3.484   0.104   5.675  0.1926 -0.7313  0.5493
 9094TIP3    H127218   3.480   0.042   5.602 -0.1408 -1.6081  1.3090
 9094TIP3    H227219   3.424   0.068   5.740 -0.8755  0.9939  0.5446
 9095TIP3   OH227220   4.515   0.750   4.007 -0.0831  0.1008  0.2580
 9095TIP3    H127221   4.476   0.669   3.972 -1.8148  1.1956 -0.4120
 9095TIP3    H227222   4.544   0.726   4.095  2.2709 -2.0793 -1.0433
 9096TIP3   OH227223   2.910   7.112   4.775  0.1918  0.7050 -0.3743
 9096TIP3    H127224   2.962   7.053   4.829  0.4774  2.0052  0.8202
 9096TIP3    H227225   2.830   7.063   4.754  1.1043 -0.6551 -0.7349
 9097TIP3   OH227226   0.689   6.987   6.091 -0.1196  0.1277 -0.1109
 9097TIP3    H127227   0.754   7.014   6.026 -2.8046  0.5444 -2.7717
 9097TIP3    H227228   0.713   6.898   6.113  0.2093 -0.4416 -2.5987
 9098TIP3   OH227229   2.930   7.118   3.717  0.6630  0.0400 -0.6139
 9098TIP3    H127230   2.964   7.188   3.772  1.6623 -1.6617  1.0257
 9098TIP3    H227231   2.883   7.060   3.778 -0.9341 -0.2460 -2.0675
 9099TIP3   OH227232   1.974   6.971   2.505 -0.1378  0.7312 -0.0642
 9099TIP3    H127233   1.947   6.882   2.481  1.4455  0.3362 -0.4272
 9099TIP3    H227234   2.042   6.958   2.571  1.0405  1.6283 -1.0739
 9100TIP3   OH227235   4.965   0.368   3.439 -0.6045 -0.0841  0.4116
 9100TIP3    H127236   5.053   0.355   3.403 -0.1965 -2.2632  2.0755
 9100TIP3    H227237   4.945   0.460   3.420  0.9116 -0.2654 -2.3674
 9101TIP3   OH227238   8.318   6.195   6.532 -0.1098  0.2973  0.3730
 9101TIP3    H127239   8.346   6.274   6.487 -0.6861  0.8970  1.0324
 9101TIP3    H227240   8.304   6.131   6.463  1.8972  0.2810 -0.0393
 9102TIP3   OH227241   4.309   6.226   2.465  0.1054 -0.0573  0.5335
 9102TIP3    H127242   4.234   6.260   2.415  0.0445 -1.8100 -0.5968
 9102TIP3    H227243   4.375   6.207   2.398  1.3422  0.8693  1.4713
 9103TIP3   OH227244   2.439   5.745   1.519 -0.6672  0.3332 -0.5353
 9103TIP3    H127245   2.377   5.802   1.472 -1.0869  0.5389  0.2610
 9103TIP3    H227246   2.399   5.658   1.514 -0.0438  0.1045 -1.7211
 9104TIP3   OH227247   4.420   0.039   4.552 -0.6037 -0.2093 -0.5247
 9104TIP3    H127248   4.484  -0.002   4.494  0.2424  1.4244 -0.7901
 9104TIP3    H227249   4.386   0.112   4.501 -3.7174 -1.8396 -0.8991
 9105TIP3   OH227250   3.506   0.170   2.867  0.0070 -0.8691  0.0830
 9105TIP3    H127251   3.418   0.163   2.904 -1.0052 -0.6903 -2.2106
 9105TIP3    H227252   3.534   0.260   2.884 -1.2836 -0.1781 -1.3653
 9106TIP3   OH227253   3.794   0.103   3.494  0.6407  0.0887  0.0424
 9106TIP3    H127254   3.747   0.168   3.442  0.8078  0.5640  0.4751
 9106TIP3    H227255   3.883   0.139   3.503  0.7861 -0.2915  0.1166
 9107TIP3   OH227256   2.185   6.843   5.701 -0.5166 -0.3394 -0.0529
 9107TIP3    H127257   2.224   6.807   5.781  0.3886 -1.3888 -0.9452
 9107TIP3    H227258   2.256   6.844   5.637 -1.2323  0.4726 -0.8593
 9108TIP3   OH227259   4.844   0.941   4.498  0.9597  0.4596  0.3759
 9108TIP3    H127260   4.776   0.921   4.434  0.0271  0.5545  1.3286
 9108TIP3    H227261   4.797   0.953   4.580  2.1480  0.3062  1.0917
 9109TIP3   OH227262   4.487   0.871   3.677  0.6586  0.7142 -0.0376
 9109TIP3    H127263   4.480   0.966   3.683 -2.5758  0.4996  0.4042
 9109TIP3    H227264   4.402   0.839   3.707  2.3622 -2.4124  1.7179
 9110TIP3   OH227265   2.082   6.367   2.330  0.4690 -0.5152 -0.6161
 9110TIP3    H127266   1.999   6.344   2.288  0.6177 -0.0638 -1.1685
 9110TIP3    H227267   2.056   6.409   2.412  0.1622 -0.8752 -0.5283
 9111TIP3   OH227268   1.521   6.912   5.887  0.1046  0.9119 -0.2110
 9111TIP3    H127269   1.467   6.969   5.832  1.5930  2.1200 -0.4519
 9111TIP3    H227270   1.558   6.848   5.826 -0.6651  0.3749 -0.1207
 9112TIP3   OH227271   2.108   0.351   5.587  0.3295  0.0854  0.0176
 9112TIP3    H127272   2.189   0.301   5.593  1.2073  1.3286 -1.3335
 9112TIP3    H227273   2.119   0.424   5.648  0.2107  0.2533 -0.1628
 9113TIP3   OH227274   4.087   6.408   2.606  0.5627  0.0096  0.2940
 9113TIP3    H127275   4.109   6.431   2.696  2.2991  1.3922 -0.4391
 9113TIP3    H227276   4.139   6.469   2.552 -0.8278 -0.4452 -1.6296
 9114TIP3   OH227277   5.515   0.955   5.608 -0.2511  0.5896 -0.1123
 9114TIP3    H127278   5.453   0.887   5.580 -0.2482  0.6505 -0.2703
 9114TIP3    H227279   5.459   1.028   5.635 -0.2404  0.9216 -0.9653
 9115TIP3   OH227280   4.621   1.451   2.540 -0.9528  0.2045 -0.1717
 9115TIP3    H127281   4.666   1.366   2.540  0.8312  1.1236 -1.3624
 9115TIP3    H227282   4.555   1.443   2.609  0.3557 -1.5507  0.9196
 9116TIP3   OH227283   5.803   1.719   6.314 -0.2751  0.6502  0.1540
 9116TIP3    H127284   5.797   1.623   6.310 -0.0414  0.6664 -0.8670
 9116TIP3    H227285   5.894   1.736   6.336 -0.2880  0.6376  0.2154
 9117TIP3   OH227286   2.154   0.186   2.744  0.1744 -0.3090 -0.4659
 9117TIP3    H127287   2.134   0.261   2.689 -1.6720 -0.8448 -0.5394
 9117TIP3    H227288   2.123   0.210   2.831  2.0925  0.0924  0.1391
 9118TIP3   OH227289   5.446   0.815   3.587  0.0173 -0.2549 -0.5604
 9118TIP3    H127290   5.528   0.776   3.554  0.5899 -2.1073  2.7979
 9118TIP3    H227291   5.384   0.742   3.587 -0.9965  0.5977 -0.9339
 9119TIP3   OH227292   4.667   0.558   4.498  0.0103 -0.4640 -0.3111
 9119TIP3    H127293   4.627   0.576   4.413  0.4238  1.7954 -0.0446
 9119TIP3    H227294   4.596   0.568   4.561  0.2337  0.1431 -0.1605
 9120TIP3   OH227295   0.845   6.110   3.255 -0.2408 -0.3288 -0.0771
 9120TIP3    H127296   0.864   6.160   3.176  2.1868  4.2868  3.1756
 9120TIP3    H227297   0.927   6.064   3.275  0.1678  0.9562  1.3224
 9121TIP3   OH227298   5.550   0.367   4.648 -0.7427 -0.6065  0.2501
 9121TIP3    H127299   5.526   0.446   4.600  0.2683 -1.0036 -0.9486
 9121TIP3    H227300   5.491   0.365   4.723 -0.5174  1.5006  0.5100
 9122TIP3   OH227301   3.242   7.714   3.464  0.1315 -0.1477 -0.0344
 9122TIP3    H127302   3.192   7.706   3.383  0.6860  0.5949 -0.4412
 9122TIP3    H227303   3.329   7.741   3.437  0.5034 -0.5446  0.7568
 9123TIP3   OH227304   0.709   0.797   6.266 -0.3288  0.4106 -0.4570
 9123TIP3    H127305   0.657   0.858   6.319 -1.4066 -1.1820  0.3671
 9123TIP3    H227306   0.654   0.719   6.258  0.6709 -0.1419 -2.2323
 9124TIP3   OH227307   3.154   0.892   4.998  0.2414  0.4986 -0.5594
 9124TIP3    H127308   3.149   0.809   5.045  0.5506  0.5083 -0.5082
 9124TIP3    H227309   3.242   0.925   5.017 -0.0270  1.0382 -0.2422
 9125TIP3   OH227310   3.926   0.442   3.987 -0.4298 -0.1231 -0.1836
 9125TIP3    H127311   3.865   0.424   4.058  2.0069 -0.3493  1.9050
 9125TIP3    H227312   3.927   0.361   3.935 -1.0352 -0.5351  0.4456
 9126TIP3   OH227313   6.671   0.164   5.762 -0.2827  0.0735  0.3528
 9126TIP3    H127314   6.736   0.115   5.712  0.2370 -0.9816  2.0288
 9126TIP3    H227315   6.628   0.220   5.697  1.0692 -0.5193 -1.0806
 9127TIP3   OH227316   4.604   7.574   3.014  0.2714  0.1061  0.5911
 9127TIP3    H127317   4.526   7.575   3.069 -0.3161  0.7713 -0.2468
 9127TIP3    H227318   4.677   7.585   3.076 -0.2235 -1.3905  1.4680
 9128TIP3   OH227319   2.944   6.037   2.467  0.4410  1.0152  0.1525
 9128TIP3    H127320   2.898   6.105   2.515  1.6382  0.8127  1.5875
 9128TIP3    H227321   3.030   6.074   2.448  1.1745 -0.1557  1.1221
 9129TIP3   OH227322   3.065   7.873   6.035 -0.3648 -0.1482  0.4422
 9129TIP3    H127323   3.062   7.822   5.954 -0.3669  0.3249  0.1449
 9129TIP3    H227324   3.033   7.960   6.011  1.0196  0.4319  0.6152
 9130TIP3   OH227325   4.889   5.301   6.360  0.2361 -0.1352 -0.3306
 9130TIP3    H127326   4.912   5.252   6.439  0.8107  2.9388  1.4674
 9130TIP3    H227327   4.973   5.313   6.314  0.2241 -0.1534 -0.3567
 9131TIP3   OH227328   2.526   7.756   6.479  0.3840 -0.5451  0.0212
 9131TIP3    H127329   2.603   7.760   6.535 -0.7947  0.4250  1.6212
 9131TIP3    H227330   2.520   7.665   6.453  1.4604 -0.8399  0.7550
 9132TIP3   OH227331   8.438   4.024   0.293 -0.0220  0.2372  0.2261
 9132TIP3    H127332   8.465   4.086   0.225 -1.1485  0.2268 -0.2379
 9132TIP3    H227333   8.357   4.061   0.329 -1.1304 -1.3470 -0.5790
 9133TIP3   OH227334   0.278   7.866   4.031  0.3173 -0.2932 -0.3310
 9133TIP3    H127335   0.261   7.815   4.110  1.3823  0.0400  0.1239
 9133TIP3    H227336   0.304   7.952   4.063  3.0915 -0.8581 -0.9648
 9134TIP3   OH227337   4.622   0.325   3.794  0.2271  0.0378 -0.1105
 9134TIP3    H127338   4.622   0.277   3.711 -0.8447 -2.0288  1.0356
 9134TIP3    H227339   4.678   0.401   3.778 -0.6705  0.1574 -2.9872
 9135TIP3   OH227340   1.731   7.882   5.819 -0.4654 -0.2744 -0.7670
 9135TIP3    H127341   1.803   7.862   5.880  0.5351  0.9004 -1.5313
 9135TIP3    H227342   1.652   7.861   5.868  0.3708 -0.7277  0.4227
 9136TIP3   OH227343   0.085   7.503   2.725  0.2044 -0.0405 -0.0930
 9136TIP3    H127344   0.137   7.583   2.726  0.5255 -0.2371 -0.9834
 9136TIP3    H227345   0.088   7.473   2.635 -1.2886 -0.1766 -0.1092
 9137TIP3   OH227346   3.940   1.530   6.231 -0.6979  0.2475  0.2760
 9137TIP3    H127347   3.849   1.522   6.259 -0.1962 -1.0641  1.5954
 9137TIP3    H227348   3.988   1.546   6.312  0.4036 -0.3547 -0.2555
 9138TIP3   OH227349   2.213   7.497   1.133  0.6709  0.7446  0.0001
 9138TIP3    H127350   2.276   7.489   1.204 -0.4907  0.1482  0.9763
 9138TIP3    H227351   2.243   7.435   1.067 -0.2481 -1.3484  1.4947
 9139TIP3   OH227352   5.962   0.721   2.250 -0.4145 -0.2017 -0.2688
 9139TIP3    H127353   5.968   0.673   2.332 -1.1354 -0.3123 -0.2782
 9139TIP3    H227354   6.013   0.670   2.188 -0.5936 -0.5773 -0.1066
 9140TIP3   OH227355   2.130   7.920   6.387 -0.1580  0.1805  0.1281
 9140TIP3    H127356   2.111   7.843   6.441 -0.6741  0.2208  0.0050
 9140TIP3    H227357   2.051   7.974   6.393 -0.2630  0.1322 -0.7633
 9141TIP3   OH227358   3.432   0.651   2.920 -0.4272 -0.7527 -0.3246
 9141TIP3    H127359   3.514   0.676   2.878  0.6281 -2.3425  0.7284
 9141TIP3    H227360   3.381   0.608   2.851 -0.0594 -0.4471 -0.7876
 9142TIP3   OH227361   4.913   1.314   0.927  0.3336  0.6407 -0.2496
 9142TIP3    H127362   4.937   1.229   0.963 -1.2675  1.1600  2.1381
 9142TIP3    H227363   4.989   1.370   0.946  0.2870  0.4144  0.6380
 9143TIP3   OH227364   2.471   6.660   2.901  0.1932 -0.3779  0.2922
 9143TIP3    H127365   2.376   6.648   2.903  0.0644  0.6273  1.3380
 9143TIP3    H227366   2.483   6.748   2.864  0.7328 -0.7084 -0.3134
 9144TIP3   OH227367   3.164   0.641   5.852  0.0379  0.2863  0.1325
 9144TIP3    H127368   3.204   0.597   5.777  1.4090  0.1755  0.9093
 9144TIP3    H227369   3.168   0.577   5.923  0.0454  0.8812  0.6766
 9145TIP3   OH227370   7.537   1.105   6.756  0.3827 -0.0273  0.2214
 9145TIP3    H127371   7.630   1.094   6.737  0.2979  0.5604 -0.5800
 9145TIP3    H227372   7.504   1.160   6.685 -0.7515 -0.8981  0.0426
 9146TIP3   OH227373   3.614   6.616   3.713  0.5304  0.2584  0.5558
 9146TIP3    H127374   3.653   6.655   3.791  0.4551  1.4312  0.0153
 9146TIP3    H227375   3.601   6.689   3.653 -1.3739 -0.2982  0.2534
 9147TIP3   OH227376   0.391   3.886   1.945  0.2299 -0.3031 -0.2906
 9147TIP3    H127377   0.466   3.942   1.966  1.2340 -1.5752 -0.4055
 9147TIP3    H227378   0.378   3.898   1.850  0.1250  0.1130 -0.2241
 9148TIP3   OH227379   1.797   4.633   2.055 -0.5003 -0.2797  0.2906
 9148TIP3    H127380   1.737   4.644   1.982  0.1690 -0.5797 -0.3040
 9148TIP3    H227381   1.866   4.697   2.039 -0.9329  0.4547  1.2664
 9149TIP3   OH227382   4.449   0.935   3.061 -0.3713  0.2053  0.0041
 9149TIP3    H127383   4.430   0.880   2.986 -0.4197 -0.6829  0.6667
 9149TIP3    H227384   4.367   0.937   3.111 -0.2126  0.4567  0.2573
 9150TIP3   OH227385   3.942   0.219   3.847  0.0762 -0.5054  0.0330
 9150TIP3    H127386   4.007   0.151   3.865 -0.7660 -1.4009 -0.2607
 9150TIP3    H227387   3.860   0.171   3.835  0.1114  0.2532 -3.6241
 9151TIP3   OH227388   8.104   6.763   3.831  0.0279  0.5556  0.2684
 9151TIP3    H127389   8.098   6.858   3.844 -1.5311  0.8568 -2.2631
 9151TIP3    H227390   8.013   6.733   3.832  0.5142 -0.9794  1.2346
 9152TIP3   OH227391   5.112   7.490   6.478 -0.1327 -0.1181 -0.1094
 9152TIP3    H127392   5.181   7.526   6.533  0.2304 -1.0076  0.0097
 9152TIP3    H227393   5.070   7.567   6.439  0.7685  0.4261 -0.0002
 9153TIP3   OH227394   6.484   1.517   3.095 -0.6524 -0.2096 -0.4666
 9153TIP3    H127395   6.452   1.459   3.026 -1.1512 -0.7097  0.1738
 9153TIP3    H227396   6.412   1.521   3.158 -0.4629  0.7863 -0.3066
 9154TIP3   OH227397   2.421   5.940   4.114  0.6205 -0.4531 -0.4264
 9154TIP3    H127398   2.416   5.848   4.140  3.5045 -0.3724  0.5757
 9154TIP3    H227399   2.346   5.980   4.157 -0.4823 -2.2595 -0.5958
 9155TIP3   OH227400   1.602   6.231   4.253  0.1775  0.2932 -0.5620
 9155TIP3    H127401   1.674   6.184   4.294  1.1452  0.7639 -1.7002
 9155TIP3    H227402   1.565   6.169   4.190 -0.6331 -0.0575  0.2352
 9156TIP3   OH227403   1.036   6.001   5.641  0.5345  0.4628  0.0535
 9156TIP3    H127404   0.986   5.955   5.574  0.7812 -0.1081  0.2551
 9156TIP3    H227405   1.030   6.093   5.617  2.2418  0.0923 -1.8455
 9157TIP3   OH227406   4.791   5.203   3.358 -0.1705 -0.1221 -0.0244
 9157TIP3    H127407   4.862   5.145   3.330 -2.3334 -2.3540 -1.0202
 9157TIP3    H227408   4.787   5.270   3.290  0.0514 -0.8025 -0.7179
 9158TIP3   OH227409   0.246   4.650   3.944 -0.4339  0.0680 -0.0556
 9158TIP3    H127410   0.211   4.656   3.855 -3.4187 -1.8399  0.9098
 9158TIP3    H227411   0.271   4.558   3.954  0.3791  0.3844  0.9019
 9159TIP3   OH227412   1.095   7.002   4.067  0.5728 -0.0554 -0.0476
 9159TIP3    H127413   1.018   7.016   4.122  1.6730  1.3145  1.1866
 9159TIP3    H227414   1.113   6.908   4.074 -1.4504 -0.5441 -1.0150
 9160TIP3   OH227415   2.855   7.774   4.698  0.0079 -0.1043  0.6278
 9160TIP3    H127416   2.867   7.770   4.604  1.3476 -2.1082  0.8587
 9160TIP3    H227417   2.763   7.752   4.712 -0.5438  1.5518 -0.2720
 9161TIP3   OH227418   6.527   1.010   4.651  0.5684 -0.0932 -0.2296
 9161TIP3    H127419   6.511   1.092   4.605  0.1348  0.6044  1.1595
 9161TIP3    H227420   6.622   0.997   4.644  0.5613  0.2085 -0.9563
 9162TIP3   OH227421   2.679   6.730   5.576 -0.1575  0.5408 -0.0162
 9162TIP3    H127422   2.771   6.757   5.579 -0.1925  0.6604 -0.0447
 9162TIP3    H227423   2.680   6.645   5.531  0.2301 -0.6051  2.0546
 9163TIP3   OH227424   2.668   6.068   4.141 -0.1475 -0.0938 -0.5071
 9163TIP3    H127425   2.582   6.026   4.146 -0.5254  0.6761 -0.4665
 9163TIP3    H227426   2.697   6.053   4.052  0.0461 -1.0751 -0.2825
 9164TIP3   OH227427   8.146   7.049   2.876  0.2212  0.1323 -0.1484
 9164TIP3    H127428   8.055   7.024   2.858  0.2525  0.6498 -1.0681
 9164TIP3    H227429   8.199   6.982   2.833  0.2765 -0.0289  0.1711
 9165TIP3   OH227430   8.170   7.135   2.291  0.1473 -0.3550 -0.2047
 9165TIP3    H127431   8.218   7.211   2.324 -1.8294  0.4109  0.9981
 9165TIP3    H227432   8.224   7.101   2.219  3.4571 -0.7391  2.3725
 9166TIP3   OH227433   0.109   5.276   2.960 -0.5274 -0.6792 -0.8412
 9166TIP3    H127434   0.029   5.273   3.012  0.0985  0.4594  0.1848
 9166TIP3    H227435   0.120   5.369   2.938  2.8711 -0.1253  2.7249
 9167TIP3   OH227436   1.346   6.083   4.662 -0.5298 -0.1830 -0.0573
 9167TIP3    H127437   1.279   6.149   4.679 -1.7235 -1.4131  0.0538
 9167TIP3    H227438   1.300   6.012   4.619  0.7672 -0.9204 -0.2731
 9168TIP3   OH227439   4.674   1.036   5.094 -0.8404 -0.5266  0.0724
 9168TIP3    H127440   4.631   0.974   5.034 -0.2306 -0.8878  0.0081
 9168TIP3    H227441   4.624   1.117   5.083 -0.5798 -0.5103 -1.1314
 9169TIP3   OH227442   5.574   0.516   3.029 -0.1088  0.3552  0.0797
 9169TIP3    H127443   5.599   0.607   3.048 -0.0915  0.1048  1.2578
 9169TIP3    H227444   5.529   0.486   3.108  1.7985 -1.3643  0.5517
 9170TIP3   OH227445   5.875   6.313   1.211  0.0194 -0.1065  0.2130
 9170TIP3    H127446   5.829   6.324   1.294 -1.5538  0.2070 -0.6791
 9170TIP3    H227447   5.848   6.227   1.180  0.1695  0.0071 -0.2371
 9171TIP3   OH227448   4.393   5.488   1.463 -0.3189  0.2313 -0.2296
 9171TIP3    H127449   4.483   5.456   1.461 -0.9803 -2.0993  3.1443
 9171TIP3    H227450   4.340   5.409   1.477 -2.8966  1.5822 -1.8467
 9172TIP3   OH227451   1.152   6.543   6.083 -0.2044  0.3204  0.4305
 9172TIP3    H127452   1.087   6.499   6.137 -0.3073  0.0794  0.1146
 9172TIP3    H227453   1.175   6.478   6.015  0.8197  0.1761  0.9026
 9173TIP3   OH227454   2.837   6.576   4.121 -0.5702  0.2313 -0.1635
 9173TIP3    H127455   2.822   6.482   4.131 -0.4820  0.1127 -1.1483
 9173TIP3    H227456   2.931   6.584   4.109 -0.6822  0.3693 -0.9465
 9174TIP3   OH227457   5.569   7.582   1.318 -0.3228  0.7861  0.1846
 9174TIP3    H127458   5.644   7.546   1.271  0.1401 -0.7410  2.0190
 9174TIP3    H227459   5.606   7.651   1.373 -0.0715 -0.6273  1.8259
 9175TIP3   OH227460   3.361   0.512   2.694 -0.4405 -0.4968 -0.0538
 9175TIP3    H127461   3.291   0.447   2.689 -0.2288 -0.7690  0.3922
 9175TIP3    H227462   3.405   0.508   2.609 -0.1836 -1.2232  0.1068
 9176TIP3   OH227463   4.091   1.139   3.808  0.1141  0.2113  0.4046
 9176TIP3    H127464   4.003   1.159   3.774  0.1692 -0.9319 -0.4509
 9176TIP3    H227465   4.117   1.219   3.854 -0.8017  1.0811 -0.5359
 9177TIP3   OH227466   2.569   7.769   4.747 -0.6987 -0.7151 -0.6545
 9177TIP3    H127467   2.515   7.799   4.674 -0.8920 -0.3119 -0.3436
 9177TIP3    H227468   2.584   7.847   4.800  3.2939  0.0512 -2.6960
 9178TIP3   OH227469   4.213   2.042   2.819  0.3565 -0.0782 -0.3738
 9178TIP3    H127470   4.229   1.967   2.876  0.3418  0.3111  0.1543
 9178TIP3    H227471   4.125   2.028   2.784  0.6936 -0.7452 -0.9684
 9179TIP3   OH227472   2.433   7.359   1.450 -0.3527 -0.3551 -0.5062
 9179TIP3    H127473   2.500   7.346   1.517  0.6093  2.6193 -0.8022
 9179TIP3    H227474   2.481   7.398   1.376 -1.7039 -1.9870 -2.2832
 9180TIP3   OH227475   6.530   1.284   4.549  0.6886  0.1866  0.3353
 9180TIP3    H127476   6.448   1.301   4.595 -0.3583 -2.5757 -0.3868
 9180TIP3    H227477   6.533   1.348   4.479 -0.5869  0.6778  0.7211
 9181TIP3   OH227478   3.558   6.345   3.722 -0.9119 -0.3195  0.1913
 9181TIP3    H127479   3.591   6.433   3.705  0.1437 -0.6883  0.2762
 9181TIP3    H227480   3.486   6.334   3.660 -0.6495  0.3734 -0.2417
 9182TIP3   OH227481   4.323   4.520   5.840  0.1551  0.2085  0.5125
 9182TIP3    H127482   4.239   4.494   5.878 -0.5644  0.0774 -1.0929
 9182TIP3    H227483   4.382   4.447   5.861  0.1737  0.7774  2.5473
 9183TIP3   OH227484   6.055   0.565   5.570  0.2819 -0.1092 -0.2850
 9183TIP3    H127485   6.135   0.539   5.523  0.3852  0.7785 -0.6057
 9183TIP3    H227486   5.986   0.557   5.504 -0.0003 -1.4481  0.1510
 9184TIP3   OH227487   2.737   6.494   3.048 -0.3205  0.7148 -0.1514
 9184TIP3    H127488   2.739   6.521   3.140  0.3483  1.1827 -0.2974
 9184TIP3    H227489   2.696   6.408   3.050  2.4372 -0.6428  0.9539
 9185TIP3   OH227490   6.116   1.408   2.526 -0.3583 -0.4349  0.2960
 9185TIP3    H127491   6.048   1.430   2.590 -2.6283 -0.0076 -2.1995
 9185TIP3    H227492   6.095   1.318   2.499  0.2656 -0.4205 -0.2455
 9186TIP3   OH227493   5.646   5.729   2.369  0.4443  0.0170  0.1068
 9186TIP3    H127494   5.697   5.810   2.361  2.3626 -1.0839  0.8412
 9186TIP3    H227495   5.556   5.755   2.351  1.2929  1.9779 -1.5096
 9187TIP3   OH227496   5.433   6.729   2.520  0.1651  0.2059 -0.0323
 9187TIP3    H127497   5.372   6.721   2.594  0.7573 -0.2495  0.4084
 9187TIP3    H227498   5.402   6.806   2.472 -1.4856 -0.7080 -0.4844
 9188TIP3   OH227499   3.465   7.860   4.238 -0.0897  0.1001  0.1119
 9188TIP3    H127500   3.423   7.946   4.244 -0.6225 -0.1188 -0.4213
 9188TIP3    H227501   3.466   7.841   4.145 -0.9386 -0.9461  0.3052
 9189TIP3   OH227502   6.322   1.311   3.286 -0.6396  0.0705  0.0025
 9189TIP3    H127503   6.262   1.252   3.332  2.5504 -2.9513  0.5925
 9189TIP3    H227504   6.276   1.336   3.207 -2.8786 -1.7479  0.6784
 9190TIP3   OH227505   2.215   6.768   3.213  0.2171 -0.7934  0.4471
 9190TIP3    H127506   2.305   6.741   3.195  0.5420  0.1518  0.6382
 9190TIP3    H227507   2.223   6.842   3.272 -0.7039 -0.9139  0.7358
 9191TIP3   OH227508   7.455   0.312   4.390  0.5562  0.0772  0.1318
 9191TIP3    H127509   7.467   0.400   4.424  0.9437 -0.4881  1.4771
 9191TIP3    H227510   7.542   0.272   4.394 -0.1744 -1.4037  2.5314
 9192TIP3   OH227511   3.464   6.981   3.853 -0.0172 -0.2207 -0.1500
 9192TIP3    H127512   3.402   6.934   3.909  0.6566 -0.5169  0.3411
 9192TIP3    H227513   3.460   6.934   3.770  0.4180 -0.9564  0.2382
 9193TIP3   OH227514   4.477   7.977   3.360  0.0036  0.1018 -0.2366
 9193TIP3    H127515   4.479   8.061   3.406  0.1360 -0.0454  0.0223
 9193TIP3    H227516   4.416   7.923   3.411 -0.2452  0.1102 -0.5227
 9194TIP3   OH227517   3.981   6.735   3.003 -0.2240 -0.3650  0.0174
 9194TIP3    H127518   3.973   6.784   3.085  1.5168 -0.9987  0.6042
 9194TIP3    H227519   3.995   6.645   3.031  1.3096 -0.4470 -0.9467
 9195TIP3   OH227520   7.009   2.462   3.680  0.2328 -0.0584 -0.3553
 9195TIP3    H127521   6.974   2.373   3.686 -0.6871  0.4513  2.5723
 9195TIP3    H227522   6.935   2.514   3.649  0.6723 -0.2536 -1.7381
 9196TIP3   OH227523   7.958   1.615   2.164  0.0129 -0.2937 -0.7097
 9196TIP3    H127524   7.989   1.630   2.075  2.1946  1.4238  0.2904
 9196TIP3    H227525   8.022   1.553   2.201  0.8826  1.3553  0.5968
 9197TIP3   OH227526   6.757   1.284   3.176  0.6476  0.2789 -0.0523
 9197TIP3    H127527   6.775   1.295   3.269 -0.1912  3.5348 -0.2318
 9197TIP3    H227528   6.673   1.328   3.162 -0.3590 -2.1146 -1.9439
 9198TIP3   OH227529   6.713   2.358   4.125  0.0923 -0.1953 -0.1572
 9198TIP3    H127530   6.801   2.396   4.127  0.2712 -0.6350  0.5339
 9198TIP3    H227531   6.724   2.271   4.163 -0.9331  0.3503  1.4090
 9199TIP3   OH227532   5.630   0.095   2.765  0.3899 -0.3545 -0.3748
 9199TIP3    H127533   5.621   0.036   2.690  1.0856 -1.7541  0.6313
 9199TIP3    H227534   5.544   0.135   2.775 -0.5585 -2.4076 -0.0764
 9200TIP3   OH227535   2.875   7.799   0.515 -0.6383  0.8888  0.1137
 9200TIP3    H127536   2.879   7.778   0.422 -0.5362 -0.2107  0.3662
 9200TIP3    H227537   2.818   7.732   0.553  1.3478 -0.1921  1.2679
 9201TIP3   OH227538   4.879   6.998   2.510 -0.4308  0.2986  0.2788
 9201TIP3    H127539   4.887   6.961   2.422 -1.8065  1.0716 -0.1756
 9201TIP3    H227540   4.831   6.932   2.560  1.1179 -0.5389  0.7206
 9202TIP3   OH227541   4.295   7.339   2.711 -1.0171 -0.0809 -0.5999
 9202TIP3    H127542   4.212   7.315   2.670 -0.6424  0.7649 -1.8751
 9202TIP3    H227543   4.341   7.391   2.645 -0.2694  1.0539  0.7764
 9203TIP3   OH227544   4.318   4.988   2.477 -0.3074 -0.1889 -0.1279
 9203TIP3    H127545   4.284   5.071   2.444  1.1579  0.0991 -0.9665
 9203TIP3    H227546   4.254   4.960   2.543 -0.8991  1.5149  0.0422
 9204TIP3   OH227547   4.834   0.292   1.978  0.0902 -0.1162 -0.3515
 9204TIP3    H127548   4.862   0.324   1.892 -0.5082  1.6540  0.0994
 9204TIP3    H227549   4.905   0.317   2.037  0.4386 -1.2140 -0.2974
 9205TIP3   OH227550   5.381   0.365   3.444 -0.0433  0.1853 -0.2713
 9205TIP3    H127551   5.383   0.285   3.391  1.7368  0.4133 -0.5600
 9205TIP3    H227552   5.394   0.335   3.533  0.0208  0.1030 -0.3086
 9206TIP3   OH227553   3.893   7.904   2.246  0.1068 -0.4027 -0.3229
 9206TIP3    H127554   3.979   7.893   2.287 -0.5181 -1.8137  0.6548
 9206TIP3    H227555   3.897   7.848   2.169 -0.2775 -1.2865  0.2860
 9207TIP3   OH227556   4.055   7.349   4.344 -0.5784  0.7635  0.1558
 9207TIP3    H127557   4.146   7.358   4.315 -0.6922  0.3774 -0.3262
 9207TIP3    H227558   4.056   7.377   4.436  0.0253  0.7560  0.1517
 9208TIP3   OH227559   3.117   7.677   0.341  0.5917 -0.2383  0.0065
 9208TIP3    H127560   3.123   7.692   0.247 -0.9475 -1.4463 -0.3117
 9208TIP3    H227561   3.027   7.650   0.355  1.0060 -0.7939  1.7197
 9209TIP3   OH227562   6.632   1.833   4.158  0.1427 -0.6037  0.2704
 9209TIP3    H127563   6.562   1.770   4.173  0.0277 -0.4598  0.3418
 9209TIP3    H227564   6.695   1.787   4.103 -0.6499 -0.2849 -0.9214
 9210TIP3   OH227565   4.856   6.986   1.592  0.4964 -0.4757  0.0998
 9210TIP3    H127566   4.924   7.044   1.558  0.7223 -0.8475 -0.1003
 9210TIP3    H227567   4.874   6.902   1.549  1.5356 -1.2737  2.0312
 9211TIP3   OH227568   5.647   1.163   2.738  0.2425  0.2008  0.2168
 9211TIP3    H127569   5.660   1.154   2.833 -0.1286  1.1549  0.3553
 9211TIP3    H227570   5.552   1.154   2.726  0.5251 -2.5366 -0.3520
 9212TIP3   OH227571   2.548   7.777   5.155  0.0512 -0.1226 -0.3474
 9212TIP3    H127572   2.504   7.853   5.193  1.8011  0.6824  0.1364
 9212TIP3    H227573   2.490   7.704   5.175 -1.8096  1.1055 -1.0689
 9213TIP3   OH227574   7.438   0.056   3.713 -0.3331  0.3151  0.2225
 9213TIP3    H127575   7.400   0.097   3.790  2.5508  1.8961  0.8666
 9213TIP3    H227576   7.412   0.113   3.640  1.2585  1.7463  0.7435
 9214TIP3   OH227577   5.923   0.601   4.091 -0.0030  0.5456 -0.4531
 9214TIP3    H127578   5.895   0.517   4.055 -1.2025  1.3172 -1.3426
 9214TIP3    H227579   5.985   0.578   4.161  0.2844 -1.0394 -1.2256
 9215TIP3   OH227580   3.261   5.436   3.521  0.1559 -0.1294 -0.5104
 9215TIP3    H127581   3.213   5.518   3.506  0.6523 -0.0554 -1.8089
 9215TIP3    H227582   3.259   5.424   3.615  0.1574  1.4386 -0.2876
 9216TIP3   OH227583   4.612   4.932   2.619 -0.2770  0.2241 -0.5737
 9216TIP3    H127584   4.537   4.940   2.560 -0.1769  1.6955 -0.5327
 9216TIP3    H227585   4.619   4.838   2.636 -2.5553  0.1202  0.0098
 9217TIP3   OH227586   3.735   7.949   2.619  0.6370  0.5133  0.5958
 9217TIP3    H127587   3.684   7.998   2.554  1.5575  1.1086  0.3184
 9217TIP3    H227588   3.694   7.863   2.620  0.3066  0.6458 -0.4241
 9218TIP3   OH227589   4.751   6.717   2.450 -0.2511 -0.6168 -0.6242
 9218TIP3    H127590   4.740   6.690   2.541  1.8102 -2.0967 -0.7686
 9218TIP3    H227591   4.673   6.685   2.405 -1.4309  0.4101  0.6742
 9219TIP3   OH227592   2.699   6.673   0.907 -0.0766 -0.4606  0.0224
 9219TIP3    H127593   2.721   6.764   0.891  4.8971 -1.9827 -2.7209
 9219TIP3    H227594   2.731   6.656   0.996  0.6302 -0.0275 -0.1486
 9220TIP3   OH227595   3.442   4.896   3.102  0.3314  0.1736  0.0161
 9220TIP3    H127596   3.386   4.819   3.108  0.9281 -0.3847 -1.4877
 9220TIP3    H227597   3.393   4.958   3.048  1.6639 -0.8026 -2.3932
 9221TIP3   OH227598   0.449   6.796   2.118  0.0730  0.8016 -0.2260
 9221TIP3    H127599   0.496   6.826   2.196 -0.1314 -0.6759  0.4979
 9221TIP3    H227600   0.357   6.815   2.137 -0.0646 -0.2797  0.2645
 9222TIP3   OH227601   6.226   0.283   2.101 -0.0517  0.2817 -0.1418
 9222TIP3    H127602   6.154   0.223   2.085 -0.1480 -0.3169  2.3019
 9222TIP3    H227603   6.202   0.330   2.181  1.5753  1.1264 -0.1084
 9223TIP3   OH227604   3.359   5.958   3.293 -0.2793  0.0710 -0.9280
 9223TIP3    H127605   3.293   5.919   3.351  0.8174  2.0681  1.7604
 9223TIP3    H227606   3.312   5.973   3.210 -2.3163 -1.3885 -0.0687
 9224TIP3   OH227607   4.098   7.490   2.354 -0.3036  0.1736 -0.3767
 9224TIP3    H127608   4.087   7.487   2.449 -2.7717  0.4530 -0.6185
 9224TIP3    H227609   4.077   7.401   2.325  0.1579  0.1633 -0.6763
 9225TIP3   OH227610   6.272   0.302   4.732  0.4782  0.0571 -0.0134
 9225TIP3    H127611   6.180   0.279   4.717  0.6725 -0.4422 -0.4300
 9225TIP3    H227612   6.289   0.275   4.822  0.0229  0.7974  0.3076
 9226TIP3   OH227613   4.773   4.963   1.658  0.7549  0.4580 -0.1255
 9226TIP3    H127614   4.835   4.971   1.730  0.4867 -1.0530  0.2964
 9226TIP3    H227615   4.805   4.888   1.608  0.0084  0.4838 -0.6525
 9227TIP3   OH227616   5.132   1.308   3.177 -0.2837  0.2508  0.2461
 9227TIP3    H127617   5.173   1.252   3.111  0.3045  0.7122  0.2164
 9227TIP3    H227618   5.166   1.276   3.261  2.6889  2.6664  0.0469
 9228TIP3   OH227619   4.023   7.130   2.812  0.2839  0.6102 -0.4064
 9228TIP3    H127620   4.015   7.193   2.884 -0.6037  1.2984 -1.0895
 9228TIP3    H227621   3.961   7.061   2.833 -0.9995  1.4958 -1.1846
 9229TIP3   OH227622   5.240   0.111   3.926 -0.5707 -0.3899  0.2748
 9229TIP3    H127623   5.298   0.058   3.981 -0.1195  0.8000  0.9592
 9229TIP3    H227624   5.295   0.140   3.853 -0.7935 -0.7739 -0.0511
 9230TIP3   OH227625   2.895   7.000   3.403 -0.1216  0.4117 -0.1207
 9230TIP3    H127626   2.855   7.077   3.443 -1.9002 -1.0535  0.9481
 9230TIP3    H227627   2.989   7.019   3.404 -0.4935  2.3243  0.6361
 9231TIP3   OH227628   4.398   1.013   3.983 -0.2341 -0.0455  0.6425
 9231TIP3    H127629   4.455   0.936   3.985  0.6084  0.5760  0.6702
 9231TIP3    H227630   4.319   0.983   3.937  0.7327 -0.4869 -0.7658
 9232TIP3   OH227631   3.255   6.704   2.943  0.1065  0.1578  0.3460
 9232TIP3    H127632   3.202   6.757   2.883  0.8222 -0.1719 -0.6012
 9232TIP3    H227633   3.215   6.617   2.938 -0.6687  0.4347  1.4061
 9233TIP3   OH227634   4.124   5.047   4.186  0.2151  0.7689  0.1162
 9233TIP3    H127635   4.079   5.021   4.267  0.8661  2.3375  0.9921
 9233TIP3    H227636   4.216   5.027   4.202  0.0781 -0.9165 -1.0677
 9234TIP3   OH227637   4.685   0.085   1.891 -0.1218  0.3545  0.5965
 9234TIP3    H127638   4.760   0.140   1.913  0.9602 -1.4413  1.4787
 9234TIP3    H227639   4.617   0.109   1.955  0.3473  0.6311  0.9889
 9235TIP3   OH227640   4.411   6.905   3.075 -0.0938  0.0546 -0.4479
 9235TIP3    H127641   4.402   6.993   3.036 -0.5518  0.0573 -0.3395
 9235TIP3    H227642   4.335   6.857   3.043 -0.5591  0.1010  0.5558
 9236TIP3   OH227643   6.054   0.834   1.991 -0.1903  0.0123 -0.1411
 9236TIP3    H127644   6.069   0.742   2.012 -0.0184 -0.4472 -2.0909
 9236TIP3    H227645   6.028   0.833   1.898 -2.3184  1.7313  0.3888
 9237TIP3   OH227646   3.627   7.126   4.085  0.0764 -0.4336 -0.2365
 9237TIP3    H127647   3.672   7.168   4.011 -0.1510  0.3556  0.0699
 9237TIP3    H227648   3.674   7.156   4.162  0.6288 -1.6667 -0.0949
 9238TIP3   OH227649   2.953   6.427   1.950  0.6229  0.0460 -0.5243
 9238TIP3    H127650   3.024   6.390   2.002 -1.1085 -0.6723  1.3806
 9238TIP3    H227651   2.898   6.352   1.928 -0.7708  0.9045 -0.0238
 9239TIP3   OH227652   4.016   5.928   1.243 -0.3684  0.0725 -0.3906
 9239TIP3    H127653   3.971   6.010   1.262  0.4463  0.3599  0.3782
 9239TIP3    H227654   4.061   5.943   1.160 -1.1669  0.0048 -0.8325
 9240TIP3   OH227655   3.640   5.840   2.567 -0.1162 -0.3302 -0.1030
 9240TIP3    H127656   3.698   5.801   2.503 -1.2133 -0.8869 -0.7710
 9240TIP3    H227657   3.696   5.858   2.643  0.8566 -1.0949 -0.6360
 9241TIP3   OH227658   6.896   1.426   5.135 -0.4250  0.6871  0.3051
 9241TIP3    H127659   6.895   1.443   5.041  0.2908  1.2647  0.3973
 9241TIP3    H227660   6.911   1.332   5.142  0.9209  0.8578 -0.1476
 9242TIP3   OH227661   6.881   1.754   3.072 -0.3180  0.1268  0.1428
 9242TIP3    H127662   6.817   1.721   3.135  1.5119  0.6188  2.2877
 9242TIP3    H227663   6.894   1.845   3.096  0.0326  0.4632 -1.2786
 9243TIP3   OH227664   1.247   6.451   3.417 -0.0878  0.0988  0.3592
 9243TIP3    H127665   1.324   6.408   3.381  0.7123  1.2514  0.6826
 9243TIP3    H227666   1.192   6.471   3.341  0.0165 -0.5376  0.1137
 9244TIP3   OH227667   5.376   0.853   1.678  0.0788  0.4797 -0.2270
 9244TIP3    H127668   5.432   0.929   1.695  0.0347  0.2646  0.9593
 9244TIP3    H227669   5.420   0.804   1.609  1.3023  0.3766  0.6206
 9245TIP3   OH227670   6.554   0.486   4.836  0.5159 -0.4990  0.1880
 9245TIP3    H127671   6.494   0.418   4.805 -0.9523  0.7274  0.3079
 9245TIP3    H227672   6.572   0.462   4.927  0.2598 -0.9104  0.1317
 9246TIP3   OH227673   5.030   7.737   4.823 -0.4807 -0.3936  0.3093
 9246TIP3    H127674   4.976   7.658   4.817 -1.0800  0.0834 -0.8167
 9246TIP3    H227675   5.120   7.706   4.819 -0.7054 -1.0931  0.7810
 9247TIP3   OH227676   3.940   6.737   1.972 -0.3231  0.5751  0.5966
 9247TIP3    H127677   3.852   6.772   1.990 -0.4422  0.6609 -0.1388
 9247TIP3    H227678   3.987   6.746   2.055 -0.9186  0.8050  0.9123
 9248TIP3   OH227679   6.789   1.178   4.230  0.1948 -0.0726  0.1296
 9248TIP3    H127680   6.739   1.103   4.198 -0.4035 -0.0288  0.9414
 9248TIP3    H227681   6.761   1.251   4.175 -0.2072 -0.1718  0.1992
 9249TIP3   OH227682   3.133   7.381   3.469  0.2329 -0.3135 -0.4313
 9249TIP3    H127683   3.057   7.437   3.484  0.0065 -0.7053 -0.1122
 9249TIP3    H227684   3.174   7.372   3.555  0.0933 -0.8905 -0.4230
 9250TIP3   OH227685   3.012   5.533   4.164  0.1265 -0.5321 -0.8136
 9250TIP3    H127686   2.935   5.490   4.201 -0.5175  0.1258 -1.3620
 9250TIP3    H227687   3.047   5.586   4.235  0.3577 -1.2029 -0.4207
 9251TIP3   OH227688   1.117   0.297   5.277 -0.3075 -0.0704 -0.0104
 9251TIP3    H127689   1.132   0.315   5.184  0.4260  0.2234  0.1607
 9251TIP3    H227690   1.185   0.347   5.322 -1.3421  0.6763  0.7467
 9252TIP3   OH227691   5.465   7.241   1.853 -0.7987  0.0685 -0.0862
 9252TIP3    H127692   5.547   7.194   1.837 -1.3365 -0.5402 -1.1004
 9252TIP3    H227693   5.417   7.185   1.914 -0.8097  0.0244 -0.1354
 9253TIP3   OH227694   2.762   7.465   4.538  0.3338  0.2652  0.3681
 9253TIP3    H127695   2.851   7.434   4.549  0.2421 -0.1473 -0.0281
 9253TIP3    H227696   2.770   7.545   4.485  0.3615 -0.4680 -0.7353
 9254TIP3   OH227697   6.884   1.700   1.410  0.5372 -0.0288 -0.2938
 9254TIP3    H127698   6.955   1.747   1.367  0.6528  1.1781  1.2124
 9254TIP3    H227699   6.896   1.716   1.503  0.3305 -2.6787  0.2489
 9255TIP3   OH227700   4.542   0.084   2.488 -0.1773 -0.1843  0.2816
 9255TIP3    H127701   4.518   0.175   2.468  1.1480  0.1245  0.0544
 9255TIP3    H227702   4.489   0.032   2.427 -2.0268  0.3457  1.3984
 9256TIP3   OH227703   2.280   6.692   1.676 -0.1047 -0.1992 -0.0057
 9256TIP3    H127704   2.202   6.647   1.643  0.2296 -1.3630  0.7732
 9256TIP3    H227705   2.318   6.631   1.739  0.8124  0.8392  0.4565
 9257TIP3   OH227706   2.706   7.294   3.508  0.4468  0.1427 -0.7591
 9257TIP3    H127707   2.769   7.263   3.573  0.4452 -1.7848 -1.6359
 9257TIP3    H227708   2.756   7.354   3.453  1.4845 -1.2138 -1.3173
 9258TIP3   OH227709   6.621   0.512   3.788 -0.2558  0.3747 -0.0137
 9258TIP3    H127710   6.644   0.539   3.699 -2.3202  0.6153 -0.4956
 9258TIP3    H227711   6.618   0.416   3.784 -0.9038  0.4106 -0.3375
 9259TIP3   OH227712   3.467   6.763   3.126 -0.5600  0.6719  0.2798
 9259TIP3    H127713   3.535   6.711   3.085  0.2317  1.6229  0.3598
 9259TIP3    H227714   3.398   6.768   3.060 -0.6103 -0.4028  0.2487
 9260TIP3   OH227715   2.853   7.472   3.764 -0.5470  0.1433 -0.1437
 9260TIP3    H127716   2.924   7.423   3.803  0.7424 -0.1491 -2.7563
 9260TIP3    H227717   2.774   7.423   3.786  0.1594 -0.1011  1.8704
 9261TIP3   OH227718   5.365   5.890   3.269 -0.3940  0.0075 -0.5286
 9261TIP3    H127719   5.272   5.877   3.253 -0.7899 -0.2694  1.7261
 9261TIP3    H227720   5.377   5.985   3.263 -0.5798 -0.0437 -1.9150
 9262TIP3   OH227721   7.371   0.172   1.647  0.2309 -0.3679 -0.2424
 9262TIP3    H127722   7.350   0.152   1.739  0.5236  0.3591 -0.0164
 9262TIP3    H227723   7.447   0.229   1.652 -1.4523  1.9868 -0.8082
 9263TIP3   OH227724   6.230   7.167   2.901  0.2753  0.1372 -0.0070
 9263TIP3    H127725   6.166   7.177   2.831 -1.5949 -0.5344  1.5722
 9263TIP3    H227726   6.256   7.256   2.924 -0.1274  0.4150 -0.6229
 9264TIP3   OH227727   5.574   0.811   2.952  0.2541 -0.2951  0.1829
 9264TIP3    H127728   5.646   0.838   3.008  1.1542 -0.4766 -0.8706
 9264TIP3    H227729   5.616   0.785   2.870 -0.7067 -3.5541  0.6638
 9265TIP3   OH227730   4.178   7.899   3.000 -0.1988  0.4174  0.2835
 9265TIP3    H127731   4.232   7.845   2.943 -0.0163  1.5244 -0.6140
 9265TIP3    H227732   4.097   7.913   2.951 -1.3147 -1.2070  1.6036
 9266TIP3   OH227733   4.337   6.871   2.091 -0.2461 -0.5328 -0.7021
 9266TIP3    H127734   4.381   6.868   2.006  1.1422  0.1040 -0.0115
 9266TIP3    H227735   4.316   6.963   2.104  0.4975 -0.4830  0.1353
 9267TIP3   OH227736   4.872   0.709   4.111  0.5191  0.4608 -0.2937
 9267TIP3    H127737   4.817   0.679   4.183  0.4888  0.1611 -0.4404
 9267TIP3    H227738   4.944   0.645   4.107  0.5998  0.5584 -0.4318
 9268TIP3   OH227739   4.984   0.432   3.752 -0.1700 -0.4506 -0.2644
 9268TIP3    H127740   5.058   0.458   3.696 -0.3421 -2.0163 -1.2667
 9268TIP3    H227741   4.944   0.358   3.705 -1.0861 -0.9817  1.3314
 9269TIP3   OH227742   4.303   5.325   3.359 -0.2078 -0.0010 -0.1001
 9269TIP3    H127743   4.217   5.311   3.321 -0.6812  2.3044  0.0259
 9269TIP3    H227744   4.285   5.361   3.446  0.8715 -0.6549  0.3974
 9270TIP3   OH227745   3.624   7.433   4.342 -0.4525  0.2347 -0.1982
 9270TIP3    H127746   3.694   7.370   4.360  0.3242  1.6416  2.1132
 9270TIP3    H227747   3.644   7.467   4.255  2.1312  1.0168  0.6405
 9271TIP3   OH227748   2.726   6.515   3.300  0.3855 -0.3576  0.2459
 9271TIP3    H127749   2.681   6.448   3.352 -1.2849  1.2715  0.9115
 9271TIP3    H227750   2.749   6.583   3.362 -0.9695  1.2782 -1.0122
 9272TIP3   OH227751   5.648   6.410   3.141  0.0726  0.5199 -0.4172
 9272TIP3    H127752   5.563   6.434   3.177  0.4492  0.3674  0.6111
 9272TIP3    H227753   5.628   6.369   3.057 -0.7717  1.6277 -0.7624
 9273TIP3   OH227754   4.992   6.563   2.946  0.4732  0.6204 -0.1986
 9273TIP3    H127755   4.953   6.581   3.031  1.1753  1.5660 -0.0675
 9273TIP3    H227756   5.066   6.506   2.965 -0.2581 -0.3966 -0.3473
 9274TIP3   OH227757   4.030   7.309   3.059 -0.2407  0.7870  0.0009
 9274TIP3    H127758   3.952   7.259   3.084 -1.3519  1.3056 -2.2541
 9274TIP3    H227759   4.009   7.400   3.082  0.8622  0.5575  2.0022
 9275TIP3   OH227760   1.922   7.996   1.236  0.5597  0.1491  0.2699
 9275TIP3    H127761   1.942   8.037   1.152  0.8771 -1.5216 -0.4943
 9275TIP3    H227762   1.993   7.934   1.250  0.4863  0.3743  1.7675
 9276TIP3   OH227763   6.238   1.376   3.027  0.0128  0.1580 -0.3262
 9276TIP3    H127764   6.263   1.374   2.935  0.5603  1.4502 -0.2150
 9276TIP3    H227765   6.161   1.433   3.029  0.2912  0.5219  0.0810
 9277TIP3   OH227766   6.617   1.605   2.661  0.3612  0.1233  0.1590
 9277TIP3    H127767   6.677   1.569   2.595 -0.2611 -1.2123  0.2901
 9277TIP3    H227768   6.670   1.611   2.741  0.5691 -0.2166  0.0507
 9278TIP3   OH227769   0.670   4.144   2.145  0.0509  0.1975 -0.5494
 9278TIP3    H127770   0.700   4.216   2.200  0.1346 -0.7134  0.6456
 9278TIP3    H227771   0.579   4.131   2.171  0.1950 -0.4691 -0.3506
 9279TIP3   OH227772   4.090   7.938   5.049 -0.1349  0.0819  0.3176
 9279TIP3    H127773   4.030   7.899   5.112 -1.0525  1.0856  0.0811
 9279TIP3    H227774   4.152   7.988   5.102 -2.3125  2.8825  0.3597
 9280TIP3   OH227775   5.010   7.907   2.502  0.2740  0.0905 -0.0043
 9280TIP3    H127776   4.989   7.857   2.423 -0.9571  0.5956 -0.0136
 9280TIP3    H227777   4.925   7.923   2.543  0.8017  0.8095  0.8294
 9281TIP3   OH227778   2.425   6.480   5.444 -0.0149 -0.2813 -0.0877
 9281TIP3    H127779   2.369   6.533   5.388  0.6736  0.3191 -0.2053
 9281TIP3    H227780   2.372   6.463   5.522 -0.7900 -0.6988 -0.6934
 9282TIP3   OH227781   4.877   7.676   5.676  0.8902  0.4022  0.1189
 9282TIP3    H127782   4.822   7.616   5.728 -0.6148  0.2061 -1.6556
 9282TIP3    H227783   4.849   7.764   5.704 -0.0025  0.2988 -0.4430
 9283TIP3   OH227784   2.442   6.976   3.284 -0.4978  0.4747 -0.4516
 9283TIP3    H127785   2.412   7.063   3.310 -1.2558 -0.1871  0.9732
 9283TIP3    H227786   2.416   6.968   3.192 -1.1454  1.4328 -0.3626
 9284TIP3   OH227787   5.081   6.330   2.294 -0.8422 -0.2176  0.2961
 9284TIP3    H127788   5.012   6.266   2.311 -0.2222 -1.5177 -1.8535
 9284TIP3    H227789   5.122   6.299   2.213 -0.5370  2.9124 -0.8032
 9285TIP3   OH227790   6.876   3.153   5.399 -0.2543 -0.0942 -0.0070
 9285TIP3    H127791   6.833   3.198   5.327 -0.0412 -1.2360 -0.8605
 9285TIP3    H227792   6.833   3.187   5.478 -1.5344  0.0410 -0.7524
 9286TIP3   OH227793   4.300   5.199   5.599  0.0902  0.1741  0.1812
 9286TIP3    H127794   4.370   5.139   5.623  0.1055  0.0408 -0.1801
 9286TIP3    H227795   4.343   5.267   5.547  0.0485  0.4124  0.4616
 9287TIP3   OH227796   6.952   0.815   3.673 -0.1172 -0.4096  0.0692
 9287TIP3    H127797   6.936   0.817   3.768 -1.8496 -2.6533 -0.1282
 9287TIP3    H227798   7.024   0.753   3.663 -0.0896 -0.3475 -0.1095
 9288TIP3   OH227799   3.021   6.112   5.049 -0.2305 -0.2492 -0.0121
 9288TIP3    H127800   2.975   6.086   5.129 -1.6238  0.7599 -0.4549
 9288TIP3    H227801   3.112   6.090   5.065 -0.3916  0.5010  2.1072
 9289TIP3   OH227802   4.009   6.251   2.926 -0.7966  0.5783  0.0781
 9289TIP3    H127803   4.010   6.199   2.846 -1.0279 -0.7468  0.9168
 9289TIP3    H227804   4.072   6.321   2.910 -1.6551  0.9763 -1.6744
 9290TIP3   OH227805   5.297   0.702   4.012  0.0142 -0.0446  0.5163
 9290TIP3    H127806   5.389   0.688   4.033  0.8078  0.4584 -2.5236
 9290TIP3    H227807   5.264   0.755   4.085  2.1586  0.0032  1.4919
 9291TIP3   OH227808   2.429   7.795   2.788 -0.0990 -0.1158  0.2285
 9291TIP3    H127809   2.485   7.725   2.821 -0.5855  0.0699  1.4851
 9291TIP3    H227810   2.340   7.759   2.793 -0.2959  0.3768  0.3270
 9292TIP3   OH227811   8.247   0.043   6.666 -0.3750 -0.1703 -0.3570
 9292TIP3    H127812   8.319   0.103   6.645  0.5341 -0.5758  1.4927
 9292TIP3    H227813   8.235  -0.008   6.586  0.2597  1.0473 -1.2428
 9293TIP3   OH227814   6.869   0.206   2.478 -0.1914  0.6116  0.3388
 9293TIP3    H127815   6.910   0.193   2.393 -0.6260  0.4006  0.1587
 9293TIP3    H227816   6.915   0.146   2.537  0.1641  0.8162  0.2739
 9294TIP3   OH227817   0.972   0.646   0.455 -0.3696 -0.3198 -0.7346
 9294TIP3    H127818   0.951   0.583   0.524 -0.9677  2.4654  1.7687
 9294TIP3    H227819   1.067   0.652   0.455 -0.2496 -1.9589 -1.7293
 9295TIP3   OH227820   5.404   6.820   5.181 -0.4035 -0.2172 -0.0212
 9295TIP3    H127821   5.448   6.868   5.110 -0.4851  0.1804  0.1903
 9295TIP3    H227822   5.311   6.843   5.172 -0.3333  0.3631  0.6024
 9296TIP3   OH227823   5.109   6.335   1.992 -0.3078 -0.0163 -0.4165
 9296TIP3    H127824   5.042   6.305   1.931  0.2968 -1.5923 -0.3398
 9296TIP3    H227825   5.183   6.360   1.936  0.9037 -3.1309 -0.3183
 9297TIP3   OH227826   4.397   6.793   2.398  0.3643  0.9389 -0.8892
 9297TIP3    H127827   4.434   6.857   2.459  2.3667 -0.4489 -0.5888
 9297TIP3    H227828   4.418   6.827   2.311 -0.0204  1.5156 -0.7534
 9298TIP3   OH227829   5.339   7.154   4.531  0.3537 -0.5316  0.1169
 9298TIP3    H127830   5.430   7.180   4.517 -0.0510  1.5695  1.0841
 9298TIP3    H227831   5.291   7.198   4.460 -0.0596 -0.6435  0.3251
 9299TIP3   OH227832   3.642   6.220   3.052 -0.4153  0.2430 -0.8218
 9299TIP3    H127833   3.638   6.219   3.148 -0.7192  0.3189 -0.8348
 9299TIP3    H227834   3.726   6.179   3.032 -0.5330 -0.1527 -0.5312
 9300TIP3   OH227835   2.451   7.738   1.310 -0.3172  0.7137  0.0462
 9300TIP3    H127836   2.474   7.831   1.312  0.7158  0.4574  3.4222
 9300TIP3    H227837   2.391   7.727   1.383  1.9571 -1.7968  1.6338
 9301TIP3   OH227838   6.355   0.177   4.978 -0.0448  0.0234  0.0857
 9301TIP3    H127839   6.405   0.171   5.060  0.2361 -0.2147 -0.1033
 9301TIP3    H227840   6.265   0.189   5.006  0.1297  0.5503  0.4297
 9302TIP3   OH227841   7.017   0.254   1.368  0.2194 -0.5848  0.0172
 9302TIP3    H127842   7.012   0.348   1.384  1.2045 -0.3526 -0.9844
 9302TIP3    H227843   7.111   0.234   1.368  0.1176 -1.2017 -1.7573
 9303TIP3   OH227844   6.305   1.292   4.700  0.7038  0.0656 -0.3469
 9303TIP3    H127845   6.333   1.366   4.755  0.2406  0.0813 -0.1249
 9303TIP3    H227846   6.210   1.305   4.690  0.8828  0.4501 -1.7275
 9304TIP3   OH227847   3.719   8.003   2.022  0.5291  0.3190 -0.4885
 9304TIP3    H127848   3.678   8.058   1.955  1.1188  0.2697 -0.8922
 9304TIP3    H227849   3.769   7.938   1.972 -0.4243 -0.7934 -0.0252
 9305TIP3   OH227850   3.383   8.013   2.186  0.0064 -0.4906  0.0725
 9305TIP3    H127851   3.351   8.021   2.096  1.1497  0.7418 -0.2248
 9305TIP3    H227852   3.358   7.924   2.212 -4.1413  0.5664  0.0568
 9306TIP3   OH227853   4.131   6.221   4.637  0.2092  0.1013  0.0691
 9306TIP3    H127854   4.084   6.263   4.565 -1.5874  0.0214  1.1757
 9306TIP3    H227855   4.194   6.288   4.666 -0.2531  0.7708 -0.4481
 9307TIP3   OH227856   6.804   0.230   3.444  0.0304 -0.4528  0.1684
 9307TIP3    H127857   6.840   0.258   3.360 -1.2504  1.2833  0.1650
 9307TIP3    H227858   6.711   0.249   3.438 -0.1507 -0.7300  1.8078
 9308TIP3   OH227859   5.134   4.571   3.132  0.0026  0.4229 -0.5885
 9308TIP3    H127860   5.182   4.492   3.156 -0.8377 -0.2056 -0.9532
 9308TIP3    H227861   5.089   4.597   3.212  1.0307  1.0864 -0.2108
 9309TIP3   OH227862   3.933   4.882   6.594 -0.0553 -0.0073 -0.0885
 9309TIP3    H127863   3.866   4.916   6.534  0.4176  0.6282 -0.2574
 9309TIP3    H227864   4.006   4.858   6.538 -0.1567 -0.7561  0.0940
 9310TIP3   OH227865   1.884   6.772   2.905  0.0557 -0.3105  0.1197
 9310TIP3    H127866   1.836   6.760   2.823 -0.1766 -2.3138  0.5186
 9310TIP3    H227867   1.818   6.761   2.974  0.7998 -1.7227  0.6328
 9311TIP3   OH227868   3.858   7.658   4.414 -0.2784  0.2089 -0.0846
 9311TIP3    H127869   3.928   7.723   4.413 -0.5068  0.4698  0.9557
 9311TIP3    H227870   3.791   7.695   4.356 -0.4451  0.9515  0.5682
 9312TIP3   OH227871   4.058   6.420   0.805  0.1070  0.5072 -0.5382
 9312TIP3    H127872   4.068   6.415   0.710  1.8512 -0.0551 -0.3542
 9312TIP3    H227873   3.973   6.381   0.823 -1.6341  3.3637 -2.1137
 9313TIP3   OH227874   3.574   0.375   5.353 -0.3257 -0.0649  0.4069
 9313TIP3    H127875   3.502   0.363   5.292  0.2106 -1.5618  0.0497
 9313TIP3    H227876   3.620   0.452   5.321  0.5998 -1.4676 -1.7413
 9314TIP3   OH227877   2.839   6.968   3.930 -0.2534 -0.3359 -0.1985
 9314TIP3    H127878   2.753   6.996   3.961  1.1560  1.1711  2.6133
 9314TIP3    H227879   2.890   6.954   4.010  2.7224  0.8245 -1.7930
 9315TIP3   OH227880   3.948   5.888   4.799 -0.4774  0.0340  0.3178
 9315TIP3    H127881   4.037   5.862   4.778  0.2439  1.9473  0.8574
 9315TIP3    H227882   3.922   5.831   4.871  0.7494  0.2307  0.9216
 9316TIP3   OH227883   2.189   5.942   2.564 -0.4071 -0.9372  0.0327
 9316TIP3    H127884   2.245   5.910   2.492  0.7227  0.5431  0.2240
 9316TIP3    H227885   2.246   5.999   2.615 -1.8840 -0.0321  0.7118
 9317TIP3   OH227886   4.123   7.617   2.891  0.5171 -0.5922  0.0950
 9317TIP3    H127887   4.027   7.614   2.894  0.4836  0.0093 -0.1367
 9317TIP3    H227888   4.151   7.551   2.953 -0.0357 -2.5170 -1.6656
 9318TIP3   OH227889   6.061   5.508   1.342 -0.3531 -0.1529  0.6063
 9318TIP3    H127890   6.088   5.435   1.286 -2.1004 -0.0223 -0.4486
 9318TIP3    H227891   6.102   5.585   1.302 -0.4511 -0.2462  0.3207
 9319TIP3   OH227892   1.820   6.065   4.895 -0.3046  0.0384  0.1455
 9319TIP3    H127893   1.897   6.042   4.844  0.0736  1.2602  0.1382
 9319TIP3    H227894   1.769   5.985   4.900  0.1715 -0.3534 -1.2428
 9320TIP3   OH227895   1.709   6.770   3.123 -0.2732 -0.3143  0.3319
 9320TIP3    H127896   1.668   6.856   3.119 -1.8492 -1.0935 -1.0213
 9320TIP3    H227897   1.637   6.710   3.141  0.2586 -1.6874 -1.8672
 9321TIP3   OH227898   6.088   6.219   2.934  0.1720  0.4893  0.5848
 9321TIP3    H127899   6.107   6.264   3.017  0.9849 -1.4341  1.4714
 9321TIP3    H227900   6.147   6.260   2.871  3.6645 -1.7772  2.1822
 9322TIP3   OH227901   5.085   5.864   3.272 -0.3001 -0.0603  0.3005
 9322TIP3    H127902   5.028   5.789   3.258 -0.2324 -0.4765  2.0352
 9322TIP3    H227903   5.042   5.914   3.341  0.4038  0.7007  0.1970
 9323TIP3   OH227904   3.031   6.830   2.592  0.2629  0.5617  0.9018
 9323TIP3    H127905   3.071   6.815   2.506 -1.3400  1.5922 -0.0580
 9323TIP3    H227906   3.104   6.835   2.652  1.5326  1.5734 -0.6798
 9324TIP3   OH227907   4.269   0.472   2.969 -0.5993  0.0640 -0.3753
 9324TIP3    H127908   4.205   0.446   3.035 -1.0449  0.7510 -0.5370
 9324TIP3    H227909   4.217   0.493   2.892 -0.1229 -0.1067 -0.7499
 9325TIP3   OH227910   3.923   5.538   5.516  0.5547  0.5076  0.2938
 9325TIP3    H127911   3.960   5.465   5.567  2.7370  1.6175  0.3802
 9325TIP3    H227912   3.948   5.616   5.566 -0.2376  1.4279 -0.7275
 9326TIP3   OH227913   4.809   6.737   2.779  0.0986  0.1299  0.9655
 9326TIP3    H127914   4.844   6.705   2.861 -0.4360  0.6724  1.4120
 9326TIP3    H227915   4.720   6.703   2.775  0.7136 -1.3881 -0.2463
 9327TIP3   OH227916   3.870   7.552   2.817 -0.0981  0.3317 -0.7519
 9327TIP3    H127917   3.790   7.575   2.864  0.6134  0.3375  0.4792
 9327TIP3    H227918   3.852   7.575   2.726 -1.3956  0.5777 -0.4388
 9328TIP3   OH227919   5.722   0.748   2.743 -0.0967  0.1475 -0.5770
 9328TIP3    H127920   5.768   0.683   2.690  1.3591 -0.8855  1.8647
 9328TIP3    H227921   5.787   0.817   2.757 -0.7363  0.8026 -0.7879
 9329TIP3   OH227922   6.055   7.159   2.291 -0.3854  0.0023  0.3443
 9329TIP3    H127923   6.096   7.223   2.233 -2.9338  1.3927  0.0236
 9329TIP3    H227924   6.066   7.075   2.246 -1.5945  0.9472 -1.7507
 9330TIP3   OH227925   7.918   3.642   5.510 -0.0109 -0.2388  0.3193
 9330TIP3    H127926   7.860   3.705   5.552  0.7088  0.6101  0.0622
 9330TIP3    H227927   7.867   3.606   5.437 -0.3004  0.2982  0.2597
 9331TIP3   OH227928   4.560   7.283   2.823 -0.0677  0.1029 -0.2287
 9331TIP3    H127929   4.496   7.313   2.759 -1.1142 -1.8865 -0.1782
 9331TIP3    H227930   4.535   7.192   2.840  2.7896 -0.7270 -0.2056
 9332TIP3   OH227931   4.688   6.163   2.349  0.6253 -0.4843 -0.1365
 9332TIP3    H127932   4.594   6.145   2.344  0.7856 -1.3693 -0.1360
 9332TIP3    H227933   4.712   6.194   2.262  0.0806  1.0048  0.2463
 9333TIP3   OH227934   2.767   7.560   3.105 -0.5955  0.1415 -0.5316
 9333TIP3    H127935   2.764   7.503   3.182 -0.5250  0.1093 -0.5523
 9333TIP3    H227936   2.851   7.538   3.063 -0.8526 -0.1790 -0.8783
 9334TIP3   OH227937   3.446   7.034   2.806  0.0447  0.2397 -0.0137
 9334TIP3    H127938   3.489   6.950   2.817 -0.4602 -0.1023 -0.6612
 9334TIP3    H227939   3.514   7.099   2.828  1.5261 -0.2137 -3.0679
 9335TIP3   OH227940   4.259   7.130   2.156  0.1692  0.7227 -0.1403
 9335TIP3    H127941   4.294   7.182   2.083  1.2284 -0.2945 -0.3719
 9335TIP3    H227942   4.169   7.161   2.167  0.0539  0.9990 -1.7648
 9336TIP3   OH227943   4.127   7.205   5.338  0.6354  0.4079 -0.2554
 9336TIP3    H127944   4.108   7.298   5.324  0.1955 -0.0169 -2.6084
 9336TIP3    H227945   4.057   7.174   5.395  0.1161  1.2604 -0.4272
 9337TIP3   OH227946   4.608   6.313   4.541  0.6034 -0.5183  0.0280
 9337TIP3    H127947   4.571   6.369   4.472 -0.1612  0.5796  1.2827
 9337TIP3    H227948   4.631   6.232   4.496  1.1935  0.5849 -1.7388
 9338TIP3   OH227949   5.611   6.880   2.201  0.1966  0.0100  0.4635
 9338TIP3    H127950   5.655   6.844   2.279  1.1664  2.1803  0.9542
 9338TIP3    H227951   5.664   6.956   2.177 -1.0986  0.3757 -1.3063
 9339TIP3   OH227952   4.673   5.644   3.425 -0.5369 -0.6218 -0.2681
 9339TIP3    H127953   4.692   5.666   3.516 -2.3003  0.5843 -0.1552
 9339TIP3    H227954   4.639   5.555   3.428 -2.7964  0.2279  0.5925
 9340TIP3   OH227955   4.360   7.327   3.964 -0.0505 -0.0754 -0.1436
 9340TIP3    H127956   4.272   7.320   4.001 -0.4209 -0.6571 -1.0956
 9340TIP3    H227957   4.347   7.369   3.879  0.6325  0.1523 -0.1381
 9341TIP3   OH227958   2.950   5.212   1.826  0.4409  0.9470  0.3067
 9341TIP3    H127959   2.861   5.179   1.818  1.0394 -0.3186 -1.2528
 9341TIP3    H227960   2.973   5.196   1.918 -0.4212 -0.0851  0.3517
 9342TIP3   OH227961   4.434   5.760   5.176  0.1718 -0.2771 -0.4032
 9342TIP3    H127962   4.386   5.734   5.097  0.4949  2.0232 -1.3905
 9342TIP3    H227963   4.366   5.767   5.244 -0.4392  0.0038 -1.0423
 9343TIP3   OH227964   6.746   6.470   2.279 -0.6616  0.1836 -0.3239
 9343TIP3    H127965   6.771   6.437   2.365  0.0860  0.0353 -0.5955
 9343TIP3    H227966   6.695   6.549   2.297  0.1350  0.5741  0.2273
 9344TIP3   OH227967   4.889   7.715   4.413 -0.0459  0.0071  0.8652
 9344TIP3    H127968   4.913   7.757   4.330  0.4550 -2.3540 -0.2134
 9344TIP3    H227969   4.793   7.716   4.413 -0.0612 -0.6233 -0.0827
 9345TIP3   OH227970   7.599   3.766   3.394 -0.2280 -0.3954  0.3639
 9345TIP3    H127971   7.507   3.757   3.415 -0.1694  0.4128  1.0057
 9345TIP3    H227972   7.645   3.741   3.474  0.1096 -0.6679  0.0900
 9346TIP3   OH227973   5.453   5.681   3.433 -0.7903  0.4959 -0.0580
 9346TIP3    H127974   5.441   5.741   3.359 -1.5822  0.2027 -0.1733
 9346TIP3    H227975   5.388   5.709   3.498 -0.5419  0.3411  0.2577
 9347TIP3   OH227976   7.004   7.305   2.363  0.6136 -0.1640 -0.2534
 9347TIP3    H127977   7.052   7.230   2.328  1.4911  0.9277 -1.4747
 9347TIP3    H227978   6.931   7.317   2.302  0.2431 -0.2770  0.1692
 9348TIP3   OH227979   5.007   6.963   3.853  0.4903  0.3210  0.5188
 9348TIP3    H127980   4.927   6.977   3.904  0.8112 -0.7588  1.3478
 9348TIP3    H227981   5.020   6.868   3.855  1.3373  0.4083 -0.3211
 9349TIP3   OH227982   5.585   1.018   5.253 -0.1640 -0.1702 -0.1539
 9349TIP3    H127983   5.537   1.069   5.318  0.3460 -0.0405  0.1243
 9349TIP3    H227984   5.677   1.040   5.268 -0.0485 -0.0470 -0.9992
 9350TIP3   OH227985   5.921   1.774   1.277  0.4334 -0.3397 -0.4776
 9350TIP3    H127986   5.862   1.784   1.202 -0.8656 -0.5777  0.5085
 9350TIP3    H227987   6.008   1.760   1.237 -0.1129  0.3324 -1.9210
 9351TIP3   OH227988   3.788   7.150   3.117 -0.1855  0.4221  0.0227
 9351TIP3    H127989   3.816   7.086   3.182  0.7743  0.2480 -0.5528
 9351TIP3    H227990   3.709   7.189   3.154  0.3844  0.3704  1.3212
 9352TIP3   OH227991   5.370   5.096   2.703  0.0087  0.3040  0.4094
 9352TIP3    H127992   5.384   5.017   2.651 -0.7581 -0.5503  1.4782
 9352TIP3    H227993   5.328   5.065   2.783 -1.6007  1.9569  0.2454
 9353TIP3   OH227994   6.892   7.642   0.253  0.0598 -0.2321 -0.0116
 9353TIP3    H127995   6.948   7.565   0.248 -0.0042 -0.3714  1.1293
 9353TIP3    H227996   6.844   7.644   0.170 -0.1364 -1.5676  0.0636
 9354TIP3   OH227997   7.874   0.718   4.761 -0.3048 -0.3503  0.1905
 9354TIP3    H127998   7.966   0.717   4.734 -0.6322  0.0805 -0.9988
 9354TIP3    H227999   7.876   0.720   4.857  0.8980 -1.9970  0.1977
 9355TIP3   OH228000   4.188   7.617   1.800 -0.0927  0.2984 -0.5280
 9355TIP3    H128001   4.144   7.580   1.723 -1.5547  1.1464 -0.1162
 9355TIP3    H228002   4.193   7.711   1.782  0.2346  0.3994  0.0837
 9356TIP3   OH228003   6.322   1.035   3.629 -0.0773 -0.2361  0.3192
 9356TIP3    H128004   6.231   1.063   3.620 -0.3109 -1.4234 -1.0988
 9356TIP3    H228005   6.373   1.109   3.596 -0.5100  0.5003  1.2741
 9357TIP3   OH228006   8.262   6.611   5.544  0.0762 -0.9135  0.4805
 9357TIP3    H128007   8.300   6.542   5.489  0.0115 -0.2711 -0.3673
 9357TIP3    H228008   8.198   6.654   5.488 -0.3105 -0.5387  1.2027
 9358TIP3   OH228009   5.492   7.516   1.902  0.4665 -0.1990  0.2023
 9358TIP3    H128010   5.488   7.423   1.881 -1.8911 -0.0875  0.0688
 9358TIP3    H228011   5.473   7.521   1.996  2.8804 -0.0176  0.7121
 9359TIP3   OH228012   6.864   0.508   5.074  0.1153 -0.0670 -0.0090
 9359TIP3    H128013   6.773   0.483   5.058  0.0418 -0.1909  0.5711
 9359TIP3    H228014   6.860   0.603   5.085  0.6091  0.4187 -3.6319
 9360TIP3   OH228015   4.212   6.066   2.680 -0.0950  0.0295  0.0654
 9360TIP3    H128016   4.228   6.122   2.604 -0.7166  1.3200  0.8605
 9360TIP3    H228017   4.117   6.051   2.679 -0.0097 -0.5368  0.1905
 9361TIP3   OH228018   6.699   0.225   2.160 -0.3403  0.2729 -0.1993
 9361TIP3    H128019   6.788   0.247   2.133 -0.3626  0.6581  0.0312
 9361TIP3    H228020   6.648   0.302   2.137 -0.6399 -0.0053 -0.4580
 9362TIP3   OH228021   5.938   5.760   3.048 -0.1356  0.7568 -0.2386
 9362TIP3    H128022   5.968   5.850   3.037  0.6494  0.4426 -0.7462
 9362TIP3    H228023   5.858   5.767   3.100  0.2443  1.6956  0.2259
 9363TIP3   OH228024   6.798   1.302   4.620 -0.9421  0.7630  0.6639
 9363TIP3    H128025   6.707   1.284   4.596 -0.9887  1.3047  0.4347
 9363TIP3    H228026   6.850   1.265   4.549 -0.9892  0.5459  0.7427
 9364TIP3   OH228027   4.949   6.083   2.365  0.0257 -0.3362 -0.2897
 9364TIP3    H128028   4.937   6.052   2.275  1.2696  1.3729 -1.0730
 9364TIP3    H228029   4.865   6.123   2.388 -0.9411 -2.4593  0.0341
 9365TIP3   OH228030   1.906   1.208   4.567 -0.0947  0.4156 -0.3579
 9365TIP3    H128031   1.901   1.115   4.548  1.2179  0.0447  1.0438
 9365TIP3    H228032   1.868   1.217   4.654 -1.7695  1.4380 -1.1780
 9366TIP3   OH228033   6.556   5.764   3.595 -0.2901  0.0812  0.2699
 9366TIP3    H128034   6.500   5.818   3.651 -1.7151 -0.1333 -0.9322
 9366TIP3    H228035   6.507   5.683   3.583  0.6750 -0.4574 -0.0878
 9367TIP3   OH228036   3.926   6.113   3.482 -0.0093  0.0025  0.1062
 9367TIP3    H128037   4.019   6.088   3.483  0.4502  1.6874  0.5200
 9367TIP3    H228038   3.924   6.195   3.433 -1.4241 -0.4697 -0.6720
 9368TIP3   OH228039   6.142   1.705   5.309  0.1417  0.1893 -1.0452
 9368TIP3    H128040   6.217   1.705   5.250  1.1751 -1.0669  0.2019
 9368TIP3    H228041   6.166   1.766   5.379  0.1940 -0.5025 -0.4441
 9369TIP3   OH228042   6.439   7.372   4.815  0.1422  0.2004 -0.2585
 9369TIP3    H128043   6.360   7.324   4.790  1.0781 -0.7404 -1.4801
 9369TIP3    H228044   6.487   7.310   4.871  0.3343  0.5166 -0.0737
 9370TIP3   OH228045   7.253   2.782   4.053 -0.6159  0.0428  0.1451
 9370TIP3    H128046   7.169   2.743   4.077 -0.2649 -0.3419  0.7785
 9370TIP3    H228047   7.269   2.752   3.964 -0.9115 -0.3005  0.2050
 9371TIP3   OH228048   5.049   7.030   4.248 -0.4122  0.0123 -0.4755
 9371TIP3    H128049   5.140   7.006   4.269 -0.4147  0.7352  0.3836
 9371TIP3    H228050   5.030   7.103   4.307 -1.0285  0.9056 -1.7846
 9372TIP3   OH228051   5.170   7.601   3.960 -0.0432 -0.2373  0.4537
 9372TIP3    H128052   5.146   7.575   4.049  0.7203  0.9536  1.0230
 9372TIP3    H228053   5.146   7.694   3.955  1.0891  0.0338 -0.1505
 9373TIP3   OH228054   4.640   6.589   3.337 -0.2571 -0.2919 -0.2203
 9373TIP3    H128055   4.656   6.656   3.270 -0.8686 -0.5595 -0.6397
 9373TIP3    H228056   4.618   6.639   3.416 -1.0206  0.0004 -0.6158
 9374TIP3   OH228057   0.029   0.785   1.660  0.2403 -0.3217 -0.0694
 9374TIP3    H128058   0.079   0.849   1.712  0.8134  0.6762 -1.7701
 9374TIP3    H228059   0.094   0.718   1.637  0.8829  1.0085 -2.3348
 9375TIP3   OH228060   3.976   7.980   2.790 -0.3646 -0.0683 -0.2308
 9375TIP3    H128061   3.943   8.034   2.862 -0.8905 -1.9572  0.9521
 9375TIP3    H228062   3.901   7.966   2.734  0.1349  1.7482 -1.4161
 9376TIP3   OH228063   3.282   7.867   2.827  0.0532 -0.0077  0.1234
 9376TIP3    H128064   3.342   7.917   2.771 -0.1899  2.2133  1.7515
 9376TIP3    H228065   3.196   7.906   2.809 -0.3409 -0.7034  0.5072
 9377TIP3   OH228066   5.166   5.680   3.530 -0.0116 -0.1086 -0.0678
 9377TIP3    H128067   5.176   5.593   3.569  1.1904 -0.0866 -0.2813
 9377TIP3    H228068   5.159   5.663   3.436 -1.0136 -0.0434 -0.0120
 9378TIP3   OH228069   6.132   5.887   3.612  0.0480 -0.0884  0.5073
 9378TIP3    H128070   6.080   5.851   3.684  0.3550 -2.0802 -0.2323
 9378TIP3    H228071   6.221   5.890   3.647  0.1999 -1.0713  0.2140
 9379TIP3   OH228072   0.806   0.237   5.094  0.4389 -0.0687 -0.1032
 9379TIP3    H128073   0.843   0.192   5.018 -3.7114 -1.0139 -1.6990
 9379TIP3    H228074   0.771   0.318   5.059 -2.0624 -0.7898  0.6066
 9380TIP3   OH228075   5.623   7.293   3.395  0.5444  0.0239 -0.0301
 9380TIP3    H128076   5.655   7.232   3.461  1.1192  0.2179 -0.1317
 9380TIP3    H228077   5.591   7.368   3.446  0.7995  0.0864  0.0387
 9381TIP3   OH228078   6.022   7.141   4.470 -0.4522  0.0753 -0.1476
 9381TIP3    H128079   5.946   7.199   4.479  0.6638  1.2558  2.0158
 9381TIP3    H228080   6.023   7.091   4.552 -1.5597 -3.2521 -2.1038
 9382TIP3   OH228081   6.171   1.089   3.061  0.2129  0.4045  0.3801
 9382TIP3    H128082   6.237   1.078   3.129  0.3624  1.5187  0.4366
 9382TIP3    H228083   6.095   1.126   3.107 -0.2757 -0.4150  0.2335
 9383TIP3   OH228084   3.993   6.940   4.476 -0.2450 -0.2199  0.2618
 9383TIP3    H128085   3.959   6.953   4.565 -0.2830 -1.7859  0.4797
 9383TIP3    H228086   3.934   6.876   4.437  1.1339 -1.2677 -0.1155
 9384TIP3   OH228087   5.686   6.434   2.836 -0.2181  0.0803 -0.0321
 9384TIP3    H128088   5.607   6.423   2.783  1.2555 -0.4814 -2.1593
 9384TIP3    H228089   5.748   6.369   2.802  1.6779  1.4819  0.6239
 9385TIP3   OH228090   0.632   0.227   5.656  0.3897  0.1998  0.2098
 9385TIP3    H128091   0.678   0.232   5.572  0.4766 -0.4221  0.2191
 9385TIP3    H228092   0.599   0.137   5.660 -0.6935  0.5934  0.2773
 9386TIP3   OH228093   6.160   6.925   1.317  0.3219 -0.7387 -0.7570
 9386TIP3    H128094   6.224   6.978   1.271 -0.9255  0.7183 -0.8633
 9386TIP3    H228095   6.160   6.960   1.406 -0.3057 -0.7325 -0.7575
 9387TIP3   OH228096   5.213   7.975   1.950  0.2496 -0.0910  0.5615
 9387TIP3    H128097   5.248   8.050   1.902  0.8593  0.7161  2.2155
 9387TIP3    H228098   5.178   8.013   2.030  0.1965 -1.5365  1.2346
 9388TIP3   OH228099   4.755   7.866   2.613  0.1424 -0.0714  0.2854
 9388TIP3    H128100   4.701   7.790   2.637 -0.6047  0.0364 -1.0112
 9388TIP3    H228101   4.769   7.912   2.696 -1.6720 -0.1659  0.6798
 9389TIP3   OH228102   6.769   6.398   0.938  0.2156  0.0467 -0.6365
 9389TIP3    H128103   6.729   6.467   0.992 -1.0417 -1.6598  0.6626
 9389TIP3    H228104   6.728   6.408   0.853  0.3845  1.1962 -0.5963
 9390TIP3   OH228105   5.592   5.258   2.243  0.4487 -0.1612 -0.7040
 9390TIP3    H128106   5.535   5.327   2.277  1.9372  0.7438  0.0223
 9390TIP3    H228107   5.675   5.271   2.289  0.4960 -2.9887  0.0803
 9391TIP3   OH228108   7.102   0.237   3.663 -0.4890  0.4031  0.0307
 9391TIP3    H128109   7.160   0.221   3.737 -3.1603 -1.6850  1.7754
 9391TIP3    H228110   7.029   0.177   3.677 -3.7701  3.8739 -1.2835
 9392TIP3   OH228111   4.353   6.379   3.093  0.1262 -0.2934  0.3660
 9392TIP3    H128112   4.360   6.308   3.030  1.7308  0.8503 -0.7716
 9392TIP3    H228113   4.443   6.399   3.118 -0.3693  0.6441  1.4594
 9393TIP3   OH228114   3.806   7.387   3.452 -0.1484  0.0075 -0.0916
 9393TIP3    H128115   3.892   7.391   3.496 -0.4902  0.6499  0.5374
 9393TIP3    H228116   3.808   7.305   3.403  1.0855  0.3308 -0.6122
 9394TIP3   OH228117   6.235   6.426   1.686  0.5723  0.2004 -0.3103
 9394TIP3    H128118   6.174   6.495   1.661  0.9004  1.1463  1.4602
 9394TIP3    H228119   6.211   6.351   1.631 -1.3510  0.9627 -0.5128
 9395TIP3   OH228120   6.041   0.080   5.073  0.2140 -0.1220 -0.0011
 9395TIP3    H128121   6.054   0.057   4.982 -1.6330 -0.9462 -0.0829
 9395TIP3    H228122   6.014   0.172   5.071  0.1375 -0.1506 -0.2817
 9396TIP3   OH228123   4.313   7.475   4.372 -0.7481 -0.0796  0.4269
 9396TIP3    H128124   4.392   7.459   4.423 -0.8352 -0.6695  0.3792
 9396TIP3    H228125   4.342   7.531   4.300 -0.4205 -0.1128  0.5310
 9397TIP3   OH228126   6.241   5.963   0.906  0.0384  0.7505  0.0125
 9397TIP3    H128127   6.168   5.903   0.923 -0.0717  0.9357  0.1905
 9397TIP3    H228128   6.300   5.949   0.980  0.4206  0.2407 -0.3830
 9398TIP3   OH228129   4.657   6.250   1.590  0.0447  0.0645 -0.0074
 9398TIP3    H128130   4.729   6.290   1.640 -0.3240  1.4364 -0.5519
 9398TIP3    H228131   4.584   6.246   1.652  0.7305 -1.8802  0.7305
 9399TIP3   OH228132   6.164   6.938   2.558 -0.8011  0.4734  0.0043
 9399TIP3    H128133   6.169   6.915   2.465  1.8008  0.0035  0.2445
 9399TIP3    H228134   6.102   7.011   2.561 -1.6206 -0.0964 -1.9686
 9400TIP3   OH228135   7.513   0.386   5.271  0.3402 -0.2867 -0.5675
 9400TIP3    H128136   7.531   0.315   5.210 -0.8089 -2.1506  1.1842
 9400TIP3    H228137   7.467   0.344   5.344 -0.2183  2.2284  0.5990
 9401TIP3   OH228138   6.879   1.231   5.407 -0.1492  0.3042 -0.3127
 9401TIP3    H128139   6.876   1.308   5.464  0.1441  1.9356 -2.4429
 9401TIP3    H228140   6.972   1.205   5.407 -0.3216 -0.3517  0.7623
 9402TIP3   OH228141   2.942   7.559   3.522 -0.2775  0.0750 -0.1127
 9402TIP3    H128142   2.917   7.527   3.609  0.5619 -0.8432 -0.1945
 9402TIP3    H228143   2.873   7.620   3.498  0.4482  1.8231  2.0327
 9403TIP3   OH228144   6.072   7.473   4.957 -0.5980  0.5101 -0.2398
 9403TIP3    H128145   6.151   7.506   5.000 -1.3554  0.7275  1.0354
 9403TIP3    H228146   6.013   7.548   4.954 -1.6512 -0.2375  1.0138
 9404TIP3   OH228147   5.179   6.849   3.633  0.6385  0.1091  0.5154
 9404TIP3    H128148   5.216   6.937   3.644 -1.9427  1.3300  0.0082
 9404TIP3    H228149   5.097   6.851   3.682 -0.9321 -1.0085 -1.9459
 9405TIP3   OH228150   3.178   6.981   4.135 -0.7318 -0.4583 -0.2259
 9405TIP3    H128151   3.197   6.890   4.113 -3.3159 -1.0790 -0.0574
 9405TIP3    H228152   3.089   6.979   4.170 -0.0474  1.8349  1.7754
 9406TIP3   OH228153   5.016   6.702   3.865  0.3021  0.0966  0.5482
 9406TIP3    H128154   5.091   6.642   3.862  0.7643  0.6383  1.1319
 9406TIP3    H228155   4.940   6.645   3.860  0.7425 -0.3853 -1.4666
 9407TIP3   OH228156   8.450   0.341   1.573 -0.2468 -0.0231  0.4214
 9407TIP3    H128157   8.450   0.362   1.667 -0.6643  0.3718  0.3355
 9407TIP3    H228158   8.534   0.297   1.559  0.4519  1.1640  0.7180
 9408TIP3   OH228159   5.045   0.297   2.817 -0.0235 -0.2692  0.7701
 9408TIP3    H128160   5.102   0.259   2.750  1.5135  2.3951  0.5255
 9408TIP3    H228161   4.987   0.357   2.769 -1.3870 -1.0782  1.3618
 9409TIP3   OH228162   7.299   2.496   3.738  0.5729  0.1330  0.3141
 9409TIP3    H128163   7.249   2.575   3.756  0.6719  0.6150 -1.4760
 9409TIP3    H228164   7.243   2.445   3.679  1.0012 -0.6237  0.5497
 9410TIP3   OH228165   8.086   1.207   1.471  0.0387  0.1920  0.1374
 9410TIP3    H128166   8.111   1.199   1.379  0.9290 -0.2353  0.4111
 9410TIP3    H228167   8.016   1.144   1.483 -2.2920  2.4840 -1.0198
 9411TIP3   OH228168   6.074   6.079   2.219 -0.4727  0.2360  0.0506
 9411TIP3    H128169   6.165   6.050   2.231 -0.3736  0.6545  0.3107
 9411TIP3    H228170   6.081   6.168   2.186 -0.7763 -0.1698 -1.1451
 9412TIP3   OH228171   5.102   7.053   2.713 -0.3915  0.8287  0.1082
 9412TIP3    H128172   5.089   6.960   2.695 -0.7689  0.5201  1.9165
 9412TIP3    H228173   5.051   7.097   2.644  0.5873 -0.2673 -1.3456
 9413TIP3   OH228174   5.379   0.617   1.456 -0.3410 -0.1708  0.0592
 9413TIP3    H128175   5.410   0.592   1.369 -0.1048 -1.4591  0.4994
 9413TIP3    H228176   5.298   0.568   1.467 -0.0928 -0.4254  0.7702
 9414TIP3   OH228177   6.640   0.260   2.739  0.0597  0.4300  0.2720
 9414TIP3    H128178   6.681   0.216   2.664 -1.6137 -0.4176 -0.1745
 9414TIP3    H228179   6.599   0.338   2.701  1.3353  1.3372  0.7339
 9415TIP3   OH228180   5.814   7.464   3.820 -0.2154  0.1996  0.3733
 9415TIP3    H128181   5.872   7.392   3.798 -0.3730  0.7515 -1.9365
 9415TIP3    H228182   5.731   7.442   3.780  0.2290  2.4812 -1.9598
 9416TIP3   OH228183   6.266   7.637   2.105  0.1091 -0.3410  0.5964
 9416TIP3    H128184   6.264   7.732   2.114  0.1108 -0.4427  1.7022
 9416TIP3    H228185   6.178   7.609   2.131 -0.4802 -0.5038 -1.4703
 9417TIP3   OH228186   5.441   7.153   3.250  0.2927  0.3510 -0.7837
 9417TIP3    H128187   5.360   7.183   3.292  0.2637 -0.9247  0.1018
 9417TIP3    H228188   5.510   7.200   3.297  0.1737  0.0718 -0.3314
 9418TIP3   OH228189   4.846   7.945   5.750  0.1113  0.5958  0.0951
 9418TIP3    H128190   4.923   8.002   5.757  0.3369  0.3061 -0.0361
 9418TIP3    H228191   4.772   8.003   5.769  0.2212  1.2562 -1.4712
 9419TIP3   OH228192   6.734   7.475   4.362  0.2428  0.1000 -0.0655
 9419TIP3    H128193   6.647   7.439   4.378  0.4390 -0.6145 -0.5971
 9419TIP3    H228194   6.775   7.478   4.448 -0.2782  0.3785  0.1781
 9420TIP3   OH228195   4.716   6.966   4.530  0.4538 -0.4221 -0.4875
 9420TIP3    H128196   4.776   6.988   4.601  0.9045  0.6271 -1.1863
 9420TIP3    H228197   4.647   7.033   4.536  1.0935  0.3597 -1.7464
 9421TIP3   OH228198   6.546   6.663   4.694 -0.2504  0.1929  0.2628
 9421TIP3    H128199   6.538   6.695   4.604  0.6968  1.2079  0.5259
 9421TIP3    H228200   6.538   6.742   4.748  0.1552 -0.2810  1.0193
 9422TIP3   OH228201   0.369   1.023   5.583  0.4058  0.6373 -0.2063
 9422TIP3    H128202   0.382   1.020   5.488 -1.3154 -0.7380 -0.4096
 9422TIP3    H228203   0.378   1.115   5.606  0.0478  1.0787 -1.8173
 9423TIP3   OH228204   7.844   1.408   0.724  0.6540 -0.0251 -0.0864
 9423TIP3    H128205   7.849   1.449   0.810  1.1792 -0.2821  0.0080
 9423TIP3    H228206   7.762   1.359   0.725  0.5139  0.2164  0.1564
 9424TIP3   OH228207   4.708   6.182   0.888 -0.0851  0.7250  0.5919
 9424TIP3    H128208   4.717   6.275   0.910 -2.4280  1.1875 -0.2213
 9424TIP3    H228209   4.616   6.163   0.905  0.4085 -1.5050  0.8742
 9425TIP3   OH228210   4.149   6.665   0.734  0.2311 -0.6610 -0.0552
 9425TIP3    H128211   4.127   6.586   0.785  0.2549 -0.2859  0.5351
 9425TIP3    H228212   4.244   6.662   0.725  0.3419 -0.1252  0.9055
 9426TIP3   OH228213   4.405   7.554   2.564  0.1752  0.4986 -0.2053
 9426TIP3    H128214   4.447   7.599   2.637  1.3563  0.7810 -1.0524
 9426TIP3    H228215   4.429   7.605   2.487 -1.5060  0.5141 -0.7329
 9427TIP3   OH228216   7.186   0.082   1.916  0.2539  0.2030 -0.1606
 9427TIP3    H128217   7.167   0.175   1.907  0.5848  0.1457 -1.6565
 9427TIP3    H228218   7.281   0.076   1.908  0.1903 -0.3093 -0.5505
 9428TIP3   OH228219   4.803   5.982   5.264  0.2703  0.5826  0.0620
 9428TIP3    H128220   4.721   6.024   5.240 -1.1753 -2.3450 -0.4079
 9428TIP3    H228221   4.796   5.894   5.228  2.0407 -0.9240  3.1366
 9429TIP3   OH228222   0.771   4.588   6.876  0.3526  0.0562  0.0254
 9429TIP3    H128223   0.804   4.639   6.802  0.0154  1.3920  0.7608
 9429TIP3    H228224   0.740   4.506   6.838 -0.6206  1.0852 -1.4581
 9430TIP3   OH228225   5.923   0.262   3.211 -0.6984  0.1115 -0.6118
 9430TIP3    H128226   5.975   0.329   3.256 -2.1135  0.1858  0.9581
 9430TIP3    H228227   5.913   0.192   3.276 -0.8396 -0.7983 -1.5955
 9431TIP3   OH228228   4.678   7.478   3.543  0.3366 -0.2767  0.0194
 9431TIP3    H128229   4.592   7.477   3.500  0.2525 -1.4547  0.1903
 9431TIP3    H228230   4.674   7.404   3.605  1.9199 -1.1012 -0.8512
 9432TIP3   OH228231   3.399   7.203   4.788 -0.2983 -0.0892  0.0284
 9432TIP3    H128232   3.379   7.109   4.799  0.4139 -0.1489  0.9037
 9432TIP3    H228233   3.450   7.208   4.707  0.3656 -0.5725  0.4090
 9433TIP3   OH228234   5.293   7.329   3.987  0.1243  0.5966 -0.3507
 9433TIP3    H128235   5.303   7.304   3.895 -1.6326  0.6299 -0.5749
 9433TIP3    H228236   5.251   7.415   3.984 -4.1753 -1.3366  0.4482
 9434TIP3   OH228237   5.705   6.848   2.518  0.1811  0.1885  0.2953
 9434TIP3    H128238   5.610   6.856   2.516  0.2375  1.0454  0.6428
 9434TIP3    H228239   5.729   6.864   2.609  0.6027 -0.7822  0.3623
 9435TIP3   OH228240   2.478   7.358   0.498  0.0446  0.1837  0.9507
 9435TIP3    H128241   2.482   7.453   0.506  2.0815  0.1136  0.9644
 9435TIP3    H228242   2.496   7.341   0.406  1.1458 -0.2401  1.2310
 9436TIP3   OH228243   6.062   6.550   2.638 -0.1148 -0.2167  0.1994
 9436TIP3    H128244   6.021   6.588   2.560  1.2836  0.2832 -0.3231
 9436TIP3    H228245   6.013   6.470   2.655  1.1831 -1.7433 -2.7987
 9437TIP3   OH228246   2.812   7.025   3.136  0.1803  0.2666  0.5988
 9437TIP3    H128247   2.855   6.982   3.209  1.4769 -0.5691 -0.6277
 9437TIP3    H228248   2.811   6.959   3.066  0.7582  1.6835 -0.7938
 9438TIP3   OH228249   5.787   7.113   2.216  0.3872  0.3089  0.0723
 9438TIP3    H128250   5.877   7.109   2.247  0.8866  0.6762 -1.2929
 9438TIP3    H228251   5.794   7.141   2.125 -0.9573 -1.9209 -0.7569
 9439TIP3   OH228252   5.191   6.380   3.015 -0.0452 -0.5042  0.4986
 9439TIP3    H128253   5.173   6.294   3.053  0.0511 -0.2089  1.2322
 9439TIP3    H228254   5.284   6.378   2.993 -0.0519 -0.6045  0.4817
 9440TIP3   OH228255   5.687   7.280   5.044 -0.2794  0.1713 -0.0560
 9440TIP3    H128256   5.768   7.313   5.082 -0.9816  0.7358  1.0082
 9440TIP3    H228257   5.639   7.244   5.119 -1.5228  0.9252 -0.4791
 9441TIP3   OH228258   3.708   7.567   3.631 -0.1591  0.1477  0.5842
 9441TIP3    H128259   3.771   7.639   3.640 -0.2861  0.0734  2.1369
 9441TIP3    H228260   3.740   7.517   3.555  0.0999  1.6567 -0.3128
 9442TIP3   OH228261   3.513   7.772   5.279  0.1526 -0.0180  0.0468
 9442TIP3    H128262   3.493   7.857   5.318 -0.1298  0.2337 -0.6549
 9442TIP3    H228263   3.482   7.709   5.344 -4.6641  0.3093 -1.7650
 9443TIP3   OH228264   4.314   6.196   6.349  0.2943  0.2283 -0.0153
 9443TIP3    H128265   4.379   6.129   6.327  0.6600 -0.1325  2.0995
 9443TIP3    H228266   4.242   6.147   6.389 -0.4477  0.8497 -0.5819
 9444TIP3   OH228267   5.668   7.249   4.757 -0.7038  0.1411  0.0118
 9444TIP3    H128268   5.588   7.197   4.759 -0.4081 -0.3334 -0.3867
 9444TIP3    H228269   5.691   7.262   4.849 -1.5437  0.7565  0.1355
 9445TIP3   OH228270   7.197   5.145   4.470 -0.5807 -0.2612 -0.5412
 9445TIP3    H128271   7.140   5.074   4.499  0.2777 -1.1375 -0.9803
 9445TIP3    H228272   7.142   5.223   4.475 -1.4383 -0.9010  0.2527
 9446TIP3   OH228273   3.679   7.090   5.746 -0.3409 -0.1637 -0.2905
 9446TIP3    H128274   3.628   7.166   5.717 -0.2112 -0.6220 -1.7600
 9446TIP3    H228275   3.770   7.116   5.735 -0.2174  0.5785  2.1449
 9447TIP3   OH228276   8.218   0.143   5.333 -0.0038  0.3236  0.2979
 9447TIP3    H128277   8.227   0.177   5.244  2.0791 -0.1852  0.2830
 9447TIP3    H228278   8.243   0.217   5.389 -0.0046  0.2399  0.4084
 9448TIP3   OH228279   4.644   5.241   6.809 -0.3943 -0.2367  0.2948
 9448TIP3    H128280   4.604   5.323   6.780 -0.3107 -0.4384 -0.4083
 9448TIP3    H228281   4.722   5.268   6.858 -0.3208  0.0997 -0.0065
 9449TIP3   OH228282   4.980   6.043   3.860  0.4899  0.1921  0.1279
 9449TIP3    H128283   4.908   6.016   3.916  1.5372  1.4017  2.1595
 9449TIP3    H228284   5.036   5.965   3.854 -0.6531 -0.5559 -0.9342
 9450TIP3   OH228285   6.909   1.406   2.737 -0.3694  0.0115  0.2084
 9450TIP3    H128286   6.981   1.393   2.675  0.9440  0.4658  1.6185
 9450TIP3    H228287   6.914   1.331   2.795 -1.6846 -0.4804 -0.2961
 9451TIP3   OH228288   6.702   6.876   4.354  0.1260  0.1195  0.1931
 9451TIP3    H128289   6.736   6.912   4.273  1.2759  0.1663  0.6976
 9451TIP3    H228290   6.735   6.934   4.423 -1.6294  0.6558  0.6365
 9452TIP3   OH228291   5.442   7.907   2.086 -0.0487 -0.2463  0.3528
 9452TIP3    H128292   5.373   7.909   2.020  1.1491  0.5046 -0.9162
 9452TIP3    H228293   5.453   7.814   2.107 -1.9227 -0.3052  1.0954
 9453TIP3   OH228294   4.908   7.924   1.963  0.0082 -0.2581  0.1120
 9453TIP3    H128295   5.002   7.934   1.947 -0.0417  1.7280  0.8816
 9453TIP3    H228296   4.868   7.928   1.876  0.6121 -0.8094 -0.1904
 9454TIP3   OH228297   4.078   5.757   2.113  0.5577  0.0592 -0.3850
 9454TIP3    H128298   4.059   5.707   2.192  2.0972 -0.3460 -0.2699
 9454TIP3    H228299   4.073   5.848   2.140  1.9780 -0.0915  0.3828
 9455TIP3   OH228300   3.874   7.383   1.417  0.1634 -0.1383 -0.1298
 9455TIP3    H128301   3.832   7.312   1.465  0.9138 -0.4460  0.0796
 9455TIP3    H228302   3.885   7.349   1.328 -1.9751  0.7353 -0.7461
 9456TIP3   OH228303   0.511   1.628   2.153 -0.2525  0.1973 -0.3474
 9456TIP3    H128304   0.429   1.666   2.122 -1.8739 -1.5626  1.6141
 9456TIP3    H228305   0.508   1.537   2.123  0.3217 -0.2505  0.9142
 9457TIP3   OH228306   5.667   0.950   4.994  0.2348  0.3819 -0.0224
 9457TIP3    H128307   5.611   0.940   5.072  0.0424  2.7303  0.1794
 9457TIP3    H228308   5.744   0.997   5.026  0.4216  0.8466 -1.1469
 9458TIP3   OH228309   7.052   5.729   0.442 -0.4137 -0.3579  0.1402
 9458TIP3    H128310   6.984   5.772   0.495 -0.8885 -0.1980 -0.5933
 9458TIP3    H228311   7.083   5.797   0.383 -0.7697 -0.8602 -0.6423
 9459TIP3   OH228312   7.598   5.670   0.561 -0.0781 -0.0954  0.0045
 9459TIP3    H128313   7.506   5.698   0.568  0.2372  1.0206 -0.3188
 9459TIP3    H228314   7.614   5.621   0.642 -1.1236 -0.7798 -0.1924
 9460TIP3   OH228315   7.634   1.508   0.974  0.1656 -0.7174 -0.3405
 9460TIP3    H128316   7.575   1.571   1.016  0.6839  1.0376 -2.1760
 9460TIP3    H228317   7.721   1.546   0.985  0.4247 -0.8452 -1.9496
 9461TIP3   OH228318   5.539   6.227   0.790  0.4792 -0.3271 -0.3653
 9461TIP3    H128319   5.449   6.220   0.824  1.0064  0.2398  1.2182
 9461TIP3    H228320   5.583   6.148   0.820  0.3664 -0.8675 -1.6116
 9462TIP3   OH228321   7.512   6.389   1.850 -0.0903 -0.5886  0.3819
 9462TIP3    H128322   7.447   6.457   1.833  0.1267 -0.0869  1.4841
 9462TIP3    H228323   7.511   6.379   1.946 -0.1097 -2.1272  0.2365
 9463TIP3   OH228324   6.515   5.634   1.854  0.4985  0.2575  0.1209
 9463TIP3    H128325   6.544   5.603   1.768  1.5097 -1.2772  0.9855
 9463TIP3    H228326   6.580   5.699   1.880 -0.7196  1.9559 -0.9750
 9464TIP3   OH228327   3.648   6.769   2.433  0.1818  0.0210  0.4052
 9464TIP3    H128328   3.735   6.736   2.413  0.9018  1.5269  0.9610
 9464TIP3    H228329   3.662   6.833   2.503 -1.4921 -0.4619  1.2140
 9465TIP3   OH228330   5.410   6.256   5.080  0.2914 -0.0419  0.2382
 9465TIP3    H128331   5.370   6.190   5.136  1.5503 -0.6713  0.4149
 9465TIP3    H228332   5.394   6.225   4.990  0.2730 -0.2115  0.3012
 9466TIP3   OH228333   6.198   6.641   0.932 -0.2337 -0.0047 -0.4364
 9466TIP3    H128334   6.265   6.577   0.910 -1.0208 -1.0046  0.0365
 9466TIP3    H228335   6.208   6.653   1.027 -0.7536 -0.1898 -0.3597
 9467TIP3   OH228336   3.625   7.101   1.815  0.1365 -0.0172 -0.3118
 9467TIP3    H128337   3.653   7.177   1.866  1.5713 -0.1012 -0.9470
 9467TIP3    H228338   3.540   7.077   1.852 -0.5014  2.0965 -0.3167
 9468TIP3   OH228339   6.874   6.751   4.972  0.2097 -0.4542  0.3064
 9468TIP3    H128340   6.911   6.708   5.050 -0.7600  0.3746  1.2409
 9468TIP3    H228341   6.836   6.680   4.921  0.9981 -1.0274  0.5056
 9469TIP3   OH228342   6.070   4.074   2.066 -0.5066 -0.8455 -0.0156
 9469TIP3    H128343   6.096   4.099   2.155 -2.2065  0.8444  0.0455
 9469TIP3    H228344   6.053   4.157   2.022 -0.6266 -1.7066 -1.6379
 9470TIP3   OH228345   4.057   6.603   1.227 -0.3446  0.1002 -0.7974
 9470TIP3    H128346   4.122   6.632   1.162 -1.9128 -2.2172 -3.4522
 9470TIP3    H228347   4.106   6.543   1.283  0.7861  1.4144 -0.3205
 9471TIP3   OH228348   4.284   5.279   4.436 -0.2350  0.8643  0.1648
 9471TIP3    H128349   4.341   5.341   4.481  1.9934 -0.9574 -0.0369
 9471TIP3    H228350   4.294   5.299   4.343  0.3856  0.2926  0.1069
 9472TIP3   OH228351   6.598   0.146   4.851  0.0206  0.0861  0.1446
 9472TIP3    H128352   6.592   0.095   4.932 -0.1823  0.2406  0.2291
 9472TIP3    H228353   6.515   0.194   4.847  0.8784  1.7145  0.9489
 9473TIP3   OH228354   6.399   6.798   3.807 -0.3712  0.3339 -0.7001
 9473TIP3    H128355   6.346   6.762   3.878 -1.7016 -0.0331 -1.8416
 9473TIP3    H228356   6.397   6.730   3.739  0.7999  0.7108 -1.1239
 9474TIP3   OH228357   6.117   5.681   2.709 -0.1994 -0.3379 -0.5846
 9474TIP3    H128358   6.031   5.716   2.682 -0.9401 -2.0340 -0.4542
 9474TIP3    H228359   6.112   5.678   2.805  0.6694  1.1746 -0.4634
 9475TIP3   OH228360   3.866   6.049   4.573 -0.5264 -0.0914 -0.3063
 9475TIP3    H128361   3.937   6.058   4.637  0.2410 -2.2604 -0.8117
 9475TIP3    H228362   3.803   5.990   4.616 -0.1479 -1.3264 -1.4001
 9476TIP3   OH228363   3.469   7.607   3.764  0.1922  0.7464 -0.7737
 9476TIP3    H128364   3.538   7.572   3.708 -0.2881 -1.1637 -0.2100
 9476TIP3    H228365   3.465   7.546   3.838 -1.7507  1.1026 -0.5656
 9477TIP3   OH228366   1.571   6.390   3.659 -0.2077 -0.7147 -0.1566
 9477TIP3    H128367   1.650   6.420   3.702 -0.8212  0.9072 -0.1505
 9477TIP3    H228368   1.562   6.445   3.582 -1.9884 -0.0548  0.4942
 9478TIP3   OH228369   6.557   7.505   5.019 -0.1265  0.4155 -0.2787
 9478TIP3    H128370   6.511   7.477   4.939 -2.6385  0.7464  1.0130
 9478TIP3    H228371   6.611   7.579   4.990  0.9359 -1.0319 -2.1718
 9479TIP3   OH228372   5.722   7.214   1.237  0.0443  0.4525  0.0548
 9479TIP3    H128373   5.677   7.202   1.321 -1.9850  0.9008 -0.9124
 9479TIP3    H228374   5.814   7.225   1.260 -0.6838  2.1621  2.3675
 9480TIP3   OH228375   3.633   5.537   2.849 -0.6277  0.0534 -0.0374
 9480TIP3    H128376   3.575   5.606   2.883 -1.0616 -1.1115  1.6240
 9480TIP3    H228377   3.640   5.474   2.920  1.2002 -0.7593 -0.9079
 9481TIP3   OH228378   5.364   7.649   1.716  0.0188 -0.1653 -0.2215
 9481TIP3    H128379   5.401   7.637   1.803 -1.1051  0.3989  0.3480
 9481TIP3    H228380   5.434   7.690   1.666  0.2095  0.8421  0.8345
 9482TIP3   OH228381   6.070   5.630   1.973  0.0541 -0.1844  0.7062
 9482TIP3    H128382   6.039   5.713   2.009  1.8913  0.8032  0.0691
 9482TIP3    H228383   6.163   5.627   1.996  0.0987 -1.8602  0.3419
 9483TIP3   OH228384   8.278   0.281   5.109 -0.4286 -0.8612 -0.5318
 9483TIP3    H128385   8.369   0.272   5.082 -0.3446 -2.6138  0.2464
 9483TIP3    H228386   8.229   0.280   5.027  0.1680 -1.1818 -0.8908
 9484TIP3   OH228387   4.316   6.547   6.276  0.0113  0.1116  0.1190
 9484TIP3    H128388   4.365   6.469   6.303  0.3118  0.2237 -0.0943
 9484TIP3    H228389   4.346   6.615   6.336  0.4956  0.3018 -0.3280
 9485TIP3   OH228390   1.347   0.983   4.942  0.5455  0.0956  0.5487
 9485TIP3    H128391   1.416   1.007   4.881 -0.2340  1.4719  0.1866
 9485TIP3    H228392   1.389   0.924   5.004  2.0227  0.8559  0.2865
 9486TIP3   OH228393   1.171   2.298   5.918 -0.3070 -0.4440 -0.0551
 9486TIP3    H128394   1.186   2.381   5.872 -0.1993 -1.0358 -1.1092
 9486TIP3    H228395   1.229   2.302   5.994 -0.1241  0.3417 -0.2308
 9487TIP3   OH228396   6.200   7.496   3.215  1.0001 -0.0538 -0.4891
 9487TIP3    H128397   6.112   7.461   3.198  0.6249  0.5504  0.1614
 9487TIP3    H228398   6.229   7.449   3.293  1.5385 -0.7391 -1.0919
 9488TIP3   OH228399   5.798   7.445   2.459 -0.0695 -0.5734 -0.0550
 9488TIP3    H128400   5.876   7.429   2.513  0.3199 -1.3951 -0.8481
 9488TIP3    H228401   5.731   7.471   2.522  1.4941  2.5676  0.3740
 9489TIP3   OH228402   6.424   4.826   3.877 -1.0037 -0.1592 -0.0052
 9489TIP3    H128403   6.510   4.786   3.863 -1.4532 -0.8574 -0.8452
 9489TIP3    H228404   6.433   4.873   3.960  0.0301 -0.6579  0.1809
 9490TIP3   OH228405   6.352   5.837   2.867 -0.2061  0.2303 -0.2019
 9490TIP3    H128406   6.373   5.867   2.956 -1.2179  1.8616 -0.5024
 9490TIP3    H228407   6.270   5.788   2.878 -0.9053  1.3426 -0.3896
 9491TIP3   OH228408   1.351   1.343   2.005 -0.5661  0.0874 -0.1358
 9491TIP3    H128409   1.387   1.368   2.090 -0.8056  0.2921 -0.0934
 9491TIP3    H228410   1.408   1.385   1.941  0.3212 -1.0237 -0.0991
 9492TIP3   OH228411   4.880   7.429   1.964 -0.0114  0.0205 -0.2487
 9492TIP3    H128412   4.960   7.426   2.016 -0.3746 -0.5963  0.2851
 9492TIP3    H228413   4.883   7.514   1.920  0.7685  0.1423  0.0323
 9493TIP3   OH228414   6.856   0.136   1.180 -0.4764  0.2077  0.1531
 9493TIP3    H128415   6.831   0.050   1.215  0.7657 -0.5701 -0.7978
 9493TIP3    H228416   6.903   0.178   1.252 -0.0998 -0.3842  0.2596
 9494TIP3   OH228417   7.506   6.666   2.392 -0.3538  0.0013 -0.6844
 9494TIP3    H128418   7.489   6.574   2.370 -1.9924  0.0214  0.3560
 9494TIP3    H228419   7.419   6.703   2.408  0.4769  0.9733  1.8380
 9495TIP3   OH228420   7.348   7.623   4.321  0.7251  0.4477 -0.1699
 9495TIP3    H128421   7.418   7.642   4.383  1.2754 -0.9888 -0.3231
 9495TIP3    H228422   7.393   7.609   4.238  0.2085 -0.0681 -0.3640
 9496TIP3   OH228423   7.536   7.601   1.622 -0.3234  0.0238  0.3202
 9496TIP3    H128424   7.444   7.628   1.625 -0.0953  0.7915  0.6452
 9496TIP3    H228425   7.585   7.683   1.632  0.3952 -0.3960  0.2745
 9497TIP3   OH228426   5.914   6.854   1.252 -0.3460 -0.2072  0.1397
 9497TIP3    H128427   6.005   6.882   1.263 -0.4861  0.2569  0.1365
 9497TIP3    H228428   5.908   6.772   1.300  0.1469 -0.3819 -0.0997
 9498TIP3   OH228429   5.946   7.603   1.775  0.5701 -0.0719  0.6086
 9498TIP3    H128430   5.986   7.521   1.746 -0.3665 -0.4011  0.2215
 9498TIP3    H228431   5.880   7.576   1.839  1.6261  0.5438  1.9834
 9499TIP3   OH228432   0.758   0.131   2.836 -0.0969 -0.1014 -0.3683
 9499TIP3    H128433   0.842   0.092   2.858  0.5423  0.7438 -1.2958
 9499TIP3    H228434   0.718   0.152   2.920  1.1337  0.6091  0.0375
 9500TIP3   OH228435   7.116   5.521   2.059  0.1581  0.6262  0.0709
 9500TIP3    H128436   7.126   5.607   2.100  3.2911 -0.1935  1.1030
 9500TIP3    H228437   7.132   5.537   1.966 -2.1079  1.6268 -0.1784
 9501TIP3   OH228438   4.260   6.841   3.577  0.4197 -0.1492  0.3115
 9501TIP3    H128439   4.265   6.933   3.602  0.0939  0.5617 -2.0774
 9501TIP3    H228440   4.347   6.821   3.543 -0.0337 -0.1814 -0.8637
 9502TIP3   OH228441   5.695   7.046   1.741 -0.1420  0.1590  0.4927
 9502TIP3    H128442   5.678   6.977   1.805  0.7481  0.0200  0.5958
 9502TIP3    H228443   5.632   7.032   1.671  0.7823 -1.4715 -0.0364
 9503TIP3   OH228444   4.991   7.442   3.040  0.8294  0.3196 -0.4982
 9503TIP3    H128445   5.067   7.499   3.027  1.7279 -0.6039  0.5690
 9503TIP3    H228446   4.969   7.411   2.952  2.8403 -0.8330 -0.6475
 9504TIP3   OH228447   2.832   0.336   1.286  0.1147  0.1689 -0.0705
 9504TIP3    H128448   2.803   0.248   1.263 -1.8726  1.1112 -1.3235
 9504TIP3    H228449   2.909   0.352   1.230  0.0236 -0.4866 -0.3803
 9505TIP3   OH228450   0.175   6.090   2.170  0.5163 -0.7685  0.1441
 9505TIP3    H128451   0.239   6.118   2.236 -0.3443 -3.3079  2.1527
 9505TIP3    H228452   0.107   6.157   2.172  0.8182 -0.4870  1.4013
 9506TIP3   OH228453   6.108   6.761   2.314  0.0473  0.3293 -0.0200
 9506TIP3    H128454   6.140   6.673   2.330  0.9453  1.0637  2.4351
 9506TIP3    H228455   6.022   6.763   2.357 -0.5696  0.2478 -1.2368
 9507TIP3   OH228456   6.590   6.810   1.645  0.0988  0.4477 -0.0780
 9507TIP3    H128457   6.657   6.869   1.679  1.3800 -1.1664  0.2584
 9507TIP3    H228458   6.508   6.857   1.660  1.1520  2.6123 -0.8264
 9508TIP3   OH228459   8.171   6.592   1.865  0.4872 -0.5533  0.3315
 9508TIP3    H128460   8.120   6.616   1.788 -1.0599 -1.8367  0.9160
 9508TIP3    H228461   8.212   6.673   1.893 -0.0796  0.2121 -1.0052
 9509TIP3   OH228462   4.000   7.885   4.781 -0.0108 -0.4779  0.1229
 9509TIP3    H128463   4.088   7.853   4.759  0.0190  0.6505 -1.4349
 9509TIP3    H228464   4.000   7.889   4.877  0.8907 -2.5456  0.2444
 9510TIP3   OH228465   5.769   5.055   1.874  0.6123  0.3176 -0.2052
 9510TIP3    H128466   5.698   5.108   1.909  1.5334  1.8012 -0.5401
 9510TIP3    H228467   5.742   4.965   1.891 -1.2970  0.8628 -0.2687
 9511TIP3   OH228468   7.604   7.331   4.826 -0.6733 -0.2417  0.2657
 9511TIP3    H128469   7.519   7.319   4.784 -0.3205 -1.8997  0.0125
 9511TIP3    H228470   7.644   7.404   4.779 -1.4917 -0.1771 -0.3415
 9512TIP3   OH228471   6.041   7.617   2.222  0.2218  0.5616 -1.1727
 9512TIP3    H128472   5.946   7.632   2.218  0.2100  0.4460 -1.3500
 9512TIP3    H228473   6.049   7.533   2.268  0.2513  0.7212 -0.8905
 9513TIP3   OH228474   5.710   6.918   1.091  0.2451  0.1215  0.0888
 9513TIP3    H128475   5.679   6.836   1.054  0.8467 -1.1057  2.2178
 9513TIP3    H228476   5.791   6.895   1.137  0.6296  1.9786  0.3926
 9514TIP3   OH228477   6.575   7.580   2.999 -0.1178 -0.8480  0.7575
 9514TIP3    H128478   6.666   7.607   3.000 -0.0446 -1.0699  0.0034
 9514TIP3    H228479   6.531   7.642   3.057  0.3642 -0.2426  0.4731
 9515TIP3   OH228480   6.873   6.681   3.446  0.6227  0.2529 -0.3120
 9515TIP3    H128481   6.799   6.632   3.481 -1.0877  2.9043 -0.1369
 9515TIP3    H228482   6.926   6.703   3.523 -0.5353  1.8287  0.0367
 9516TIP3   OH228483   1.769   0.085   2.962  0.3687  0.0094 -0.1354
 9516TIP3    H128484   1.723   0.002   2.974 -0.2969  0.2881 -0.7439
 9516TIP3    H228485   1.711   0.151   2.999 -0.5824  0.5797 -2.5680
 9517TIP3   OH228486   1.213   0.263   2.280 -0.5550 -0.2669 -0.2702
 9517TIP3    H128487   1.186   0.203   2.210 -0.9630 -1.4916  0.9242
 9517TIP3    H228488   1.259   0.208   2.343  1.2285  1.1079 -0.3263
 9518TIP3   OH228489   1.175   0.290   1.531  0.1679 -0.0377  0.6770
 9518TIP3    H128490   1.231   0.367   1.543  0.9450 -0.7864  2.0201
 9518TIP3    H228491   1.169   0.251   1.619  0.3187 -1.8719 -0.0955
 9519TIP3   OH228492   7.816   7.586   2.605 -0.2211  0.8715 -0.4606
 9519TIP3    H128493   7.844   7.661   2.656 -3.3248  1.1166  1.0357
 9519TIP3    H228494   7.764   7.623   2.533 -1.0995  0.2474 -0.1708
 9520TIP3   OH228495   7.720   7.772   1.336  0.2188  0.0537  0.6070
 9520TIP3    H128496   7.805   7.730   1.325 -0.1276 -0.1906 -1.3925
 9520TIP3    H228497   7.658   7.712   1.294 -0.6657  1.1751  0.2714
 9521TIP3   OH228498   6.012   7.607   3.644 -0.0824 -0.3756  0.1707
 9521TIP3    H128499   5.999   7.538   3.580  0.8297 -1.2814  0.9449
 9521TIP3    H228500   5.932   7.605   3.697 -0.3368 -0.4064 -0.2169
 9522TIP3   OH228501   6.130   7.083   5.195 -0.2305  0.2987 -0.0270
 9522TIP3    H128502   6.218   7.121   5.195  0.1036 -0.4586  0.6383
 9522TIP3    H228503   6.145   6.988   5.193 -1.0462  0.1723 -1.7854
 9523TIP3   OH228504   2.618   0.214   2.094  0.0867 -0.2535  0.0012
 9523TIP3    H128505   2.552   0.177   2.152 -0.0725  0.4408  0.2731
 9523TIP3    H228506   2.678   0.260   2.153  0.3334 -0.1650 -0.3191
 9524TIP3   OH228507   5.595   6.043   1.495  0.2255 -0.0374 -0.3794
 9524TIP3    H128508   5.619   5.954   1.521  0.3661 -0.3098 -1.4055
 9524TIP3    H228509   5.673   6.076   1.449  0.4954  0.9302  0.7399
 9525TIP3   OH228510   5.227   5.414   4.156 -0.1282  0.1533  0.1443
 9525TIP3    H128511   5.242   5.336   4.210  1.7711 -0.0633 -0.6504
 9525TIP3    H228512   5.258   5.487   4.210  1.7912 -0.0650 -0.6270
 9526TIP3   OH228513   7.041   6.696   1.976  0.0008 -0.3623  0.0857
 9526TIP3    H128514   6.991   6.777   1.984 -0.1341 -0.2275 -1.9848
 9526TIP3    H228515   6.984   6.637   1.927  1.1442 -0.8044 -0.7446
 9527TIP3   OH228516   8.414   7.249   5.234 -0.0195  0.1442  0.1631
 9527TIP3    H128517   8.434   7.163   5.269 -0.8247  0.0634  0.4315
 9527TIP3    H228518   8.424   7.239   5.139 -0.1917 -0.2677  0.1886
 9528TIP3   OH228519   6.035   7.140   6.551  0.1594 -0.2462  0.2472
 9528TIP3    H128520   5.978   7.203   6.595  1.7607  1.1099  0.4352
 9528TIP3    H228521   5.979   7.097   6.488 -0.9363  1.5201 -0.0234
 9529TIP3   OH228522   5.720   7.453   2.910 -0.8687 -0.5080 -0.3975
 9529TIP3    H128523   5.712   7.363   2.939 -0.1673 -0.5790 -0.4056
 9529TIP3    H228524   5.727   7.504   2.991 -2.2147 -0.3540 -0.3671
 9530TIP3   OH228525   7.171   5.862   2.768  0.1559  0.0443 -0.0937
 9530TIP3    H128526   7.089   5.873   2.816  0.9346  0.0351  1.2387
 9530TIP3    H228527   7.178   5.768   2.754 -1.2680  0.2146 -2.3762
 9531TIP3   OH228528   6.410   5.433   4.269  0.2060  0.1883 -0.1271
 9531TIP3    H128529   6.493   5.478   4.284  0.7758 -0.6034 -0.8294
 9531TIP3    H228530   6.397   5.438   4.174 -0.0177 -0.6161 -0.1430
 9532TIP3   OH228531   4.527   5.286   2.631 -0.1769 -0.0857 -0.1060
 9532TIP3    H128532   4.434   5.287   2.651 -0.1757  1.5190 -0.1495
 9532TIP3    H228533   4.532   5.296   2.536  0.0272 -1.1517 -0.2224
 9533TIP3   OH228534   2.833   1.307   2.787 -0.1389 -0.3032 -0.1295
 9533TIP3    H128535   2.910   1.253   2.773  1.0796  0.9179  1.6934
 9533TIP3    H228536   2.867   1.395   2.801 -1.8341  0.2274  0.8426
 9534TIP3   OH228537   5.387   5.975   0.928 -0.0538 -0.1284 -0.0845
 9534TIP3    H128538   5.400   5.983   1.022 -1.0113 -2.4495  0.2783
 9534TIP3    H228539   5.292   5.984   0.916  0.0819  0.3666 -0.8686
 9535TIP3   OH228540   5.630   6.511   1.653  0.5145 -0.0648  0.0117
 9535TIP3    H128541   5.570   6.449   1.694 -1.2315  0.9511 -0.9659
 9535TIP3    H228542   5.601   6.597   1.685  1.2961  0.4563 -0.6593
 9536TIP3   OH228543   5.608   7.531   2.668  0.0780  0.6834 -0.6453
 9536TIP3    H128544   5.643   7.487   2.746 -0.5510 -0.2956 -0.9124
 9536TIP3    H228545   5.659   7.612   2.662  2.1200 -0.5713 -0.8484
 9537TIP3   OH228546   3.126   0.937   3.143 -0.4550 -0.2914 -0.2932
 9537TIP3    H128547   3.185   1.011   3.131 -1.5876  0.6330 -0.1520
 9537TIP3    H228548   3.185   0.863   3.163  0.7476  0.3177 -1.4712
 9538TIP3   OH228549   6.804   4.087   0.976  0.6700 -0.0933  0.0585
 9538TIP3    H128550   6.756   4.131   1.046 -1.1416 -1.4597 -0.3003
 9538TIP3    H228551   6.859   4.156   0.938  0.6413  0.9709  1.9137
 9539TIP3   OH228552   1.771   4.524   0.751  0.2795  0.1755  0.1630
 9539TIP3    H128553   1.711   4.500   0.822 -1.9731  1.8611 -1.1227
 9539TIP3    H228554   1.825   4.446   0.738 -3.9014 -2.6643 -0.9376
 9540TIP3   OH228555   5.440   3.799   1.037 -0.5891 -0.3930  0.1416
 9540TIP3    H128556   5.456   3.715   0.995  2.1104  0.7744 -1.2412
 9540TIP3    H228557   5.354   3.826   1.006 -0.2325 -1.3104 -1.6569
 9541TIP3   OH228558   3.549   7.081   0.959  0.2459  0.5530 -0.3901
 9541TIP3    H128559   3.640   7.053   0.971  0.5614  1.4298 -0.7222
 9541TIP3    H228560   3.504   7.047   1.036  1.0546  0.9789  0.2767
 9542TIP3   OH228561   5.698   3.502   2.325 -0.2266  0.2921 -0.6348
 9542TIP3    H128562   5.767   3.524   2.263 -0.4174  2.7239 -0.0618
 9542TIP3    H228563   5.699   3.575   2.388 -2.6319 -0.1384 -0.0561
 9543TIP3   OH228564   4.550   4.860   1.816  0.2686  0.0815 -0.2787
 9543TIP3    H128565   4.602   4.926   1.771  0.1463 -0.3445 -1.0552
 9543TIP3    H228566   4.563   4.878   1.909  0.3302  1.1179 -0.4848
 9544TIP3   OH228567   4.761   0.085   5.169  0.0543  0.3369 -0.4290
 9544TIP3    H128568   4.780  -0.007   5.188  1.5856  0.6733 -0.2357
 9544TIP3    H228569   4.793   0.099   5.080  0.3204  0.8027 -0.2672
 9545TIP3   OH228570   6.100   4.671   0.059  0.0204 -0.0855 -0.3113
 9545TIP3    H128571   6.027   4.631   0.104  0.5424 -0.4835  0.1905
 9545TIP3    H228572   6.170   4.674   0.124  0.2522  0.8763 -0.5911
 9546TIP3   OH228573   5.771   7.685   6.221  0.5459  0.0675  0.8185
 9546TIP3    H128574   5.720   7.604   6.222  1.7603 -0.7223  0.5934
 9546TIP3    H228575   5.730   7.739   6.154  0.2087 -0.6841  0.4153
 9547TIP3   OH228576   3.491   7.177   1.260 -0.5427 -0.3076 -0.0180
 9547TIP3    H128577   3.467   7.258   1.215 -0.4587  0.5253  1.4113
 9547TIP3    H228578   3.429   7.170   1.333 -0.3132 -1.3306  0.0890
 9548TIP3   OH228579   5.728   6.337   1.459 -0.3107  0.0011  0.8059
 9548TIP3    H128580   5.720   6.399   1.531 -0.3403  1.0544 -0.1084
 9548TIP3    H228581   5.638   6.317   1.434 -0.2673  1.2475 -0.3335
 9549TIP3   OH228582   4.340   6.635   1.078 -0.4054  0.0876 -0.3942
 9549TIP3    H128583   4.407   6.665   1.017 -0.3890  0.8304 -0.0190
 9549TIP3    H228584   4.296   6.716   1.106 -1.8412 -0.4358 -1.0853
 9550TIP3   OH228585   1.809   0.003   6.198  0.6279  0.0463 -0.6541
 9550TIP3    H128586   1.749  -0.015   6.125  1.2929 -0.8659 -0.9924
 9550TIP3    H228587   1.867   0.071   6.164 -1.3962  2.3868  0.3507
 9551TIP3   OH228588   0.582   7.111   6.302 -0.6017 -0.0585 -0.2092
 9551TIP3    H128589   0.613   7.099   6.212 -0.6953  1.2832 -0.4365
 9551TIP3    H228590   0.606   7.030   6.347  1.6291  0.2139 -0.8388
 9552TIP3   OH228591   1.734   0.872   5.069 -0.3191  0.3149  0.1130
 9552TIP3    H128592   1.667   0.840   5.008 -0.2812  0.3842  0.0362
 9552TIP3    H228593   1.807   0.812   5.059  0.6856  1.8014 -1.7661
 9553TIP3   OH228594   7.486   5.321   4.993  0.0734 -0.8521  0.1288
 9553TIP3    H128595   7.492   5.228   5.017  0.6830 -0.9021 -0.2014
 9553TIP3    H228596   7.467   5.366   5.075  0.5549 -1.1925  0.4329
 9554TIP3   OH228597   7.014   3.778   1.459  0.5284  0.1397 -0.0950
 9554TIP3    H128598   7.047   3.771   1.548 -0.8570 -0.4984  0.3808
 9554TIP3    H228599   7.028   3.690   1.422 -1.7929 -0.5283  0.5382
 9555TIP3   OH228600   0.183   7.730   6.830  0.4007 -0.2431 -0.1295
 9555TIP3    H128601   0.264   7.700   6.789  2.6531  2.9126  1.7994
 9555TIP3    H228602   0.144   7.790   6.766 -0.5151 -1.8509 -1.1050
 9556TIP3   OH228603   2.019   2.618   6.922  0.3496 -0.2440 -0.4423
 9556TIP3    H128604   1.990   2.592   6.834  0.0911 -0.2754 -0.3473
 9556TIP3    H228605   2.080   2.550   6.948  0.2725 -0.3418 -0.5161
 9557TIP3   OH228606   3.497   4.585   0.692  0.1690 -0.3983  0.3729
 9557TIP3    H128607   3.467   4.506   0.736 -1.2470 -0.2604 -0.3414
 9557TIP3    H228608   3.579   4.608   0.738  0.9711 -2.6434  0.1161
 9558TIP3   OH228609   1.621   0.270   6.942  0.4074  0.1772  0.4091
 9558TIP3    H128610   1.697   0.328   6.953  1.4478 -1.0111 -0.3959
 9558TIP3    H228611   1.569   0.311   6.873  1.4355 -0.1374 -0.5687
 9559TIP3   OH228612   2.607   0.846   6.395  0.7231  0.1125  0.1616
 9559TIP3    H128613   2.567   0.924   6.355  0.5476 -1.1023 -2.1620
 9559TIP3    H228614   2.538   0.810   6.450  0.0212  0.3774 -0.5251
 9560TIP3   OH228615   2.042   0.763   4.650 -0.6133 -0.0703 -0.1192
 9560TIP3    H128616   2.115   0.824   4.641 -1.3846  0.5210 -2.8630
 9560TIP3    H228617   1.970   0.815   4.687 -0.2862 -0.1593  0.6585
 9561TIP3   OH228618   7.895   7.175   5.905 -0.1629  0.0158  0.0958
 9561TIP3    H128619   7.979   7.167   5.860 -0.8367 -0.4433 -1.1084
 9561TIP3    H228620   7.878   7.269   5.908 -1.3317 -0.0122 -2.9967
 9562TIP3   OH228621   7.283   6.351   6.710  0.7149  0.6339 -0.2816
 9562TIP3    H128622   7.302   6.378   6.800 -0.3809  0.4012  0.0352
 9562TIP3    H228623   7.300   6.428   6.657  0.4052  1.0763  0.2555
 9563TIP3   OH228624   3.636   5.693   0.109  0.1104  0.8927  0.0144
 9563TIP3    H128625   3.550   5.686   0.067  0.0019  2.6362 -0.1022
 9563TIP3    H228626   3.648   5.609   0.153 -0.6847 -0.2048 -1.7877
 9564TIP3   OH228627   5.280   4.524   0.290  0.1704 -0.4319  0.3620
 9564TIP3    H128628   5.264   4.599   0.346 -0.0302 -1.8541  2.2736
 9564TIP3    H228629   5.193   4.490   0.269  0.2978 -1.4036  1.3274
 9565TIP3   OH228630   6.202   3.824   2.448  0.1341  0.2595  0.3456
 9565TIP3    H128631   6.165   3.894   2.395  2.7244  3.2248  2.2709
 9565TIP3    H228632   6.189   3.853   2.538  0.2154 -2.3226  1.2444
 9566TIP3   OH228633   7.751   3.884   0.834  0.2238 -0.0194 -0.1598
 9566TIP3    H128634   7.764   3.834   0.915 -0.3215 -0.8953 -0.5996
 9566TIP3    H228635   7.669   3.931   0.848  0.2323 -0.0164 -0.1212
 9567TIP3   OH228636   6.825   7.123   4.238  0.2117  0.7742 -0.2423
 9567TIP3    H128637   6.741   7.091   4.204  1.5621 -0.1442 -2.8382
 9567TIP3    H228638   6.835   7.210   4.200  0.1238  1.1917  0.6648
 9568TIP3   OH228639   4.410   3.709   1.086 -0.3735  0.7707 -0.2154
 9568TIP3    H128640   4.433   3.621   1.115 -1.2102  0.0038 -1.8246
 9568TIP3    H228641   4.476   3.731   1.020 -0.5824  1.0651 -0.3291
 9569TIP3   OH228642   1.662   1.833   6.381  0.6113 -0.0083  0.0508
 9569TIP3    H128643   1.647   1.745   6.416  0.1600  0.2558  0.5390
 9569TIP3    H228644   1.726   1.821   6.311 -0.2911 -0.8799 -0.6416
 9570TIP3   OH228645   5.606   6.605   2.351  0.4288 -0.2942 -0.3348
 9570TIP3    H128646   5.551   6.666   2.399  1.2688  1.5820 -1.6692
 9570TIP3    H228647   5.546   6.555   2.296 -0.2327 -0.4392  0.5193
 9571TIP3   OH228648   7.570   6.387   6.956  0.7176  0.1771 -0.1263
 9571TIP3    H128649   7.593   6.304   6.998  0.6858 -0.0409 -0.5327
 9571TIP3    H228650   7.567   6.366   6.862  0.6572  0.6253 -0.2243
 9572TIP3   OH228651   7.283   4.533   0.154  0.3333 -0.0261 -0.1209
 9572TIP3    H128652   7.351   4.465   0.163  0.1495 -0.4444 -1.7240
 9572TIP3    H228653   7.216   4.507   0.217  0.4443 -1.1207 -0.4345
 9573TIP3   OH228654   3.769   2.940   5.639  0.1118 -0.6319 -0.0520
 9573TIP3    H128655   3.736   2.898   5.560 -0.2606  0.7546 -0.6370
 9573TIP3    H228656   3.785   2.867   5.700 -1.1033 -1.5614 -0.8358
 9574TIP3   OH228657   5.997   6.892   0.215 -0.0772 -0.1325 -0.4124
 9574TIP3    H128658   6.000   6.833   0.139 -0.8555  0.1391 -0.6567
 9574TIP3    H228659   6.021   6.836   0.289 -1.8202 -1.0224 -0.4911
 9575TIP3   OH228660   4.942   2.568   6.590  0.1376  0.2424  0.3090
 9575TIP3    H128661   4.984   2.602   6.511 -0.9299 -1.2257 -0.9189
 9575TIP3    H228662   5.003   2.500   6.621  1.8399  2.5412  2.2715
 9576TIP3   OH228663   5.034   4.454   0.210  0.3075 -0.6470 -0.1709
 9576TIP3    H128664   4.967   4.471   0.276 -0.8681  0.8873 -1.6987
 9576TIP3    H228665   5.039   4.535   0.159  1.2242 -1.7580 -1.9315
 9577TIP3   OH228666   8.036   7.562   3.717 -0.4336  0.5273 -0.1466
 9577TIP3    H128667   8.105   7.532   3.658 -0.0398  1.2310 -0.0538
 9577TIP3    H228668   8.069   7.539   3.805  0.1746  1.7931 -0.0263
 9578TIP3   OH228669   8.090   5.175   1.418 -0.1958  0.0734  0.1434
 9578TIP3    H128670   8.070   5.135   1.502  0.6238 -2.3113 -0.7595
 9578TIP3    H228671   8.010   5.166   1.366 -0.5111  1.0323  0.4432
 9579TIP3   OH228672   2.487   0.894   5.425 -0.2956 -0.2842  0.1185
 9579TIP3    H128673   2.530   0.979   5.418  1.0593 -0.9798 -0.2091
 9579TIP3    H228674   2.455   0.875   5.337 -1.2783  0.2269  0.3590
 9580TIP3   OH228675   4.827   6.995   1.253  0.6109 -0.4013  0.1175
 9580TIP3    H128676   4.789   7.064   1.198 -1.3241 -0.6731  1.0731
 9580TIP3    H228677   4.908   7.033   1.287 -0.6748  1.6163  1.0339
 9581TIP3   OH228678   7.059   4.173   0.007 -0.0258  0.2144 -0.2790
 9581TIP3    H128679   7.152   4.194   0.008 -0.0132  0.2618 -1.7320
 9581TIP3    H228680   7.015   4.259   0.012 -0.0570  0.0680  3.9712
 9582TIP3   OH228681   6.608   5.416   0.376 -0.1507  0.2759 -0.2659
 9582TIP3    H128682   6.675   5.402   0.308 -0.1685 -1.2523  0.0171
 9582TIP3    H228683   6.527   5.384   0.337  0.1341 -2.1294  1.0588
 9583TIP3   OH228684   2.101   7.738   5.499 -0.8904 -0.5194 -0.0734
 9583TIP3    H128685   2.100   7.756   5.592  0.2735 -0.6291 -0.0291
 9583TIP3    H228686   2.107   7.642   5.493 -0.5263 -0.4871 -0.2514
 9584TIP3   OH228687   5.065   4.974   0.766  0.1635  0.0854  0.4395
 9584TIP3    H128688   5.057   5.047   0.827 -0.4154  1.0199 -0.7353
 9584TIP3    H228689   5.145   4.929   0.793 -0.9253 -0.4800  2.8857
 9585TIP3   OH228690   5.770   4.302   0.360  0.1827  0.6804  0.0724
 9585TIP3    H128691   5.704   4.259   0.305 -1.4001  1.8179  1.0677
 9585TIP3    H228692   5.820   4.356   0.298  0.6745 -0.7081 -0.7954
 9586TIP3   OH228693   5.727   0.952   6.507 -0.4400  0.0001 -0.3065
 9586TIP3    H128694   5.740   0.860   6.485  2.3561  0.4298 -0.6486
 9586TIP3    H228695   5.667   0.950   6.582  0.1249 -2.1523  0.1340
 9587TIP3   OH228696   3.600   3.636   6.005  0.3937  0.3180 -0.1418
 9587TIP3    H128697   3.586   3.697   5.933 -0.9614  1.6801  1.2531
 9587TIP3    H228698   3.512   3.612   6.034  0.9275 -0.6972  0.6741
 9588TIP3   OH228699   2.819   1.777   6.043  0.1606  0.0947  0.1134
 9588TIP3    H128700   2.771   1.840   6.097  0.6326 -0.1644  0.8449
 9588TIP3    H228701   2.875   1.731   6.105  2.4625  1.4160 -0.9068
 9589TIP3   OH228702   6.585   3.934   0.895 -0.4287  0.3726 -0.3495
 9589TIP3    H128703   6.666   3.984   0.905 -0.5561  0.2455  1.4088
 9589TIP3    H228704   6.615   3.846   0.870 -0.0468  0.4552 -0.1851
 9590TIP3   OH228705   6.090   4.547   0.336 -0.3051  0.1275 -0.0131
 9590TIP3    H128706   6.080   4.489   0.411  0.3572  0.0361  0.0094
 9590TIP3    H228707   6.053   4.630   0.364 -2.6030 -0.6813 -0.5414
 9591TIP3   OH228708   8.355   5.828   6.817 -0.4357 -0.7189  0.5117
 9591TIP3    H128709   8.283   5.891   6.825 -1.7126 -2.1218  0.3383
 9591TIP3    H228710   8.427   5.867   6.867 -0.6689  1.6018 -0.8800
 9592TIP3   OH228711   0.115   3.492   1.937  0.4359 -0.0162 -0.1588
 9592TIP3    H128712   0.105   3.556   2.008 -0.8548 -0.5610  0.1710
 9592TIP3    H228713   0.054   3.522   1.869 -1.2668 -1.6503  0.5833
 9593TIP3   OH228714   4.555   1.285   6.164  0.2330 -0.2612  0.0526
 9593TIP3    H128715   4.604   1.203   6.174  0.3703 -0.0116  1.5705
 9593TIP3    H228716   4.533   1.311   6.254 -0.6504  0.8604 -0.4733
 9594TIP3   OH228717   1.392   7.933   4.710  0.3998  0.4327 -0.2753
 9594TIP3    H128718   1.455   7.968   4.647  0.4511 -2.4916 -1.9476
 9594TIP3    H228719   1.336   7.876   4.658 -0.5512 -0.8405  2.0830
 9595TIP3   OH228720   0.673   5.080   2.470  0.3791  0.6020  0.5845
 9595TIP3    H128721   0.596   5.104   2.522 -1.0828 -0.5198 -1.0180
 9595TIP3    H228722   0.671   5.140   2.395 -0.9425 -1.7314 -1.2813
 9596TIP3   OH228723   1.435   6.865   6.725 -0.4858  0.0356  0.3284
 9596TIP3    H128724   1.370   6.920   6.769  0.0036  0.9072 -0.0316
 9596TIP3    H228725   1.481   6.925   6.666  0.3170 -0.6791  0.2217
 9597TIP3   OH228726   7.449   4.471   0.429  0.2219 -0.2381 -0.0872
 9597TIP3    H128727   7.462   4.464   0.334 -0.9738 -0.0240 -0.2864
 9597TIP3    H228728   7.355   4.457   0.440  0.3628 -0.2670  1.0719
 9598TIP3   OH228729   6.183   3.157   0.517  0.7564 -0.0688  0.0039
 9598TIP3    H128730   6.144   3.206   0.444  2.0766  1.6449  0.4105
 9598TIP3    H228731   6.197   3.069   0.482 -3.7956 -0.9123 -0.0363
 9599TIP3   OH228732   6.955   4.293   0.860 -0.7714  0.4606  0.2363
 9599TIP3    H128733   6.946   4.380   0.822 -0.5163  1.2862  1.9732
 9599TIP3    H228734   7.050   4.277   0.863 -0.8234  0.0547 -0.2248
 9600TIP3   OH228735   6.938   3.391   1.377  0.3848 -0.4393 -0.6806
 9600TIP3    H128736   6.899   3.448   1.312 -0.0984 -0.9254 -0.8195
 9600TIP3    H228737   6.895   3.306   1.364  1.5930 -1.0328 -0.9619
 9601TIP3   OH228738   2.752   1.426   6.931 -0.4623 -0.3860  0.4435
 9601TIP3    H128739   2.814   1.369   6.884 -0.3051  0.9156 -0.9608
 9601TIP3    H228740   2.666   1.398   6.900 -0.4434 -0.4734  0.4678
 9602TIP3   OH228741   4.253   0.954   6.621  0.4390  0.3302  0.9589
 9602TIP3    H128742   4.171   0.967   6.669  0.3000  1.3125  0.4757
 9602TIP3    H228743   4.228   0.909   6.541  0.3864  0.5255  0.8658
 9603TIP3   OH228744   6.191   5.750   1.641  0.0548 -0.5165  0.3967
 9603TIP3    H128745   6.266   5.759   1.581 -0.4967 -0.9105 -0.3691
 9603TIP3    H228746   6.225   5.777   1.726  0.5634  1.1145 -0.2933
 9604TIP3   OH228747   3.513   2.404   5.875 -0.0670 -0.1788  0.4469
 9604TIP3    H128748   3.506   2.420   5.781 -2.8353 -0.5343  0.5389
 9604TIP3    H228749   3.519   2.309   5.883 -0.1634 -0.1705  0.6396
 9605TIP3   OH228750   7.313   4.798   0.276 -0.1157  1.2644 -0.0134
 9605TIP3    H128751   7.354   4.866   0.222 -0.2416  0.0946 -1.6015
 9605TIP3    H228752   7.325   4.717   0.227 -2.7076  0.6021  0.3446
 9606TIP3   OH228753   7.374   4.038   0.792  0.0291 -0.7609 -0.0842
 9606TIP3    H128754   7.441   4.044   0.860  0.4665  0.3703 -0.5941
 9606TIP3    H228755   7.369   4.127   0.755 -0.6719 -1.1941 -1.0751
 9607TIP3   OH228756   5.093   2.034   5.955  0.4931  0.1110 -0.2166
 9607TIP3    H128757   5.172   2.088   5.961 -0.0366  1.0559 -1.4912
 9607TIP3    H228758   5.024   2.089   5.991  0.1009 -0.0631 -0.7092
 9608TIP3   OH228759   2.457   3.703   6.578  0.2366  0.7684 -0.1397
 9608TIP3    H128760   2.489   3.785   6.539 -0.4122 -0.5818 -3.6778
 9608TIP3    H228761   2.530   3.642   6.567 -0.0327  0.3115  0.5968
 9609TIP3   OH228762   0.915   0.912   6.880  0.3738  0.2988 -0.1324
 9609TIP3    H128763   0.982   0.976   6.854 -2.4859  4.2879  1.7394
 9609TIP3    H228764   0.883   0.876   6.798  2.2571  1.0741 -1.2424
 9610TIP3   OH228765   6.142   1.276   6.261  0.7099 -0.0675 -0.4774
 9610TIP3    H128766   6.171   1.365   6.243  0.6577  0.3790  1.5755
 9610TIP3    H228767   6.072   1.261   6.197  1.1581  1.1078 -1.2679
 9611TIP3   OH228768   1.879   0.254   6.096  0.5447  0.2098  0.3588
 9611TIP3    H128769   1.808   0.297   6.144  0.0657  2.1709 -1.9875
 9611TIP3    H228770   1.959   0.289   6.133  0.2807 -0.9797  2.0989
 9612TIP3   OH228771   7.600   5.427   0.893 -0.6106  0.1658 -0.6858
 9612TIP3    H128772   7.662   5.427   0.820  0.9984  1.2061  0.6508
 9612TIP3    H228773   7.531   5.487   0.864 -0.4753 -0.1711 -1.7492
 9613TIP3   OH228774   3.280   1.686   6.095 -0.1073  0.2437  0.1480
 9613TIP3    H128775   3.277   1.741   6.173  0.4804  1.4388 -0.6607
 9613TIP3    H228776   3.234   1.736   6.028 -1.6922 -1.3098  0.0264
 9614TIP3   OH228777   4.801   5.730   0.575  0.6981  0.1870  0.4734
 9614TIP3    H128778   4.745   5.659   0.605  1.1596 -0.0070  0.8826
 9614TIP3    H228779   4.827   5.704   0.486  2.2535 -0.9904  1.2661
 9615TIP3   OH228780   2.469   1.817   5.658 -0.4681  0.5953  0.2010
 9615TIP3    H128781   2.456   1.779   5.745  1.1770  0.7148  0.5016
 9615TIP3    H228782   2.400   1.884   5.652 -0.6976  0.4853  1.3497
 9616TIP3   OH228783   2.913   2.695   6.779 -0.0902  0.1624 -0.8193
 9616TIP3    H128784   2.867   2.623   6.736  0.6180 -0.0279 -1.2663
 9616TIP3    H228785   2.927   2.759   6.709 -1.4643  1.1004 -0.2345
 9617TIP3   OH228786   2.797   2.674   4.320 -0.3518  0.6735 -0.0165
 9617TIP3    H128787   2.772   2.647   4.231 -1.9267 -0.1301  0.6520
 9617TIP3    H228788   2.798   2.593   4.371 -2.2163  1.4450  1.3271
 9618TIP3   OH228789   6.776   5.338   0.171  0.2893  0.3027  0.4480
 9618TIP3    H128790   6.860   5.383   0.160 -1.1058  2.6201 -1.1902
 9618TIP3    H228791   6.748   5.316   0.082 -0.0579 -1.9628  1.0995
 9619TIP3   OH228792   6.951   5.370   0.707 -0.3887  0.2625 -0.0203
 9619TIP3    H128793   7.045   5.389   0.704 -0.2821 -0.1559  0.7839
 9619TIP3    H228794   6.910   5.457   0.705  0.0626  0.5385  1.6861
 9620TIP3   OH228795   3.953   1.428   5.784  0.5156 -0.6058  0.0624
 9620TIP3    H128796   3.877   1.374   5.761  0.5563 -0.1734 -1.0963
 9620TIP3    H228797   3.982   1.394   5.869 -2.3817  0.7404  1.6613
 9621TIP3   OH228798   6.717   2.640   0.520  0.3020  0.2907  0.4075
 9621TIP3    H128799   6.772   2.709   0.555  0.2894  0.2104  0.5858
 9621TIP3    H228800   6.746   2.560   0.564 -0.0231  0.2647  0.5788
 9622TIP3   OH228801   7.499   4.355   0.172 -0.1841 -0.2655  0.1788
 9622TIP3    H128802   7.514   4.280   0.230 -0.7162 -0.2907  0.2847
 9622TIP3    H228803   7.558   4.340   0.098 -1.1836 -1.4293 -0.3983
 9623TIP3   OH228804   5.888   0.330   6.187 -0.3439 -0.5705  0.2336
 9623TIP3    H128805   5.973   0.363   6.158 -0.5499  2.0559  2.4470
 9623TIP3    H228806   5.837   0.408   6.207 -3.0748 -2.1181 -0.3626
 9624TIP3   OH228807   3.944   0.648   6.632  0.1159  0.3989  0.1317
 9624TIP3    H128808   3.950   0.733   6.589 -1.6250  1.2322  1.4677
 9624TIP3    H228809   3.869   0.605   6.592  1.7827 -1.0893 -1.4712
 9625TIP3   OH228810   8.032   5.042   5.508 -0.6135 -0.2445  0.0329
 9625TIP3    H128811   7.965   5.074   5.448  1.7942  0.7640 -2.2089
 9625TIP3    H228812   8.066   4.963   5.467  0.3990 -0.0799  0.5364
 9626TIP3   OH228813   5.962   5.413   2.066 -0.4350  0.6198  0.1994
 9626TIP3    H128814   6.003   5.490   2.025  1.5813 -0.3250  0.3649
 9626TIP3    H228815   5.942   5.355   1.993  3.8798 -1.4093  0.4476
 9627TIP3   OH228816   7.819   5.778   0.186  0.5349  0.3688 -0.2438
 9627TIP3    H128817   7.791   5.695   0.224  1.0914 -0.2888 -1.2533
 9627TIP3    H228818   7.848   5.756   0.098  2.0673  1.3827 -0.0216
 9628TIP3   OH228819   5.386   0.346   4.366  0.6954  0.1883  0.2117
 9628TIP3    H128820   5.315   0.332   4.303  0.9581 -2.3350  0.4251
 9628TIP3    H228821   5.448   0.275   4.349  1.5173  0.3599  2.2958
 9629TIP3   OH228822   1.702   6.744   5.539 -0.1015  0.5314  0.0904
 9629TIP3    H128823   1.698   6.672   5.601 -1.7802  1.4122  1.0274
 9629TIP3    H228824   1.668   6.708   5.457  0.3563 -0.1025  0.1760
 9630TIP3   OH228825   1.055   5.779   2.257  0.6668 -0.1364 -0.6311
 9630TIP3    H128826   1.137   5.779   2.208  2.0733  0.9896  1.6560
 9630TIP3    H228827   1.064   5.851   2.320 -1.8672 -0.3133 -0.0071
 9631TIP3   OH228828   7.045   3.469   0.381 -0.1438 -0.1123 -0.0095
 9631TIP3    H128829   7.003   3.423   0.308 -0.6967 -0.1767  0.3451
 9631TIP3    H228830   7.060   3.558   0.348 -0.3376 -0.1577 -0.2216
 9632TIP3   OH228831   8.101   8.006   5.215  0.3045 -0.3449 -0.2996
 9632TIP3    H128832   8.026   7.996   5.273  0.8728  0.1665  0.5362
 9632TIP3    H228833   8.170   7.953   5.256  1.0590  0.9328  0.1255
 9633TIP3   OH228834   7.868   6.242   6.943 -0.1453  0.1834 -0.0375
 9633TIP3    H128835   7.941   6.284   6.897  0.3820  0.0013  0.6436
 9633TIP3    H228836   7.891   6.150   6.945 -0.3674  0.1367  0.2456
 9634TIP3   OH228837   4.018   0.472   5.888  0.1410 -0.0765 -0.6199
 9634TIP3    H128838   4.023   0.475   5.984  0.4600  0.0767 -0.6395
 9634TIP3    H228839   4.091   0.414   5.863  0.5180  0.4747 -0.8087
 9635TIP3   OH228840   1.170   7.376   5.250 -0.1318  0.0944  0.2430
 9635TIP3    H128841   1.130   7.442   5.307  0.9112  0.1508  0.9242
 9635TIP3    H228842   1.255   7.413   5.227  0.8273 -1.4142  1.3412
 9636TIP3   OH228843   3.505   1.366   5.762  0.6811  0.7513 -0.2083
 9636TIP3    H128844   3.434   1.393   5.703 -0.0257  0.2294  0.4022
 9636TIP3    H228845   3.493   1.421   5.840 -0.4265 -0.9000  0.8137
 9637TIP3   OH228846   3.697   2.164   6.833 -0.3406  0.3859 -0.3812
 9637TIP3    H128847   3.683   2.111   6.912  1.7821 -1.8882 -1.4784
 9637TIP3    H228848   3.618   2.149   6.782 -0.3375 -0.7172 -0.0946
 9638TIP3   OH228849   7.721   6.724   6.631 -0.5543  0.1607  0.0242
 9638TIP3    H128850   7.682   6.748   6.715 -0.5915  0.6205 -0.1236
 9638TIP3    H228851   7.732   6.807   6.585 -0.2017 -0.0537 -0.2835
 9639TIP3   OH228852   0.840   0.538   5.926 -0.2148  0.4640  0.2344
 9639TIP3    H128853   0.752   0.576   5.922 -0.5955 -0.3716  0.5379
 9639TIP3    H228854   0.835   0.461   5.869  0.2258  0.2380  0.5022
 9640TIP3   OH228855   4.178   1.495   5.150  0.1016  0.1938  0.1508
 9640TIP3    H128856   4.176   1.401   5.131 -0.2154  0.4976 -1.4514
 9640TIP3    H228857   4.156   1.502   5.242  1.2554 -1.3822  0.5634
 9641TIP3   OH228858   8.323   3.628   0.599 -0.7157 -0.2903  0.1934
 9641TIP3    H128859   8.294   3.541   0.574  1.0757 -1.1338  0.9158
 9641TIP3    H228860   8.340   3.622   0.693  1.1206  0.3188 -0.0758
 9642TIP3   OH228861   7.023   2.850   2.619  0.5510 -0.0035 -0.5975
 9642TIP3    H128862   6.974   2.895   2.550  0.2123 -0.6845 -0.8161
 9642TIP3    H228863   7.023   2.910   2.692 -0.4817  0.0769 -0.6550
 9643TIP3   OH228864   6.218   8.011   0.134  0.8843 -0.0666  0.5022
 9643TIP3    H128865   6.151   8.052   0.188  0.5440 -0.1423  0.1351
 9643TIP3    H228866   6.180   7.928   0.107  1.6098 -0.6683  1.3108
 9644TIP3   OH228867   6.858   1.592   1.019 -0.1124  0.2376 -0.0467
 9644TIP3    H128868   6.783   1.603   0.960 -0.1117  2.5611  0.3496
 9644TIP3    H228869   6.903   1.676   1.016  1.4878 -0.5551  1.1197
 9645TIP3   OH228870   7.110   5.732   2.213  0.1861  0.3132 -0.0065
 9645TIP3    H128871   7.015   5.736   2.219  0.2258 -0.2686  1.0490
 9645TIP3    H228872   7.141   5.756   2.300  1.0303  1.4191 -0.6070
 9646TIP3   OH228873   2.757   0.983   4.800  0.5026  0.2700 -0.1739
 9646TIP3    H128874   2.683   0.935   4.763  0.0131  0.2795  0.7671
 9646TIP3    H228875   2.834   0.934   4.772 -0.0598 -1.8910  1.8805
 9647TIP3   OH228876   2.363   0.195   5.643  0.4171 -0.0272  0.6501
 9647TIP3    H128877   2.444   0.147   5.629 -0.5225 -2.1673  2.3110
 9647TIP3    H228878   2.296   0.128   5.654 -1.9581  1.6971 -2.4837
 9648TIP3   OH228879   6.294   3.126   0.031 -0.3627 -0.1990  0.1351
 9648TIP3    H128880   6.315   3.079  -0.050  0.8470  0.9611 -0.2627
 9648TIP3    H228881   6.199   3.121   0.038 -0.5998  0.6946 -2.0121
 9649TIP3   OH228882   4.547   5.570   0.689 -0.0706  0.4072  0.6939
 9649TIP3    H128883   4.529   5.491   0.639  3.6588 -1.0346  1.4617
 9649TIP3    H228884   4.535   5.544   0.780  3.1966  0.0910  1.0701
 9650TIP3   OH228885   5.120   3.679   6.917  0.3681 -0.9373 -0.3685
 9650TIP3    H128886   5.167   3.660   6.837  0.1920  1.6910 -1.1650
 9650TIP3    H228887   5.030   3.652   6.899 -0.0160  1.1179 -1.6872
 9651TIP3   OH228888   7.260   5.662   1.290  0.2656  0.0610 -0.2386
 9651TIP3    H128889   7.219   5.634   1.372  1.0065 -1.8842 -0.5154
 9651TIP3    H228890   7.189   5.662   1.226 -0.3105  1.5683  0.3713
 9652TIP3   OH228891   4.426   1.040   5.877 -0.4805  0.0465  0.6391
 9652TIP3    H128892   4.414   1.125   5.920 -0.8092 -0.0057  0.6492
 9652TIP3    H228893   4.501   1.053   5.819 -1.9204  0.9782 -1.0338
 9653TIP3   OH228894   3.751   1.707   5.589  0.0519 -0.2108  0.5699
 9653TIP3    H128895   3.831   1.721   5.639  0.3611 -0.3957  0.1363
 9653TIP3    H228896   3.766   1.754   5.507  1.0172 -2.8235 -0.8188
 9654TIP3   OH228897   3.233   1.311   5.676 -0.0146  0.1841  0.1425
 9654TIP3    H128898   3.167   1.376   5.652 -0.8458 -0.0654  1.6871
 9654TIP3    H228899   3.241   1.318   5.771  0.5572 -1.3278  0.2305
 9655TIP3   OH228900   6.427   5.711   1.474  0.3046  0.5821 -0.5048
 9655TIP3    H128901   6.442   5.803   1.498  0.3846  0.3978  0.1416
 9655TIP3    H228902   6.408   5.714   1.380 -1.3977  1.4387 -0.1530
 9656TIP3   OH228903   7.600   2.829   1.065 -0.2649 -1.0201  0.7832
 9656TIP3    H128904   7.675   2.769   1.067 -0.2435 -1.0401 -0.1015
 9656TIP3    H228905   7.528   2.777   1.031 -0.8093 -1.1248  2.0781
 9657TIP3   OH228906   1.114   1.754   5.609 -0.2800 -0.0794 -0.9453
 9657TIP3    H128907   1.141   1.748   5.701  2.2074 -1.8930 -1.7386
 9657TIP3    H228908   1.027   1.714   5.607  0.0965 -0.9906  0.4579
 9658TIP3   OH228909   7.172   7.042   3.613  0.1935  0.3503 -0.2538
 9658TIP3    H128910   7.109   7.111   3.633  0.2487  1.0180 -2.2940
 9658TIP3    H228911   7.247   7.088   3.574  0.6000 -0.7607 -0.8023
 9659TIP3   OH228912   3.869   1.071   4.691  0.0870  0.3034 -0.5327
 9659TIP3    H128913   3.838   1.059   4.602  0.8242 -0.0751 -0.7397
 9659TIP3    H228914   3.840   1.159   4.715  1.8920  1.3324 -1.9844
 9660TIP3   OH228915   0.668   6.741   6.679  0.2131 -0.6092 -0.8624
 9660TIP3    H128916   0.622   6.658   6.695  0.1991 -1.1045 -3.3665
 9660TIP3    H228917   0.760   6.720   6.693  0.1156 -0.7618 -0.4239
 9661TIP3   OH228918   0.432   7.100   4.769  0.7237 -0.0054  0.5743
 9661TIP3    H128919   0.438   7.007   4.748  0.1423  0.2138 -0.6153
 9661TIP3    H228920   0.500   7.142   4.715  0.1921  0.3880  0.1958
 9662TIP3   OH228921   0.621   0.296   5.921  0.1060  0.8932  0.3346
 9662TIP3    H128922   0.559   0.369   5.928  0.0057  0.8117  0.2998
 9662TIP3    H228923   0.627   0.279   5.827 -1.5027 -0.5389  0.4747
 9663TIP3   OH228924   3.813   0.050   5.647 -0.3870  0.3404 -0.4454
 9663TIP3    H128925   3.734  -0.002   5.662  0.7751 -1.0882  1.0051
 9663TIP3    H228926   3.789   0.139   5.671 -0.7975 -0.5756  2.7306
 9664TIP3   OH228927   4.059   0.393   6.933 -0.0237  0.3439 -0.0284
 9664TIP3    H128928   4.046   0.355   6.846  0.9502  1.4842 -0.6716
 9664TIP3    H228929   4.062   0.487   6.918  0.7348  0.5160  1.1604
 9665TIP3   OH228930   2.310   2.049   5.623  0.2268  0.1055 -0.4239
 9665TIP3    H128931   2.243   1.981   5.613 -0.8155  0.5134  3.0408
 9665TIP3    H228932   2.263   2.131   5.615  0.4757  0.3891  0.8437
 9666TIP3   OH228933   3.036   0.829   6.179  0.3667  0.5016  0.0214
 9666TIP3    H128934   3.104   0.875   6.131 -0.1898  0.3522 -0.9193
 9666TIP3    H228935   2.962   0.825   6.118 -1.2195  2.5324  1.7563
 9667TIP3   OH228936   3.574   0.366   5.665  0.1517  0.0157  0.3833
 9667TIP3    H128937   3.593   0.354   5.572  0.6861  0.2529  0.4634
 9667TIP3    H228938   3.531   0.285   5.691 -0.1231  0.0033 -0.1044
 9668TIP3   OH228939   7.807   3.831   1.496 -0.0815  0.4154 -0.5016
 9668TIP3    H128940   7.821   3.906   1.439  1.0195  0.4690 -0.1602
 9668TIP3    H228941   7.864   3.763   1.460 -1.3100 -0.3714 -1.0048
 9669TIP3   OH228942   2.818   1.748   6.710 -0.2168  0.1671  0.0502
 9669TIP3    H128943   2.730   1.728   6.742 -0.2264  0.0790 -0.0338
 9669TIP3    H228944   2.810   1.749   6.615  0.0915 -0.8284  0.0126
 9670TIP3   OH228945   4.936   0.018   5.684 -0.3572  0.2689 -0.5689
 9670TIP3    H128946   4.871   0.029   5.614  0.4970  0.5532 -1.3219
 9670TIP3    H228947   4.996   0.092   5.674  0.3613 -0.2530 -0.1676
 9671TIP3   OH228948   4.387   1.887   5.534  0.4806  0.0961 -0.1697
 9671TIP3    H128949   4.461   1.945   5.552 -0.3972  1.0064  0.5443
 9671TIP3    H228950   4.376   1.837   5.615 -0.3329  0.6985  0.1042
 9672TIP3   OH228951   2.279   7.446   6.454 -0.1733 -0.4649 -0.7650
 9672TIP3    H128952   2.369   7.447   6.421  0.2178 -1.6158  0.2332
 9672TIP3    H228953   2.282   7.503   6.531 -0.6277  0.6185 -1.5393
 9673TIP3   OH228954   0.754   0.595   5.400 -0.1026 -0.4918 -0.3379
 9673TIP3    H128955   0.789   0.601   5.311 -0.2429  0.0224 -0.3634
 9673TIP3    H228956   0.809   0.530   5.444  0.7835  0.1864 -0.4233
 9674TIP3   OH228957   1.403   6.752   4.626  0.1713  0.1785  0.8249
 9674TIP3    H128958   1.462   6.679   4.645 -0.6628 -0.5636  0.6113
 9674TIP3    H228959   1.324   6.732   4.677 -1.1695 -0.5830 -1.4986
 9675TIP3   OH228960   7.455   0.400   5.850  0.1988  0.1128  0.5652
 9675TIP3    H128961   7.521   0.339   5.819 -2.0280 -1.2165 -1.7210
 9675TIP3    H228962   7.430   0.366   5.936  1.1512 -0.4230  0.6417
 9676TIP3   OH228963   7.830   4.927   2.667 -0.4167 -0.4410 -0.0948
 9676TIP3    H128964   7.896   4.872   2.623 -0.1742  0.8890 -1.4341
 9676TIP3    H228965   7.799   4.985   2.598 -1.0313  0.7757  1.1991
 9677TIP3   OH228966   5.208   0.227   6.642 -0.4520  0.5866  0.0445
 9677TIP3    H128967   5.294   0.269   6.645 -0.4168  0.6229 -1.1064
 9677TIP3    H228968   5.223   0.146   6.593 -0.7615 -0.1964  1.2263
 9678TIP3   OH228969   4.860   3.778   0.421  0.2321  0.2599  0.2738
 9678TIP3    H128970   4.944   3.811   0.390 -0.0654  0.9535  0.1968
 9678TIP3    H228971   4.801   3.790   0.346 -0.2254  0.8986  0.7416
 9679TIP3   OH228972   3.647   5.338   0.770 -0.0710  0.1314  0.0069
 9679TIP3    H128973   3.696   5.272   0.721  0.9939 -0.4307  1.7690
 9679TIP3    H228974   3.657   5.419   0.719 -0.8426 -0.9078 -1.8304
 9680TIP3   OH228975   3.333   0.479   6.186 -0.9582 -0.3034  0.4392
 9680TIP3    H128976   3.319   0.482   6.091 -0.2494  3.6715  0.3636
 9680TIP3    H228977   3.247   0.497   6.224 -0.5722  1.7177  0.4250
 9681TIP3   OH228978   6.197   5.262   1.794 -0.1272 -0.0985 -0.0779
 9681TIP3    H128979   6.105   5.282   1.812 -0.3804 -1.4484  0.1310
 9681TIP3    H228980   6.215   5.306   1.711 -0.7669  0.7387  0.2200
 9682TIP3   OH228981   4.297   2.955   5.994  0.6466 -0.3784  0.0215
 9682TIP3    H128982   4.215   2.979   6.036  1.2844 -2.5953  2.6787
 9682TIP3    H228983   4.356   3.029   6.013  0.4429 -0.6241  1.6812
 9683TIP3   OH228984   3.500   0.156   6.000  0.1957 -0.3328  0.3686
 9683TIP3    H128985   3.506   0.199   6.085  0.1494  0.0255  0.1900
 9683TIP3    H228986   3.591   0.143   5.973  0.2085  0.5395 -0.0258
 9684TIP3   OH228987   0.392   7.760   6.036  0.9757  0.0062  0.1392
 9684TIP3    H128988   0.327   7.721   5.978 -0.3937  3.0602 -0.4863
 9684TIP3    H228989   0.341   7.800   6.106  2.5003 -1.7812  2.3587
 9685TIP3   OH228990   6.371   5.960   1.137 -0.3341  0.6703 -0.2292
 9685TIP3    H128991   6.462   5.960   1.166 -0.3361 -0.2196 -0.1839
 9685TIP3    H228992   6.331   6.034   1.181  0.5078  1.4035 -0.6950
 9686TIP3   OH228993   4.463   3.007   6.498 -0.3114 -0.3269  0.0318
 9686TIP3    H128994   4.408   2.946   6.449  0.0207 -0.9573  0.4367
 9686TIP3    H228995   4.406   3.041   6.567 -0.9543  1.0050 -1.1276
 9687TIP3   OH228996   3.702   0.962   6.822 -0.1897 -0.1543 -0.7449
 9687TIP3    H128997   3.713   0.939   6.729 -1.7780  1.7633 -1.4331
 9687TIP3    H228998   3.622   0.916   6.848 -0.4354  0.3230 -0.6631
 9688TIP3   OH228999   5.792   0.672   6.444 -0.3853 -0.1335  0.4545
 9688TIP3    H129000   5.879   0.707   6.459 -0.7834  1.2703 -0.4174
 9688TIP3    H229001   5.797   0.630   6.358 -0.3549 -0.7967  0.7735
 9689TIP3   OH229002   5.933   0.284   4.391  0.7623 -0.7186 -0.2982
 9689TIP3    H129003   5.993   0.301   4.319  0.4145  0.7123 -0.2665
 9689TIP3    H229004   5.889   0.368   4.406 -1.5394 -1.8200 -0.5938
 9690TIP3   OH229005   8.439   2.245   1.769 -0.1950  0.0971 -0.1403
 9690TIP3    H129006   8.407   2.183   1.703 -0.0673  1.0147 -1.0748
 9690TIP3    H229007   8.419   2.331   1.733  0.7194  0.6251  0.5949
 9691TIP3   OH229008   0.460   3.688   0.431 -0.0029  0.0936  0.6765
 9691TIP3    H129009   0.391   3.673   0.495 -1.3636 -0.3513 -0.8697
 9691TIP3    H229010   0.483   3.780   0.442 -0.3427  0.0670  1.6690
 9692TIP3   OH229011   0.856   7.524   6.913  0.0831 -0.8534 -0.3016
 9692TIP3    H129012   0.897   7.458   6.857  2.6934  0.6211 -0.1769
 9692TIP3    H229013   0.868   7.606   6.865 -0.6194 -0.0519  0.8752
 9693TIP3   OH229014   7.822   3.830   0.146 -0.1425  0.0313  0.1020
 9693TIP3    H129015   7.840   3.802   0.236  2.0805 -1.1127 -0.6450
 9693TIP3    H229016   7.743   3.783   0.120 -1.1617  0.8616  1.6572
 9694TIP3   OH229017   6.182   0.552   6.136  0.4532  0.0306  0.0278
 9694TIP3    H129018   6.213   0.541   6.226 -0.1380 -0.9451  0.1210
 9694TIP3    H229019   6.201   0.468   6.094  1.0693  0.6078 -0.8741
 9695TIP3   OH229020   0.675   2.289   0.209 -0.3578  0.3543  0.0774
 9695TIP3    H129021   0.739   2.291   0.138 -1.4351 -0.4688 -0.9381
 9695TIP3    H229022   0.698   2.212   0.260  1.0711  1.5464  1.2485
 9696TIP3   OH229023   1.709   5.205   1.850 -0.1648 -0.2126  0.1940
 9696TIP3    H129024   1.706   5.280   1.909  2.5057  0.2715 -0.2257
 9696TIP3    H229025   1.637   5.219   1.789 -0.1040  1.6539  0.5279
 9697TIP3   OH229026   5.387   6.314   0.513  0.1800 -0.1591  0.1543
 9697TIP3    H129027   5.376   6.220   0.524  1.3773 -0.1969  1.0722
 9697TIP3    H229028   5.443   6.341   0.586 -0.8579  1.4074  0.3841
 9698TIP3   OH229029   3.390   1.097   5.621 -0.1818  0.3260  0.1249
 9698TIP3    H129030   3.425   1.097   5.532 -2.0727  0.0391 -0.6683
 9698TIP3    H229031   3.342   1.179   5.628 -0.2666  0.2238  0.7875
 9699TIP3   OH229032   4.379   3.603   5.479  0.0119 -0.2277  0.1132
 9699TIP3    H129033   4.376   3.533   5.413  2.4959  0.9120 -1.2677
 9699TIP3    H229034   4.403   3.559   5.560  0.2038 -1.1663 -0.4505
 9700TIP3   OH229035   7.390   5.581   0.823  0.1543 -0.1711 -0.3363
 9700TIP3    H129036   7.375   5.623   0.739  0.5974  0.9298  0.1255
 9700TIP3    H229037   7.303   5.564   0.858 -0.0267 -0.0549 -0.7314
 9701TIP3   OH229038   3.510   1.845   6.621 -0.3868 -0.3743  0.0315
 9701TIP3    H129039   3.510   1.928   6.668 -0.3167 -0.0755 -0.4906
 9701TIP3    H229040   3.507   1.778   6.689 -0.4415  0.0589  0.4510
 9702TIP3   OH229041   3.730   4.247   0.901 -0.7982 -0.4244  0.6092
 9702TIP3    H129042   3.723   4.165   0.950 -2.5200 -0.2020  0.7883
 9702TIP3    H229043   3.694   4.314   0.960 -1.1851  0.1367 -0.2422
 9703TIP3   OH229044   1.963   2.269   6.672 -0.1051  1.0631  0.5365
 9703TIP3    H129045   1.905   2.344   6.660 -0.6838  0.5433 -0.0160
 9703TIP3    H229046   1.933   2.228   6.753 -0.8190  0.5368  0.0162
 9704TIP3   OH229047   4.192   6.289   1.016  0.0219 -0.3473 -0.3421
 9704TIP3    H129048   4.161   6.340   0.941 -0.5557  0.6226  0.5658
 9704TIP3    H229049   4.280   6.321   1.032  1.7898 -3.3696 -3.1710
 9705TIP3   OH229050   2.665   0.750   6.873  0.6156  0.4063  0.0845
 9705TIP3    H129051   2.705   0.698   6.942  1.1997  0.0730 -0.4944
 9705TIP3    H229052   2.713   0.833   6.874 -0.1179  0.8292  0.8097
 9706TIP3   OH229053   2.793   1.285   5.145 -0.0164 -0.0740 -0.2150
 9706TIP3    H129054   2.737   1.236   5.086 -0.1557  1.6712 -1.5823
 9706TIP3    H229055   2.873   1.300   5.096  0.2522  0.5358  0.3913
 9707TIP3   OH229056   6.459   7.587   6.074  0.3116  0.1435  0.1135
 9707TIP3    H129057   6.436   7.596   6.166  1.5033 -2.4692  0.6954
 9707TIP3    H229058   6.379   7.556   6.032 -0.0955  0.8819  0.3400
 9708TIP3   OH229059   2.541   1.408   5.505  0.1534  0.1323  0.0662
 9708TIP3    H129060   2.476   1.420   5.573 -0.8789 -1.3265 -0.6317
 9708TIP3    H229061   2.572   1.496   5.484 -0.6923  0.7180  1.2670
 9709TIP3   OH229062   0.791   1.462   6.447 -0.8569 -0.2831 -0.1941
 9709TIP3    H129063   0.800   1.547   6.405 -1.9035  0.8388  1.7962
 9709TIP3    H229064   0.869   1.453   6.502 -0.5875 -0.7682 -0.6456
 9710TIP3   OH229065   6.385   4.857   1.846 -0.7584  0.4062 -0.2860
 9710TIP3    H129066   6.451   4.916   1.810 -0.1155  0.3207  0.7375
 9710TIP3    H229067   6.302   4.892   1.813 -0.4080  2.0289  0.4730
 9711TIP3   OH229068   1.754   0.977   6.481 -0.0509  0.1128 -0.1920
 9711TIP3    H129069   1.766   1.001   6.389  0.0693  1.6185  0.1863
 9711TIP3    H229070   1.667   1.010   6.503 -0.4649 -1.0834 -0.0080
 9712TIP3   OH229071   3.411   4.606   0.214  0.4276  0.1465  0.5829
 9712TIP3    H129072   3.459   4.643   0.288  1.9397  2.3489 -1.4216
 9712TIP3    H229073   3.321   4.600   0.245  1.1280  0.5201  2.7837
 9713TIP3   OH229074   5.282   2.028   6.705  0.8154  0.0529  0.4721
 9713TIP3    H129075   5.237   2.084   6.768 -0.3353 -0.9260  0.5371
 9713TIP3    H229076   5.318   2.089   6.641  1.0536  0.9792  1.4672
 9714TIP3   OH229077   6.804   1.355   6.711  0.2332 -0.1140  0.9936
 9714TIP3    H129078   6.732   1.334   6.651  0.0706  1.2453  0.6916
 9714TIP3    H229079   6.879   1.308   6.676  0.8171  2.7740 -1.8911
 9715TIP3   OH229080   7.779   2.863   0.560  0.0651  0.1971 -0.2546
 9715TIP3    H129081   7.800   2.806   0.487  1.4399 -2.5819  2.1855
 9715TIP3    H229082   7.689   2.842   0.583  0.0308  0.2002 -0.3893
 9716TIP3   OH229083   0.633   3.116   4.055 -0.2567  0.2690 -0.0024
 9716TIP3    H129084   0.580   3.158   3.987  0.8500  1.5536 -0.0768
 9716TIP3    H229085   0.582   3.038   4.080 -1.3103  0.5138 -1.3403
 9717TIP3   OH229086   5.690   2.804   6.877 -0.3222  0.1356 -0.0393
 9717TIP3    H129087   5.602   2.844   6.878  0.1994  1.5428 -3.3265
 9717TIP3    H229088   5.681   2.727   6.821  1.0730  1.7971 -2.6559
 9718TIP3   OH229089   4.066   1.268   6.380  0.1091 -0.1280  0.4585
 9718TIP3    H129090   4.016   1.221   6.313  0.1819 -0.5266  0.6835
 9718TIP3    H229091   4.125   1.325   6.330 -0.2481  0.0098  0.1893
 9719TIP3   OH229092   2.230   7.324   6.211 -0.2721  0.0888 -0.8435
 9719TIP3    H129093   2.238   7.383   6.135 -0.2171  1.9829  0.6067
 9719TIP3    H229094   2.196   7.380   6.281 -3.2216 -2.3022 -0.2490
 9720TIP3   OH229095   1.052   4.353   0.844 -0.1758  0.2546  0.1691
 9720TIP3    H129096   0.967   4.382   0.809  0.9048  2.4792 -0.6803
 9720TIP3    H229097   1.073   4.416   0.912  0.6958 -0.4120  0.5263
 9721TIP3   OH229098   8.439   4.882   0.574  0.0970  0.2746  1.0485
 9721TIP3    H129099   8.382   4.945   0.530  0.7536  0.0661 -0.1198
 9721TIP3    H229100   8.421   4.895   0.667 -0.7346  1.2682  0.7646
 9722TIP3   OH229101   7.656   0.857   6.328 -0.2309 -0.2351  0.3301
 9722TIP3    H129102   7.689   0.919   6.394 -1.7283  0.0107  0.8726
 9722TIP3    H229103   7.682   0.895   6.244 -1.3361  1.2860  0.6432
 9723TIP3   OH229104   4.458   1.748   4.101 -0.0749 -0.3301 -0.3194
 9723TIP3    H129105   4.482   1.829   4.056 -1.7838  0.2119 -0.2547
 9723TIP3    H229106   4.363   1.749   4.105 -0.0428 -1.4462  1.3339
 9724TIP3   OH229107   6.148   1.401   5.725 -0.3102  0.0451 -0.1220
 9724TIP3    H129108   6.134   1.306   5.731 -2.3134  0.3011 -0.5440
 9724TIP3    H229109   6.120   1.424   5.637  0.5083  0.9895 -0.1464
 9725TIP3   OH229110   3.861   0.829   4.839  0.0388  0.6419  0.2312
 9725TIP3    H129111   3.859   0.908   4.785  2.0380 -0.6248 -1.7891
 9725TIP3    H229112   3.828   0.760   4.782  1.3404 -0.5683  0.9053
 9726TIP3   OH229113   8.201   2.874   2.648 -0.3388 -0.2711 -0.0828
 9726TIP3    H129114   8.265   2.804   2.636 -0.3130 -0.1939 -0.4168
 9726TIP3    H229115   8.242   2.933   2.712 -0.3641 -0.5607  0.2005
 9727TIP3   OH229116   3.175   7.121   6.182  0.0087 -0.2176  0.5807
 9727TIP3    H129117   3.225   7.039   6.174  3.0111  1.6259 -0.3123
 9727TIP3    H229118   3.224   7.171   6.248 -0.8324  1.5589 -0.1400
 9728TIP3   OH229119   5.655   4.163   6.636  0.0181 -0.3004 -0.1292
 9728TIP3    H129120   5.715   4.098   6.673 -0.6686 -0.9477 -0.1443
 9728TIP3    H229121   5.569   4.140   6.671 -0.6746 -0.9812 -2.1882
 9729TIP3   OH229122   4.664   0.748   5.777  0.3481  0.3794 -0.6614
 9729TIP3    H129123   4.753   0.779   5.797  0.5457  0.3376 -1.4560
 9729TIP3    H229124   4.616   0.828   5.756 -0.1836  0.5565  1.1614
 9730TIP3   OH229125   4.524   3.767   6.904  0.0082 -0.4034 -0.1075
 9730TIP3    H129126   4.607   3.815   6.910  0.2349 -0.9068  1.1965
 9730TIP3    H229127   4.499   3.754   6.996 -2.0039  0.5663 -0.5107
 9731TIP3   OH229128   1.170   4.980   1.143 -0.1738 -0.0184 -0.5414
 9731TIP3    H129129   1.190   5.018   1.057  0.2383 -1.3316 -1.0394
 9731TIP3    H229130   1.234   4.909   1.153 -1.3186 -0.9819  0.0878
 9732TIP3   OH229131   6.653   3.207   6.913  0.0144  0.2361  0.4791
 9732TIP3    H129132   6.726   3.170   6.963  0.7845  0.0236 -0.7899
 9732TIP3    H229133   6.672   3.185   6.822 -0.8471  1.5192 -0.0315
 9733TIP3   OH229134   4.873   0.623   6.790 -0.5940 -0.3555  0.2558
 9733TIP3    H129135   4.936   0.580   6.732  0.0659 -0.4870  1.0593
 9733TIP3    H229136   4.787   0.592   6.760 -0.3013  0.0162 -1.0045
 9734TIP3   OH229137   7.756   1.616   5.976 -0.6137  0.8162  0.0496
 9734TIP3    H129138   7.805   1.577   5.903 -1.7098 -2.9903  1.2174
 9734TIP3    H229139   7.819   1.617   6.048 -0.8561  0.3103  0.2707
 9735TIP3   OH229140   0.190   4.914   0.396  0.0724  0.7478  0.5279
 9735TIP3    H129141   0.168   4.965   0.318  0.4008  0.0195 -0.0427
 9735TIP3    H229142   0.121   4.935   0.459 -1.2595 -0.1365 -0.6176
 9736TIP3   OH229143   4.882   2.650   5.083 -0.4583  0.8244 -0.2306
 9736TIP3    H129144   4.813   2.624   5.144  0.5163  0.1111  0.5749
 9736TIP3    H229145   4.910   2.736   5.112  0.6269  0.1067  0.8939
 9737TIP3   OH229146   3.134   0.099   1.272  0.1163 -0.5570  0.5700
 9737TIP3    H129147   3.162   0.141   1.191  2.8917 -1.3635  1.0598
 9737TIP3    H229148   3.125   0.006   1.250 -2.6056 -0.2963  0.3532
 9738TIP3   OH229149   4.696   1.153   6.610  0.0394 -0.1650 -0.1455
 9738TIP3    H129150   4.734   1.168   6.523  0.9622 -0.6173  0.1642
 9738TIP3    H229151   4.624   1.092   6.594  0.6813 -0.8476 -0.5085
 9739TIP3   OH229152   8.032   5.011   0.123  0.4546 -0.1465  0.2292
 9739TIP3    H129153   8.094   5.018   0.049 -0.2375 -0.7628 -0.4152
 9739TIP3    H229154   8.037   4.919   0.149 -0.7976 -0.3934 -0.3628
 9740TIP3   OH229155   1.068   4.158   0.454 -0.2023  0.3615  0.9142
 9740TIP3    H129156   1.053   4.211   0.376 -0.4620  0.3503  0.9542
 9740TIP3    H229157   1.158   4.128   0.447 -0.2726  0.2409  0.5439
 9741TIP3   OH229158   6.269   0.791   5.743 -0.7203 -0.0352 -0.0380
 9741TIP3    H129159   6.327   0.754   5.809 -1.3556 -1.5726 -0.3177
 9741TIP3    H229160   6.327   0.837   5.683  0.2374 -1.5616 -0.3144
 9742TIP3   OH229161   0.902   6.113   0.180  0.6981  0.3773  0.1289
 9742TIP3    H129162   0.829   6.058   0.209 -0.8590  2.3822  0.0871
 9742TIP3    H229163   0.966   6.106   0.251 -0.0837 -0.3487  0.7815
 9743TIP3   OH229164   8.192   5.781   0.732  0.8323 -0.0653 -0.0447
 9743TIP3    H129165   8.245   5.743   0.663  1.4787 -0.2244  0.5315
 9743TIP3    H229166   8.137   5.709   0.764 -0.9575  0.4944 -1.7720
 9744TIP3   OH229167   0.414   7.543   6.784  0.0492 -0.6780  0.6518
 9744TIP3    H129168   0.417   7.503   6.871 -0.1175 -2.6030 -0.1941
 9744TIP3    H229169   0.499   7.522   6.746 -0.2108 -0.6033  0.0319
 9745TIP3   OH229170   7.620   2.965   1.947  0.2433  0.4571  0.4158
 9745TIP3    H129171   7.597   2.996   1.859  1.1177 -1.3693 -0.4845
 9745TIP3    H229172   7.632   2.871   1.937  3.9489  0.7127  1.7305
 9746TIP3   OH229173   7.632   5.926   0.655  0.4707 -0.6583 -0.0670
 9746TIP3    H129174   7.637   5.843   0.607  0.8098 -0.8533  0.2987
 9746TIP3    H229175   7.720   5.939   0.689  0.2791 -0.4304  0.3459
 9747TIP3   OH229176   5.394   0.161   6.177 -0.1378  0.1499 -0.0700
 9747TIP3    H129177   5.489   0.149   6.171 -0.3964 -3.1283  1.4350
 9747TIP3    H229178   5.368   0.192   6.090  2.4660  2.7006 -0.0175
 9748TIP3   OH229179  -0.011   4.670   0.768  0.0233 -0.1329  0.1525
 9748TIP3    H129180   0.017   4.582   0.792  0.4608  0.3817  1.5405
 9748TIP3    H229181   0.031   4.685   0.683  0.3873 -1.0486  0.1586
 9749TIP3   OH229182   6.208   0.169   6.889  0.5415 -0.3004 -0.1509
 9749TIP3    H129183   6.200   0.135   6.800 -0.2859  3.2608 -1.4938
 9749TIP3    H229184   6.139   0.125   6.938 -0.8189 -0.1856 -1.9331
 9750TIP3   OH229185   5.600   2.487   5.828  0.1935 -0.1370  0.1476
 9750TIP3    H129186   5.553   2.483   5.911 -0.5853 -2.2915 -0.3781
 9750TIP3    H229187   5.547   2.543   5.773 -1.0164 -1.3650  0.0403
 9751TIP3   OH229188   3.893   3.246   6.824 -0.0265  0.0722 -0.2034
 9751TIP3    H129189   3.859   3.334   6.808  0.4673  0.0805 -1.2633
 9751TIP3    H229190   3.963   3.236   6.760  0.3722 -0.8440  0.3684
 9752TIP3   OH229191   3.478   2.052   6.128 -0.1523  0.0381  0.0210
 9752TIP3    H129192   3.510   1.967   6.158 -0.5036  0.0613  0.4632
 9752TIP3    H229193   3.510   2.060   6.038 -1.4352 -1.2635 -0.5727
 9753TIP3   OH229194   8.158   1.579   4.693 -0.5291  0.3150 -0.4167
 9753TIP3    H129195   8.093   1.650   4.695 -0.4686  0.3564  0.1289
 9753TIP3    H229196   8.109   1.502   4.722 -1.0145 -0.2150 -2.5641
 9754TIP3   OH229197   7.003   6.253   1.378 -0.3649 -0.9426  0.3519
 9754TIP3    H129198   6.955   6.174   1.355  0.0401 -1.2179  0.4380
 9754TIP3    H229199   6.954   6.291   1.451 -0.4263 -1.2479  0.4705
 9755TIP3   OH229200   7.003   4.644   1.667 -0.2063 -0.4422  0.2648
 9755TIP3    H129201   7.051   4.655   1.750 -0.5144  0.4632  0.3267
 9755TIP3    H229202   7.071   4.631   1.602  0.0787 -0.3166  0.5350
 9756TIP3   OH229203   6.251   2.834   6.855 -0.3458  0.3178  0.1398
 9756TIP3    H129204   6.281   2.912   6.809 -0.0303  0.1087 -0.0076
 9756TIP3    H229205   6.176   2.864   6.907  0.9594  1.1342  1.5923
 9757TIP3   OH229206   7.183   3.159   1.522  0.0781 -0.2175 -0.0840
 9757TIP3    H129207   7.270   3.179   1.489 -0.3057  1.5641 -0.0900
 9757TIP3    H229208   7.151   3.090   1.465  2.4182 -2.6590  1.4660
 9758TIP3   OH229209   4.990   3.155   4.798  0.2830  0.2000  0.1105
 9758TIP3    H129210   4.904   3.197   4.796 -0.4188 -1.2474 -1.7128
 9758TIP3    H229211   4.986   3.089   4.729  2.5762 -0.4671  0.5706
 9759TIP3   OH229212   5.901   3.658   4.698  0.2052 -0.1632  0.0005
 9759TIP3    H129213   5.924   3.742   4.660  1.8671  0.8928  3.1673
 9759TIP3    H229214   5.875   3.678   4.788 -1.7031 -2.7743  0.1061
 9760TIP3   OH229215   6.281   1.918   6.815 -0.7470 -0.0651  0.0031
 9760TIP3    H129216   6.340   1.848   6.843 -0.2125  0.8667  1.2890
 9760TIP3    H229217   6.195   1.892   6.848 -0.1807  0.8614  2.3170
 9761TIP3   OH229218   3.849   0.047   1.452  0.4638 -0.3198  0.3806
 9761TIP3    H129219   3.793  -0.027   1.475  1.2404 -0.7417  0.9347
 9761TIP3    H229220   3.793   0.124   1.463 -0.8838 -0.9246 -1.8918
 9762TIP3   OH229221   2.141   7.191   0.811 -0.5025  0.4709 -0.0051
 9762TIP3    H129222   2.218   7.236   0.847  0.5133 -0.7169 -0.6366
 9762TIP3    H229223   2.114   7.130   0.879 -0.2913  0.2070 -0.1553
 9763TIP3   OH229224   5.976   5.961   0.242  0.2620  0.1500  0.0192
 9763TIP3    H129225   5.909   5.913   0.292 -1.6257 -0.1914 -2.7480
 9763TIP3    H229226   6.034   5.893   0.209 -0.1375  0.1035 -0.6008
 9764TIP3   OH229227   6.318   1.853   6.145  0.2900 -0.1739 -0.2407
 9764TIP3    H129228   6.356   1.835   6.060  1.1633 -0.4594  0.2015
 9764TIP3    H229229   6.394   1.869   6.202 -0.2617 -0.4578  0.5818
 9765TIP3   OH229230   4.479   1.277   4.643 -0.2597  0.3569 -0.5993
 9765TIP3    H129231   4.444   1.232   4.720 -0.9069 -0.1902 -1.2038
 9765TIP3    H229232   4.482   1.210   4.575 -0.0440  0.9244 -1.1568
 9766TIP3   OH229233   1.690   7.601   5.953 -0.3308 -0.3961  0.3864
 9766TIP3    H129234   1.628   7.540   5.913 -0.8771  1.0372 -1.0070
 9766TIP3    H229235   1.770   7.592   5.901 -0.6340  0.5491 -0.2628
 9767TIP3   OH229236   4.239   5.314   0.243  0.4644 -0.2034 -0.6684
 9767TIP3    H129237   4.200   5.367   0.313  0.4651  0.4870 -1.1931
 9767TIP3    H229238   4.164   5.270   0.202  0.6144 -2.0074  0.8933
 9768TIP3   OH229239   6.401   1.776   5.894 -0.0486 -0.2075 -0.0984
 9768TIP3    H129240   6.381   1.685   5.871 -0.9754  0.6653 -3.1128
 9768TIP3    H229241   6.494   1.786   5.878 -0.0057 -0.5692 -0.0604
 9769TIP3   OH229242   1.498   5.216   1.675 -0.2433 -0.0472 -0.1172
 9769TIP3    H129243   1.530   5.279   1.610 -0.5247  0.5219  0.2898
 9769TIP3    H229244   1.441   5.157   1.625  0.8121 -0.5869 -0.6916
 9770TIP3   OH229245   7.863   4.801   0.464 -0.0518 -0.0869  0.1794
 9770TIP3    H129246   7.935   4.770   0.518  1.0294 -0.7806 -1.5969
 9770TIP3    H229247   7.803   4.727   0.460  1.0895 -0.9669 -1.5975
 9771TIP3   OH229248   6.747   4.826   1.697  0.2508 -0.5306  0.4835
 9771TIP3    H129249   6.836   4.794   1.682  0.2600 -0.4134  0.2921
 9771TIP3    H229250   6.691   4.762   1.653  0.2323 -0.6811  0.7235
 9772TIP3   OH229251   7.566   6.843   6.363 -0.0497 -0.4605  0.6436
 9772TIP3    H129252   7.545   6.885   6.280 -0.5666  0.1612  1.0859
 9772TIP3    H229253   7.635   6.898   6.401 -0.6227 -0.0818  1.1531
 9773TIP3   OH229254   0.592   5.485   0.128  0.4832  0.1793  0.1442
 9773TIP3    H129255   0.560   5.421   0.191  2.4521 -0.1291  0.8699
 9773TIP3    H229256   0.538   5.563   0.143 -0.7398 -0.7189  0.4573
 9774TIP3   OH229257   3.613   5.633   6.398  0.0570 -0.1927 -0.5062
 9774TIP3    H129258   3.665   5.693   6.344 -0.9421  1.1611  0.0062
 9774TIP3    H229259   3.657   5.635   6.484 -0.9820  1.1688  0.0067
 9775TIP3   OH229260   7.801   5.631   0.995  0.2498  0.0900 -0.0768
 9775TIP3    H129261   7.759   5.716   1.012  0.7042  0.0234  1.4427
 9775TIP3    H229262   7.729   5.573   0.970 -0.5637  0.0377  2.2735
 9776TIP3   OH229263   3.277   7.624   5.718 -0.3102  0.1160  0.5827
 9776TIP3    H129264   3.211   7.554   5.720 -0.5266  0.2355 -1.1716
 9776TIP3    H229265   3.227   7.705   5.728 -0.6399  0.2945 -1.9834
 9777TIP3   OH229266   3.866   1.133   1.858 -0.1500  0.1115  0.0128
 9777TIP3    H129267   3.818   1.197   1.911 -0.3547  0.8408 -1.0613
 9777TIP3    H229268   3.803   1.062   1.844 -0.7552  0.8380 -0.9708
 9778TIP3   OH229269   4.273   0.698   6.304  0.2793  0.5466 -0.5105
 9778TIP3    H129270   4.320   0.720   6.224 -0.7832  1.5724 -0.8612
 9778TIP3    H229271   4.269   0.780   6.354  1.7274 -0.2887  1.0113
 9779TIP3   OH229272   3.008   6.686   6.211 -0.0919 -0.2261  0.0076
 9779TIP3    H129273   3.028   6.741   6.287  1.8067  0.2513 -0.7995
 9779TIP3    H229274   2.931   6.727   6.172 -0.5742  0.0211  1.1827
 9780TIP3   OH229275   2.563   1.470   6.722  0.6631 -0.4392 -0.4265
 9780TIP3    H129276   2.519   1.469   6.637 -0.5408  1.0523  0.1436
 9780TIP3    H229277   2.650   1.507   6.704  1.3296 -2.4428 -1.3933
 9781TIP3   OH229278   6.453   0.877   6.481  0.1646  0.7490  0.3057
 9781TIP3    H129279   6.533   0.930   6.478  0.5481  0.1479 -0.2236
 9781TIP3    H229280   6.450   0.834   6.396 -1.6445  2.1000 -0.3518
 9782TIP3   OH229281   7.700   3.095   6.539  0.4705 -0.5058 -0.0746
 9782TIP3    H129282   7.684   3.016   6.591 -0.8929 -1.1509 -1.4300
 9782TIP3    H229283   7.626   3.099   6.479  1.6151  0.6593 -1.4437
 9783TIP3   OH229284   6.488   1.321   6.906  0.1611 -0.0242 -0.0739
 9783TIP3    H129285   6.547   1.306   6.979 -1.3535 -1.2508  0.9393
 9783TIP3    H229286   6.484   1.237   6.860 -0.5800  0.1148 -0.2769
 9784TIP3   OH229287   0.623   5.218   1.118  0.1501  0.2653 -0.3074
 9784TIP3    H129288   0.600   5.211   1.210 -0.4044  1.5855 -0.3422
 9784TIP3    H229289   0.618   5.128   1.085  0.8362 -0.2877  1.0474
 9785TIP3   OH229290   5.422   1.188   5.672  0.0573 -0.4582  0.2469
 9785TIP3    H129291   5.427   1.245   5.595 -0.6929 -1.3034 -0.4529
 9785TIP3    H229292   5.329   1.186   5.695  0.2066 -0.6229  0.8530
 9786TIP3   OH229293   4.983   1.818   6.061  0.4776 -0.0096 -0.2804
 9786TIP3    H129294   4.933   1.774   5.992  0.7177  0.5554 -0.8213
 9786TIP3    H229295   5.034   1.885   6.015  0.6694  0.3475  0.4415
 9787TIP3   OH229296   5.334   0.097   5.065 -0.1066 -0.1214  0.0010
 9787TIP3    H129297   5.346   0.050   5.148  1.5502 -0.0877 -0.2005
 9787TIP3    H229298   5.244   0.129   5.069 -0.1966 -0.4968  1.5924
 9788TIP3   OH229299   7.601   4.708   1.522 -0.0055 -0.1365 -0.1286
 9788TIP3    H129300   7.508   4.689   1.534 -0.6441  1.2617 -2.4321
 9788TIP3    H229301   7.626   4.654   1.446  0.8060  0.2441 -0.1338
 9789TIP3   OH229302   6.083   1.989   6.254 -0.3630  0.2576  0.0380
 9789TIP3    H129303   6.061   1.924   6.321 -1.8691  0.6196 -0.0832
 9789TIP3    H229304   6.177   1.977   6.240 -0.7920 -2.6493 -0.7807
 9790TIP3   OH229305   8.481   7.652   0.675  0.0224  0.3870 -0.2475
 9790TIP3    H129306   8.418   7.721   0.652  0.1254  0.7499  0.5196
 9790TIP3    H229307   8.426   7.575   0.694 -0.0556  0.0716 -1.7254
 9791TIP3   OH229308   8.165   0.444   5.905  0.2371  0.0454 -0.2080
 9791TIP3    H129309   8.076   0.433   5.941  1.9676  0.1726  4.5336
 9791TIP3    H229310   8.186   0.360   5.866 -1.8113 -0.1034 -1.0659
 9792TIP3   OH229311   0.898   2.271   1.126 -0.1698 -0.2463  0.5750
 9792TIP3    H129312   0.816   2.246   1.084 -0.0255 -0.7513  0.5849
 9792TIP3    H229313   0.925   2.193   1.175  1.7134 -1.0401 -1.6365
 9793TIP3   OH229314   5.587   3.533   6.808 -0.0693  0.0702 -0.2304
 9793TIP3    H129315   5.511   3.568   6.763 -0.5758  0.9545  1.2599
 9793TIP3    H229316   5.554   3.458   6.856 -0.0592  0.5719  0.5748
 9794TIP3   OH229317   1.000   4.799   0.943 -0.1205 -0.1434 -0.1225
 9794TIP3    H129318   1.071   4.853   0.977 -0.8621  0.4411  0.5031
 9794TIP3    H229319   0.928   4.811   1.005 -0.2507 -1.9824  0.1359
 9795TIP3   OH229320   5.525   2.079   3.292 -0.2037 -0.1880  0.1147
 9795TIP3    H129321   5.507   2.023   3.368 -0.8252 -0.7266 -0.4361
 9795TIP3    H229322   5.620   2.092   3.295 -0.3448  0.7304  1.6455
 9796TIP3   OH229323   5.464   2.336   6.142  0.0638 -0.3142 -0.2703
 9796TIP3    H129324   5.426   2.285   6.070 -0.0617 -0.2550 -0.2464
 9796TIP3    H229325   5.395   2.338   6.209 -0.6756  1.4924 -1.0338
 9797TIP3   OH229326   3.482   0.296   3.865  0.3969 -0.2088 -0.1113
 9797TIP3    H129327   3.462   0.219   3.919  1.1157 -0.7907 -0.6575
 9797TIP3    H229328   3.529   0.354   3.925  0.6552 -0.5889  0.0614
 9798TIP3   OH229329   7.225   5.204   1.713 -0.1341  0.1731  0.0788
 9798TIP3    H129330   7.264   5.147   1.647 -0.6327  1.6924 -1.5714
 9798TIP3    H229331   7.165   5.147   1.761  0.2992 -0.9860 -0.7253
 9799TIP3   OH229332   5.307   0.407   6.923 -0.1783  0.1714  0.4981
 9799TIP3    H129333   5.343   0.482   6.971  0.3848  0.8504 -0.9544
 9799TIP3    H229334   5.374   0.386   6.858 -0.6614 -1.1395  0.4185
 9800TIP3   OH229335   0.156   5.802   1.672 -0.0770 -0.0984  0.0209
 9800TIP3    H129336   0.239   5.761   1.697 -0.0696  0.2972  0.6346
 9800TIP3    H229337   0.117   5.831   1.754 -0.8480 -0.3193 -0.2615
 9801TIP3   OH229338   0.903   7.904   5.421 -1.0685  0.0724  0.1969
 9801TIP3    H129339   0.823   7.891   5.473 -0.9254  0.2648  0.4648
 9801TIP3    H229340   0.887   7.987   5.374 -1.3557 -0.2918 -0.3619
 9802TIP3   OH229341   7.216   5.273   0.949  0.3049  0.1822 -0.6814
 9802TIP3    H129342   7.206   5.275   0.854 -2.0148 -0.5833 -0.4975
 9802TIP3    H229343   7.139   5.225   0.980 -0.6135  3.0076  1.7446
 9803TIP3   OH229344   6.348   0.148   5.575  0.1742 -0.1825 -0.0495
 9803TIP3    H129345   6.346   0.158   5.479 -1.4627  1.1413  0.1242
 9803TIP3    H229346   6.379   0.232   5.607  2.6792 -1.2589  0.5275
 9804TIP3   OH229347   7.251   3.129   6.154  0.0729 -0.1451  0.3331
 9804TIP3    H129348   7.227   3.208   6.105 -1.5316 -0.6349  0.2845
 9804TIP3    H229349   7.222   3.146   6.243 -0.6059 -0.8069  0.2480
 9805TIP3   OH229350   4.170   0.692   6.844  0.1370 -0.0831  0.0058
 9805TIP3    H129351   4.140   0.684   6.753 -0.1351 -0.5374  0.1350
 9805TIP3    H229352   4.092   0.718   6.893  0.4157  0.7504  0.0188
 9806TIP3   OH229353   7.221   6.094   1.033 -0.1928 -0.4326 -0.5356
 9806TIP3    H129354   7.270   6.172   1.009  2.5135 -2.5056 -1.9595
 9806TIP3    H229355   7.287   6.026   1.045 -2.3426 -2.1761  2.2244
 9807TIP3   OH229356   4.684   2.212   6.354 -0.5273 -0.3043  0.1418
 9807TIP3    H129357   4.631   2.219   6.433 -1.2859 -0.6677 -0.3311
 9807TIP3    H229358   4.727   2.126   6.360  2.5762  1.2986  2.0961
 9808TIP3   OH229359   5.130   2.355   6.124  0.2069  0.4527 -0.2501
 9808TIP3    H129360   5.046   2.325   6.088  0.2042  0.0177  0.1060
 9808TIP3    H229361   5.191   2.352   6.049 -0.1040  0.8190 -0.5198
 9809TIP3   OH229362   4.114   2.158   5.539  0.3226 -0.1827  0.0946
 9809TIP3    H129363   4.170   2.133   5.465  0.7533 -0.6367  0.5772
 9809TIP3    H229364   4.174   2.199   5.601 -0.1387  0.7519 -0.0644
 9810TIP3   OH229365   3.446   0.496   6.455  0.4341  0.1488  0.6023
 9810TIP3    H129366   3.539   0.510   6.433  0.6721 -1.4350  0.5686
 9810TIP3    H229367   3.401   0.498   6.371  0.5031  0.3795  0.5695
 9811TIP3   OH229368   4.197   0.396   4.520 -0.8091 -0.1713  0.0078
 9811TIP3    H129369   4.133   0.468   4.525 -0.3043  0.1916  1.8628
 9811TIP3    H229370   4.179   0.343   4.598  0.1635 -0.9034 -0.2579
 9812TIP3   OH229371   2.246   0.384   6.497  0.1242 -0.2509  0.3468
 9812TIP3    H129372   2.295   0.464   6.475  0.2383 -0.8165 -1.4801
 9812TIP3    H229373   2.313   0.325   6.533  0.0490  0.4457  1.6513
 9813TIP3   OH229374   5.722   1.117   5.678 -0.5913 -0.2467  0.4386
 9813TIP3    H129375   5.649   1.063   5.648 -0.7028  0.2182 -0.1366
 9813TIP3    H229376   5.685   1.206   5.683 -0.6064 -0.3337  2.0639
 9814TIP3   OH229377   7.367   5.001   0.121  0.6735 -0.3854  0.0974
 9814TIP3    H129378   7.389   4.973   0.033  1.2818 -0.7558  0.3641
 9814TIP3    H229379   7.344   5.093   0.112 -0.9378 -0.8472 -0.7212
 9815TIP3   OH229380   2.835   7.033   6.812 -0.2524  0.8562 -0.2856
 9815TIP3    H129381   2.790   6.980   6.746  0.9773 -0.1356 -0.3434
 9815TIP3    H229382   2.873   7.105   6.763 -1.0977  1.2638 -0.3508
 9816TIP3   OH229383   0.023   2.971   6.268 -0.0887  0.9882 -0.8792
 9816TIP3    H129384  -0.011   3.026   6.197  1.0186  1.2401 -1.2186
 9816TIP3    H229385   0.074   3.030   6.323  1.8364  0.1522 -1.7375
 9817TIP3   OH229386   4.206   1.271   4.346 -0.4754 -0.1098  0.4470
 9817TIP3    H129387   4.258   1.331   4.400 -0.9360  0.0129  0.7519
 9817TIP3    H229388   4.191   1.320   4.265 -0.3852 -0.0216  0.4826
 9818TIP3   OH229389   8.074   6.014   2.128  0.0986 -0.0032 -0.3011
 9818TIP3    H129390   8.015   5.970   2.067 -2.2618  0.0145  1.8823
 9818TIP3    H229391   8.089   5.950   2.198  0.9930  0.7359  0.2029
 9819TIP3   OH229392   6.428   6.421   0.137  0.2280  0.3240 -0.1238
 9819TIP3    H129393   6.374   6.478   0.082 -0.1200 -1.0256 -1.1912
 9819TIP3    H229394   6.400   6.441   0.226 -2.2385 -0.5713 -0.6698
 9820TIP3   OH229395   4.310   2.056   5.880 -0.3494  0.2681 -0.3618
 9820TIP3    H129396   4.337   2.044   5.789  1.3777  0.4470  0.0960
 9820TIP3    H229397   4.292   1.968   5.912  0.9107  0.0145 -0.3335
 9821TIP3   OH229398   0.772   6.948   2.051 -0.2743 -0.0961 -0.1680
 9821TIP3    H129399   0.696   6.939   2.109 -0.6162  1.2037 -0.4035
 9821TIP3    H229400   0.834   7.001   2.100  0.7490 -1.6730  0.2684
 9822TIP3   OH229401   6.224   2.003   5.768  0.2204  0.2172 -0.1738
 9822TIP3    H129402   6.219   2.045   5.854 -2.5459 -2.1277  0.8910
 9822TIP3    H229403   6.250   1.913   5.787  0.6955 -0.0195 -1.8960
 9823TIP3   OH229404   6.497   4.852   0.989  0.2084 -0.4261  0.7399
 9823TIP3    H129405   6.572   4.895   0.948  0.2936 -1.4626 -0.2231
 9823TIP3    H229406   6.535   4.783   1.043 -0.0463 -1.0079  0.1841
 9824TIP3   OH229407   4.462   0.942   6.207 -0.4640 -0.5847 -0.2052
 9824TIP3    H129408   4.544   0.982   6.180 -0.4867 -0.8313 -0.6412
 9824TIP3    H229409   4.444   0.876   6.140 -1.0896 -0.4383 -0.1814
 9825TIP3   OH229410   5.157   1.853   6.289 -0.4604  0.4713 -0.3053
 9825TIP3    H129411   5.093   1.839   6.219 -1.0570  0.4851  0.2342
 9825TIP3    H229412   5.135   1.787   6.355 -1.2805  1.8530  0.8310
 9826TIP3   OH229413   3.429   0.814   6.811 -0.0324  0.7458 -0.1845
 9826TIP3    H129414   3.407   0.773   6.728  0.3541  1.2740 -0.5470
 9826TIP3    H229415   3.397   0.752   6.877  0.2993 -0.0048 -0.7212
 9827TIP3   OH229416   1.263   6.317   2.490  0.3950 -0.1770 -0.0246
 9827TIP3    H129417   1.223   6.332   2.575  0.4307  0.3496 -0.1003
 9827TIP3    H229418   1.317   6.239   2.503 -1.3036 -1.3965 -0.1517
 9828TIP3   OH229419   1.820   7.475   3.368 -0.0119 -0.1217 -0.0784
 9828TIP3    H129420   1.848   7.563   3.346  0.7740 -0.1619  0.7572
 9828TIP3    H229421   1.760   7.487   3.442  0.4765 -0.3239  0.3536
 9829TIP3   OH229422   0.992   4.968   0.286 -0.5206  0.1059 -0.2553
 9829TIP3    H129423   0.954   4.880   0.292  2.1999 -0.9464  3.5068
 9829TIP3    H229424   1.057   4.962   0.216 -1.3579 -0.4775 -0.9834
 9830TIP3   OH229425   6.123   2.507   5.820  0.3269  0.1306  0.9057
 9830TIP3    H129426   6.151   2.556   5.897 -0.4756  2.6618 -0.3831
 9830TIP3    H229427   6.028   2.516   5.819  0.3720  0.5335 -0.6357
 9831TIP3   OH229428   4.798   1.216   4.841  0.3901 -0.2528  0.2029
 9831TIP3    H129429   4.887   1.200   4.812  0.6990 -1.5216  1.7479
 9831TIP3    H229430   4.750   1.136   4.816  0.5398 -1.1352  2.5833
 9832TIP3   OH229431   5.350   2.055   6.330 -0.4266  0.3571 -0.3434
 9832TIP3    H129432   5.429   2.002   6.333 -0.7622 -0.1258  0.0654
 9832TIP3    H229433   5.278   1.991   6.332 -0.8276  0.8084 -0.1467
 9833TIP3   OH229434   4.461   1.084   6.438 -0.3800 -0.0854 -0.6805
 9833TIP3    H129435   4.368   1.070   6.458 -0.2041  1.2349  1.1662
 9833TIP3    H229436   4.475   1.036   6.356 -1.9791 -2.7715  0.5333
 9834TIP3   OH229437   7.180   3.458   1.844  0.2100 -0.4131  0.5883
 9834TIP3    H129438   7.226   3.375   1.859  1.6839 -0.0098 -1.5803
 9834TIP3    H229439   7.111   3.436   1.781  0.1330 -0.1322  0.5756
 9835TIP3   OH229440   8.331   3.333   0.920 -0.3727  0.5030  0.8912
 9835TIP3    H129441   8.317   3.348   0.827 -0.8042  1.7376  1.1498
 9835TIP3    H229442   8.291   3.248   0.937 -0.6362  0.4539  0.0309
 9836TIP3   OH229443   0.417   4.406   0.037 -0.0741 -0.8125 -0.0479
 9836TIP3    H129444   0.403   4.339  -0.030  1.4599 -0.1673 -1.0627
 9836TIP3    H229445   0.506   4.391   0.068 -0.2423 -0.1684  0.7723
 9837TIP3   OH229446   0.299   6.000   1.532 -0.4188  0.1812 -0.3416
 9837TIP3    H129447   0.245   5.940   1.583 -0.4614  1.2551  0.9274
 9837TIP3    H229448   0.236   6.058   1.489 -0.3770 -0.6285 -1.5186
 9838TIP3   OH229449   0.137   4.418   0.736  0.0698 -0.9061  0.7870
 9838TIP3    H129450   0.125   4.440   0.829  1.0913 -0.8552  0.9114
 9838TIP3    H229451   0.065   4.358   0.716 -1.0096  0.2094  1.2321
 9839TIP3   OH229452   8.433   5.415   0.356  0.2969  0.2439  0.3459
 9839TIP3    H129453   8.403   5.375   0.274  0.8200  0.7623 -0.1077
 9839TIP3    H229454   8.527   5.426   0.344  0.2486  1.0757  0.6786
 9840TIP3   OH229455   3.601   2.328   3.981  0.5204  0.2807  0.0906
 9840TIP3    H129456   3.656   2.260   3.942  0.2073  0.5357 -0.8004
 9840TIP3    H229457   3.545   2.280   4.042  0.3399 -0.2657 -0.4870
 9841TIP3   OH229458   3.946   7.523   0.261  0.0850 -0.1347  0.1527
 9841TIP3    H129459   3.995   7.442   0.246 -0.7535 -1.0699  2.3903
 9841TIP3    H229460   3.862   7.509   0.219 -0.1112 -0.4743  0.6620
 9842TIP3   OH229461   1.742   3.349   5.922 -0.2662  0.4422 -0.5109
 9842TIP3    H129462   1.775   3.259   5.919  0.2043  0.5680  0.7478
 9842TIP3    H229463   1.648   3.340   5.907  0.1596 -0.0067 -3.1206
 9843TIP3   OH229464   4.216   1.768   5.978 -0.2369 -0.3290  0.4894
 9843TIP3    H129465   4.251   1.742   5.893 -1.5346  1.6078 -0.6648
 9843TIP3    H229466   4.123   1.746   5.973 -0.5971  1.0592  0.8692
 9844TIP3   OH229467   8.340   4.968   0.215 -0.3818 -0.0920  0.0869
 9844TIP3    H129468   8.413   5.022   0.186 -1.4755  0.8981 -0.8813
 9844TIP3    H229469   8.375   4.879   0.216  0.7340  0.3237 -0.7047
 9845TIP3   OH229470   5.254   1.621   6.078  0.2218 -0.0466  0.9726
 9845TIP3    H129471   5.183   1.677   6.045  1.2424 -0.1479 -1.4777
 9845TIP3    H229472   5.330   1.678   6.084  0.3296 -0.2962  2.1496
 9846TIP3   OH229473   4.768   2.404   4.120 -0.8417  0.6127  0.0416
 9846TIP3    H129474   4.733   2.320   4.089 -1.1039  0.8390 -0.2817
 9846TIP3    H229475   4.818   2.382   4.199 -2.3523  0.3723  0.9605
 9847TIP3   OH229476   0.706   7.943   0.362  0.0851  0.1979  0.0237
 9847TIP3    H129477   0.680   7.926   0.271  0.2174  1.9296 -0.3559
 9847TIP3    H229478   0.784   7.998   0.354 -0.0384  0.5431  1.1859
 9848TIP3   OH229479   7.194   2.580   6.271  0.4463  0.3289  0.7549
 9848TIP3    H129480   7.173   2.613   6.358  2.2518  0.5685  1.1262
 9848TIP3    H229481   7.241   2.498   6.288 -0.4984 -0.3889 -0.0432
 9849TIP3   OH229482   0.276   5.707   0.771 -0.1298  0.0573  0.5307
 9849TIP3    H129483   0.294   5.704   0.865 -2.7325  0.3075  1.0793
 9849TIP3    H229484   0.260   5.800   0.753 -0.5361 -0.1113  0.0169
 9850TIP3   OH229485   6.390   4.165   5.146 -0.4397  0.0885 -0.0576
 9850TIP3    H129486   6.387   4.259   5.164 -0.1168  0.3011 -1.0874
 9850TIP3    H229487   6.354   4.157   5.058  0.6433 -0.6263 -0.4356
 9851TIP3   OH229488   4.243   7.485   5.262  0.3613 -0.8828 -0.3812
 9851TIP3    H129489   4.262   7.563   5.315  1.2706 -2.2719  1.3700
 9851TIP3    H229490   4.309   7.485   5.193  0.9745 -0.6344  0.2029
 9852TIP3   OH229491   5.083   0.480   4.011  0.1355 -0.4977  0.0250
 9852TIP3    H129492   5.061   0.430   3.932  1.0411 -0.9484  0.0417
 9852TIP3    H229493   5.148   0.544   3.981  0.7976 -0.9519  0.4851
 9853TIP3   OH229494   6.226   1.575   6.221  0.1389  0.5214 -0.4426
 9853TIP3    H129495   6.270   1.657   6.198 -1.6599  1.4385 -0.7632
 9853TIP3    H229496   6.195   1.541   6.137 -2.1302  1.3261  0.0369
 9854TIP3   OH229497   8.181   5.856   1.138 -0.0079 -0.0144  0.1744
 9854TIP3    H129498   8.101   5.824   1.180 -0.2594  2.2575  1.5136
 9854TIP3    H229499   8.151   5.905   1.062  0.1425  0.5860  0.5057
 9855TIP3   OH229500   4.534   0.901   6.791  0.6610 -0.2034  0.3796
 9855TIP3    H129501   4.530   0.809   6.817  1.2352 -0.4518 -0.4110
 9855TIP3    H229502   4.462   0.913   6.731  1.8065 -0.6510 -1.1131
 9856TIP3   OH229503   4.424   1.806   6.532  0.1392  0.0553  0.0525
 9856TIP3    H129504   4.391   1.849   6.454  1.3622 -1.3482 -1.2674
 9856TIP3    H229505   4.515   1.836   6.540  0.5482 -1.1100 -0.0573
 9857TIP3   OH229506   3.270   7.487   6.828 -0.0998  0.2812 -0.0083
 9857TIP3    H129507   3.248   7.514   6.738 -1.2393 -0.4304  0.0431
 9857TIP3    H229508   3.306   7.566   6.869 -0.1026  0.7644 -0.9186
 9858TIP3   OH229509   3.765   7.269   6.815  0.0672 -0.4268  0.0748
 9858TIP3    H129510   3.834   7.231   6.868  0.3678  1.1614  0.8575
 9858TIP3    H229511   3.771   7.363   6.831 -0.7851 -0.0476 -1.6414
 9859TIP3   OH229512   7.087   2.244   6.657 -0.1610  0.0454 -0.0847
 9859TIP3    H129513   7.059   2.243   6.749 -0.7621 -0.9502 -0.2693
 9859TIP3    H229514   7.147   2.318   6.651  1.3101 -0.9916  1.5218
 9860TIP3   OH229515   1.993   7.677   6.513  0.1408  0.0753  0.4455
 9860TIP3    H129516   2.024   7.644   6.598  0.8927 -0.9233 -0.1996
 9860TIP3    H229517   2.010   7.605   6.452 -1.0982  0.4998 -0.4179
 9861TIP3   OH229518   8.478   5.676   0.266  0.0661  0.2067 -0.8277
 9861TIP3    H129519   8.435   5.611   0.321 -1.9187  0.1755 -2.3268
 9861TIP3    H229520   8.422   5.754   0.273  1.2632  1.0756 -0.7092
 9862TIP3   OH229521   2.675   7.838   6.246 -0.6318  0.1676  0.0269
 9862TIP3    H129522   2.636   7.839   6.334 -1.8510  2.0148 -0.5016
 9862TIP3    H229523   2.600   7.845   6.187  0.2310 -0.3702 -1.1349
 9863TIP3   OH229524   8.061   6.074   0.214  0.0010  0.1303 -0.1269
 9863TIP3    H129525   7.995   6.095   0.148 -0.4076  1.9694  0.8276
 9863TIP3    H229526   8.121   6.014   0.170 -1.7911 -0.8452 -1.3028
 9864TIP3   OH229527   1.776   1.824   5.466  0.2864  0.1773 -0.0264
 9864TIP3    H129528   1.722   1.902   5.448  1.1006  0.6498 -0.4381
 9864TIP3    H229529   1.734   1.784   5.542 -0.7423  0.4526 -0.4305
 9865TIP3   OH229530   7.530   4.472   1.803 -0.5887 -0.5684 -0.1177
 9865TIP3    H129531   7.438   4.473   1.777 -1.0793  0.0661  1.6167
 9865TIP3    H229532   7.529   4.470   1.898  1.2001 -1.2952 -0.0867
 9866TIP3   OH229533   5.784   3.957   6.312  0.5101 -0.1121  0.0013
 9866TIP3    H129534   5.695   3.983   6.290  1.1191  2.3350  0.2631
 9866TIP3    H229535   5.791   3.866   6.284 -1.3803  0.3381 -2.0201
 9867TIP3   OH229536   6.089   0.191   6.428  0.2096  0.4576  0.1073
 9867TIP3    H129537   6.122   0.204   6.339 -1.6931 -1.8588 -0.9975
 9867TIP3    H229538   5.999   0.161   6.416  0.3832 -1.2873  2.7451
 9868TIP3   OH229539   8.385   6.052   0.645 -0.1616  0.5459 -0.0455
 9868TIP3    H129540   8.391   6.073   0.552 -1.2076 -2.0629 -0.7399
 9868TIP3    H229541   8.323   6.116   0.680  1.1387  2.2970 -0.8602
 9869TIP3   OH229542   1.742   4.920   1.351  0.2317  0.3313  0.0551
 9869TIP3    H129543   1.777   5.003   1.385 -0.8779  0.4989  0.8057
 9869TIP3    H229544   1.654   4.942   1.321  1.1056  0.1529 -2.8183
 9870TIP3   OH229545   5.129   1.150   5.794 -0.2396  0.1656 -0.1278
 9870TIP3    H129546   5.110   1.241   5.773 -2.2633 -0.5219 -1.4843
 9870TIP3    H229547   5.091   1.137   5.881  0.3040  0.6885  0.1887
 9871TIP3   OH229548   0.848   5.106   0.512 -0.0096 -0.0319  0.3787
 9871TIP3    H129549   0.846   5.201   0.510  0.5508 -0.0356 -0.9085
 9871TIP3    H229550   0.932   5.083   0.471 -0.6162 -1.0957 -0.2907
 9872TIP3   OH229551   3.524   2.182   6.375  0.1782  0.5089  0.2923
 9872TIP3    H129552   3.613   2.171   6.409 -0.1290 -0.5159  0.7659
 9872TIP3    H229553   3.522   2.129   6.295 -0.5689 -0.9895  1.2884
 9873TIP3   OH229554   5.185   1.823   5.404  0.4671  0.0535 -0.0131
 9873TIP3    H129555   5.129   1.898   5.426 -1.3845 -1.2167 -0.2697
 9873TIP3    H229556   5.203   1.833   5.311 -1.5114 -0.9287 -0.5156
 9874TIP3   OH229557   8.027   3.258   1.925 -0.2803  0.4445  0.1019
 9874TIP3    H129558   7.978   3.326   1.970  2.2787  0.9291  2.2360
 9874TIP3    H229559   8.076   3.304   1.857 -0.1762  0.4352  0.1709
 9875TIP3   OH229560   4.489   1.489   4.922  0.1683 -0.0966  0.1634
 9875TIP3    H129561   4.490   1.580   4.893 -0.9787  0.1236  0.8143
 9875TIP3    H229562   4.526   1.441   4.848  0.8576  0.8994 -0.1551
 9876TIP3   OH229563   5.637   1.066   3.836 -0.5243 -0.1083  0.2060
 9876TIP3    H129564   5.558   1.012   3.834 -1.8478  1.7812 -1.0287
 9876TIP3    H229565   5.612   1.142   3.889  0.6717  0.2273  0.3059
 9877TIP3   OH229566   5.838   2.106   5.866  0.5077  0.4271 -0.7198
 9877TIP3    H129567   5.873   2.082   5.780 -0.8623 -0.1548 -1.1217
 9877TIP3    H229568   5.913   2.096   5.925  0.5212 -2.8969 -1.1964
 9878TIP3   OH229569   2.256   2.778   5.244 -0.2595 -0.5445 -0.0416
 9878TIP3    H129570   2.272   2.798   5.336  1.1722  0.7941 -0.5609
 9878TIP3    H229571   2.235   2.685   5.243 -0.8336 -0.4479  1.6989
 9879TIP3   OH229572   1.563   5.939   0.537 -0.4509 -0.0602 -0.5815
 9879TIP3    H129573   1.497   5.882   0.576  0.4484 -1.2923 -0.8214
 9879TIP3    H229574   1.643   5.920   0.586  0.3010 -0.4176 -1.9300
 9880TIP3   OH229575   0.308   0.387   5.776  0.2262  0.3656 -0.5850
 9880TIP3    H129576   0.231   0.435   5.808  0.3285 -0.5395  1.0668
 9880TIP3    H229577   0.330   0.327   5.847  1.3862 -0.6389 -1.7711
 9881TIP3   OH229578   6.581   0.470   5.127 -0.1420 -0.3762 -0.5915
 9881TIP3    H129579   6.560   0.550   5.174 -1.7533 -0.7524 -0.6299
 9881TIP3    H229580   6.534   0.401   5.174  2.3398 -1.5369  0.2874
 9882TIP3   OH229581   6.224   1.864   5.511  0.1146 -0.2317  0.1612
 9882TIP3    H129582   6.209   1.927   5.581  1.1212  0.2472 -0.0503
 9882TIP3    H229583   6.303   1.817   5.537  1.4057  1.0310 -1.4303
 9883TIP3   OH229584   7.479   4.297   4.682 -0.3028 -0.2377 -0.2364
 9883TIP3    H129585   7.563   4.256   4.704  0.0003 -1.0259 -2.7663
 9883TIP3    H229586   7.468   4.281   4.588 -2.7258  0.8947 -0.1762
 9884TIP3   OH229587   1.331   7.177   1.040 -0.4067 -0.2078 -0.2831
 9884TIP3    H129588   1.410   7.135   1.005  0.1929  0.2319  0.5307
 9884TIP3    H229589   1.259   7.141   0.987  0.3917 -0.1963 -1.3862
 9885TIP3   OH229590   5.302   1.420   4.603 -0.4854  0.2494  0.5835
 9885TIP3    H129591   5.224   1.366   4.586  0.0989 -0.3170 -0.2967
 9885TIP3    H229592   5.319   1.465   4.520  1.4464 -1.3320  0.0847
 9886TIP3   OH229593   0.504   6.115   1.653  0.0384  0.2159  0.2560
 9886TIP3    H129594   0.444   6.190   1.662  0.0235  0.3063 -0.5817
 9886TIP3    H229595   0.457   6.052   1.599  0.9592  0.5713 -0.9878
 9887TIP3   OH229596   0.727   5.377   0.389 -0.0332 -0.0377 -0.1765
 9887TIP3    H129597   0.794   5.360   0.323 -0.1680 -1.1648 -0.0433
 9887TIP3    H229598   0.775   5.407   0.466  0.2057  0.3962 -0.4952
 9888TIP3   OH229599   7.222   2.002   6.619  0.6366 -0.1936 -0.3823
 9888TIP3    H129600   7.177   2.083   6.642  1.4458  0.3864 -0.8017
 9888TIP3    H229601   7.302   2.031   6.575  0.2869 -1.2339 -1.7336
 9889TIP3   OH229602   5.069   7.626   5.878 -0.0406  0.7310 -0.8563
 9889TIP3    H129603   5.003   7.643   5.811  0.9168  1.1995 -1.6954
 9889TIP3    H229604   5.152   7.623   5.830  0.2430 -3.1857 -0.3358
 9890TIP3   OH229605   6.605   0.630   4.564  0.1358 -0.1169  0.0358
 9890TIP3    H129606   6.514   0.618   4.590  0.0293 -0.8957 -0.6489
 9890TIP3    H229607   6.656   0.604   4.642 -0.2374  1.2021  0.7232
 9891TIP3   OH229608   0.396   4.992   0.585  0.7086 -0.2197  0.2307
 9891TIP3    H129609   0.324   4.974   0.524 -1.0550  0.6907  2.0001
 9891TIP3    H229610   0.410   5.086   0.579  1.8482 -0.4151 -0.2019
 9892TIP3   OH229611   7.260   0.626   5.978  0.0396 -0.0520  0.0961
 9892TIP3    H129612   7.344   0.581   5.967  0.6719  1.4083 -1.1776
 9892TIP3    H229613   7.282   0.709   6.020 -1.1710 -1.0177  2.7801
 9893TIP3   OH229614   5.850   1.015   6.276  0.0205  0.7306 -0.1614
 9893TIP3    H129615   5.933   0.967   6.270  0.1567  0.8395  0.7520
 9893TIP3    H229616   5.817   0.995   6.363 -0.0090  2.1521  0.1579
 9894TIP3   OH229617   7.602   3.421   6.456 -0.2598 -0.3164  0.6327
 9894TIP3    H129618   7.568   3.331   6.451  2.0271 -1.3025  2.0218
 9894TIP3    H229619   7.571   3.453   6.541  0.8975 -0.6639  1.2015
 9895TIP3   OH229620   6.375   1.516   5.808  0.1310 -0.7206 -0.4443
 9895TIP3    H129621   6.439   1.446   5.822  0.4173 -0.2510  0.6417
 9895TIP3    H229622   6.295   1.470   5.783  0.0201 -1.5223  1.2892
 9896TIP3   OH229623   3.106   7.142   0.697  0.0616 -0.0175  0.4165
 9896TIP3    H129624   3.113   7.146   0.601 -0.1602 -0.9866  0.3563
 9896TIP3    H229625   3.180   7.195   0.728  0.1040  0.3456 -0.2906
 9897TIP3   OH229626   7.147   2.947   4.792 -0.3257 -0.2027  0.1449
 9897TIP3    H129627   7.178   3.037   4.796 -2.5201  0.5390  2.2036
 9897TIP3    H229628   7.066   2.952   4.741 -0.5657 -0.9575  0.4458
 9898TIP3   OH229629   6.427   2.074   5.565 -1.1942 -0.4283 -0.2450
 9898TIP3    H129630   6.381   2.066   5.649 -1.6481  0.2271 -0.4268
 9898TIP3    H229631   6.402   2.160   5.532  0.1041 -0.1023 -0.3941
 9899TIP3   OH229632   7.383   4.115   6.490  0.0339 -0.1544  1.0462
 9899TIP3    H129633   7.466   4.083   6.526  1.0656  2.7097  1.3651
 9899TIP3    H229634   7.406   4.142   6.401 -0.7166  0.0208  0.9061
 9900TIP3   OH229635   2.372   6.712   5.283 -0.8454 -0.4943  0.2444
 9900TIP3    H129636   2.439   6.773   5.313  1.5304 -2.7641 -0.2713
 9900TIP3    H229637   2.325   6.759   5.214  0.6858  0.8763  0.1179
 9901TIP3   OH229638   6.565   2.031   5.986 -0.3169  0.2232 -0.0825
 9901TIP3    H129639   6.590   1.941   5.963  1.6034  0.4225  1.0840
 9901TIP3    H229640   6.563   2.031   6.082  1.6294  1.9150 -0.0289
 9902TIP3   OH229641   6.893   1.769   5.739  0.0265  0.6580  0.1463
 9902TIP3    H129642   6.951   1.712   5.690  0.1899 -1.2475  2.4737
 9902TIP3    H229643   6.894   1.852   5.691  2.2299 -0.3111 -1.5431
 9903TIP3   OH229644   3.202   7.527   6.541 -0.2065  0.0233  0.5090
 9903TIP3    H129645   3.107   7.542   6.539 -0.3283 -0.6581  0.9128
 9903TIP3    H229646   3.216   7.455   6.480  0.3950  1.8678 -1.5791
 9904TIP3   OH229647   0.299   3.444   6.598 -0.1491 -0.0323 -0.2809
 9904TIP3    H129648   0.303   3.405   6.511 -0.7650 -2.1842  0.6311
 9904TIP3    H229649   0.371   3.507   6.599  0.0464 -0.1878 -2.2235
 9905TIP3   OH229650   7.618   0.861   4.808 -0.5412  0.0397  0.2024
 9905TIP3    H129651   7.673   0.908   4.744  0.1945 -0.6761  0.2954
 9905TIP3    H229652   7.625   0.769   4.781 -0.0879 -0.2860  1.4184
 9906TIP3   OH229653   5.538   2.866   6.138  0.1024 -0.0926 -0.1494
 9906TIP3    H129654   5.629   2.859   6.112  0.0274 -0.8326 -0.2214
 9906TIP3    H229655   5.536   2.830   6.227 -0.1258 -0.1216 -0.1662
 9907TIP3   OH229656   0.287   0.778   5.591 -0.2425 -0.2042 -0.0698
 9907TIP3    H129657   0.254   0.754   5.677  0.4406 -1.3735 -0.1220
 9907TIP3    H229658   0.306   0.871   5.597 -0.4244 -0.2349  0.9672
 9908TIP3   OH229659   1.840   5.970   0.120 -0.1028  0.2045 -0.3428
 9908TIP3    H129660   1.837   5.883   0.081  0.0693 -0.3200  0.8012
 9908TIP3    H229661   1.890   6.023   0.058 -3.0779  0.3660 -2.7250
 9909TIP3   OH229662   7.001   1.667   5.982 -0.5873  0.4499  0.2362
 9909TIP3    H129663   6.957   1.678   5.898  0.1462 -1.6683 -0.4700
 9909TIP3    H229664   6.957   1.728   6.041 -1.7149  1.3070 -1.4663
 9910TIP3   OH229665   2.967   6.941   0.360  0.3522 -0.4871  0.0785
 9910TIP3    H129666   2.872   6.941   0.357  0.2872  2.0978  0.7651
 9910TIP3    H229667   2.993   7.019   0.311  2.0011  0.1657  1.9135
 9911TIP3   OH229668   7.937   1.493   5.092 -0.3537  0.1013 -0.1446
 9911TIP3    H129669   7.885   1.540   5.157  1.1208  0.0893  1.0894
 9911TIP3    H229670   8.026   1.528   5.103 -0.1449  0.2875 -2.3555
 9912TIP3   OH229671   5.777   1.300   2.524  0.6935  0.0008  0.3168
 9912TIP3    H129672   5.819   1.374   2.569 -0.2226  0.8231 -0.1431
 9912TIP3    H229673   5.740   1.247   2.595  0.6923  0.4052  0.6212
 9913TIP3   OH229674   4.677   2.578   6.559  0.4405 -0.0709  0.1070
 9913TIP3    H129675   4.652   2.572   6.466 -0.1368 -0.3470  0.2789
 9913TIP3    H229676   4.771   2.557   6.560  0.3414 -0.5535 -0.3569
 9914TIP3   OH229677   2.032   6.681   0.120 -0.0733 -0.3664 -0.5492
 9914TIP3    H129678   2.056   6.630   0.043 -0.5535 -0.9800 -0.2987
 9914TIP3    H229679   2.105   6.742   0.131  0.5961 -1.0991 -0.7623
 9915TIP3   OH229680   2.839   4.524   2.388  0.1919  0.3978  0.6447
 9915TIP3    H129681   2.853   4.445   2.335 -1.2256  1.3222 -1.1708
 9915TIP3    H229682   2.898   4.513   2.463  2.6096 -0.7679 -1.3230
 9916TIP3   OH229683   2.844   7.046   6.470 -0.0961 -0.0171 -0.3079
 9916TIP3    H129684   2.763   7.098   6.472 -0.3379 -0.4227  0.6455
 9916TIP3    H229685   2.889   7.075   6.391  0.4321  2.6904  0.9068
 9917TIP3   OH229686   7.783   3.340   6.112 -0.1523 -0.3908  0.4896
 9917TIP3    H129687   7.690   3.361   6.101 -0.1630  0.2619  1.7758
 9917TIP3    H229688   7.813   3.319   6.024 -0.8414  2.2189 -0.4210
 9918TIP3   OH229689   0.102   6.849   0.349  0.3075  0.0419 -0.0593
 9918TIP3    H129690   0.061   6.768   0.318 -0.9258 -0.3827  2.5658
 9918TIP3    H229691   0.097   6.909   0.274  1.2783 -2.3031 -2.0406
 9919TIP3   OH229692   7.089   3.677   6.786 -0.0967 -0.1532  0.0856
 9919TIP3    H129693   7.022   3.650   6.724 -0.6421 -0.2066  0.6919
 9919TIP3    H229694   7.058   3.760   6.821 -0.6616 -0.9787  1.5770
 9920TIP3   OH229695   7.419   1.309   6.617 -0.1116 -0.4521 -0.0437
 9920TIP3    H129696   7.368   1.327   6.538 -0.9749 -0.1721  0.5679
 9920TIP3    H229697   7.507   1.344   6.598 -0.8644  1.4523 -0.1218
 9921TIP3   OH229698   1.648   6.032   0.858 -0.3314  0.1028  0.2977
 9921TIP3    H129699   1.700   6.008   0.781 -2.6341 -1.7186 -0.7687
 9921TIP3    H229700   1.708   6.082   0.913  1.9124 -0.1487 -1.8290
 9922TIP3   OH229701   7.513   2.397   5.633  0.8203 -0.3060  0.4591
 9922TIP3    H129702   7.567   2.398   5.712  1.2438  1.3035  0.1631
 9922TIP3    H229703   7.533   2.480   5.589 -0.7115 -0.4030 -0.4571
 9923TIP3   OH229704   0.481   6.052   0.497  0.2159  0.0338 -0.1428
 9923TIP3    H129705   0.525   6.107   0.432  0.4725 -1.2423 -1.0596
 9923TIP3    H229706   0.423   5.996   0.446 -0.4453 -0.1841  0.8361
 9924TIP3   OH229707   7.505   1.865   5.273 -0.4448  0.3097  0.4189
 9924TIP3    H129708   7.580   1.846   5.216 -3.2052 -1.0801 -2.8767
 9924TIP3    H229709   7.522   1.954   5.305  2.8294 -0.1534  0.1839
 9925TIP3   OH229710   7.553   1.974   5.879  0.3213 -0.1856  0.3153
 9925TIP3    H129711   7.569   2.067   5.895  0.2440 -0.2880  1.0048
 9925TIP3    H229712   7.470   1.972   5.832 -0.4395  0.0076  1.6262
 9926TIP3   OH229713   7.042   1.704   6.566 -0.1257 -0.1701 -0.4187
 9926TIP3    H129714   7.114   1.767   6.569 -0.3649  0.1151 -0.6533
 9926TIP3    H229715   6.964   1.755   6.588 -0.3979 -0.2642 -1.1622
 9927TIP3   OH229716   4.385   6.330   5.506  0.8921 -0.1752  0.0712
 9927TIP3    H129717   4.387   6.235   5.492 -1.0116 -0.0091 -1.6693
 9927TIP3    H229718   4.407   6.367   5.420 -0.4642  0.9470  0.1881
 9928TIP3   OH229719   5.330   7.875   6.874  0.4617 -0.0729 -0.3280
 9928TIP3    H129720   5.364   7.949   6.824 -0.2503 -0.0905 -0.8541
 9928TIP3    H229721   5.237   7.870   6.848 -0.1065  0.3797  1.5588
 9929TIP3   OH229722   5.607   5.995   6.783  0.1512 -0.1633 -0.0142
 9929TIP3    H129723   5.584   5.917   6.833  0.7840  0.4195  1.2007
 9929TIP3    H229724   5.675   5.966   6.723 -1.4182 -1.1384 -1.3764
 9930TIP3   OH229725   2.049   5.911   0.846 -0.0032  0.2393 -0.0956
 9930TIP3    H129726   1.981   5.868   0.898  0.5062  0.5081  0.8036
 9930TIP3    H229727   2.074   5.845   0.782 -0.2765 -0.2901  0.3336
 9931TIP3   OH229728   7.231   1.884   5.320  0.1093 -0.3446 -0.4415
 9931TIP3    H129729   7.315   1.890   5.276  1.1387 -1.5188  1.3383
 9931TIP3    H229730   7.193   1.802   5.289  0.1257 -0.3901 -0.3397
 9932TIP3   OH229731   2.042   4.518   0.545 -0.7429 -0.8368  0.2612
 9932TIP3    H129732   2.064   4.478   0.630  0.3485  2.8828  1.7906
 9932TIP3    H229733   1.983   4.590   0.568  0.9006  1.2529 -1.9875
 9933TIP3   OH229734   4.142   6.455   6.738 -0.3383 -0.0839  0.3278
 9933TIP3    H129735   4.167   6.522   6.675  1.3560  0.3316  1.4014
 9933TIP3    H229736   4.193   6.378   6.712 -1.0448 -0.4683  0.0765
 9934TIP3   OH229737   6.539   0.060   5.990 -0.1680  0.2201 -0.1824
 9934TIP3    H129738   6.622   0.079   6.032  0.5071  1.0447 -1.8351
 9934TIP3    H229739   6.548   0.097   5.902 -2.2688  0.2898 -0.3846
 9935TIP3   OH229740   5.502   0.261   5.407 -0.0661 -0.0699  0.2201
 9935TIP3    H129741   5.568   0.268   5.338 -1.3650 -0.2752 -1.0775
 9935TIP3    H229742   5.445   0.337   5.393 -1.9780 -1.6204 -0.7288
 9936TIP3   OH229743   8.522   0.766   6.186  0.6184 -0.8071 -0.3717
 9936TIP3    H129744   8.480   0.815   6.116  0.6140  0.8104  0.7132
 9936TIP3    H229745   8.470   0.687   6.195 -0.5330 -0.1208 -0.9007
 9937TIP3   OH229746   6.123   1.484   5.471 -0.0047  0.2218 -0.1852
 9937TIP3    H129747   6.146   1.424   5.399 -0.4433 -0.3426  0.1395
 9937TIP3    H229748   6.124   1.571   5.431 -1.1113 -0.1637 -1.1017
 9938TIP3   OH229749   3.161   6.832   0.513 -0.0398 -0.1690  0.6813
 9938TIP3    H129750   3.110   6.867   0.440 -0.1232  1.1605  1.3741
 9938TIP3    H229751   3.099   6.776   0.561 -0.3526  0.0168  0.4973
 9939TIP3   OH229752   4.190   0.892   4.665 -0.1940  0.0980 -0.3898
 9939TIP3    H129753   4.140   0.941   4.600 -1.0523  0.6048  0.6360
 9939TIP3    H229754   4.224   0.959   4.725 -0.5266 -0.4654  0.4422
 9940TIP3   OH229755   3.996   6.101   5.922  0.3696 -0.0400 -0.1306
 9940TIP3    H129756   3.956   6.047   5.990  0.8783 -0.3422 -0.0682
 9940TIP3    H229757   4.081   6.125   5.958 -0.1141  1.3329  0.1062
 9941TIP3   OH229758   2.832   6.262   0.967  0.2966  0.3210  0.0166
 9941TIP3    H129759   2.816   6.285   1.059  1.1924  2.0275 -0.2343
 9941TIP3    H229760   2.795   6.335   0.917  2.4074  0.8529 -0.8402
 9942TIP3   OH229761   0.633   6.656   0.149  0.2489  0.5976  0.0573
 9942TIP3    H129762   0.644   6.694   0.062  0.9466 -0.8090 -0.4820
 9942TIP3    H229763   0.621   6.562   0.132 -1.2385  0.5443  1.3696
 9943TIP3   OH229764   0.797   3.901   5.964  0.0810 -0.0953 -0.4907
 9943TIP3    H129765   0.828   3.947   6.042 -1.6335 -1.4516  1.0296
 9943TIP3    H229766   0.831   3.812   5.973 -0.2765 -0.3088 -1.1926
 9944TIP3   OH229767   6.843   0.076   3.664 -0.0949  0.4771 -0.2650
 9944TIP3    H129768   6.818   0.126   3.586 -2.1898  0.1241  0.1549
 9944TIP3    H229769   6.789  -0.003   3.660 -0.2233  0.4623  1.5505
 9945TIP3   OH229770   7.044   0.461   6.057  0.1365  0.0751 -0.0773
 9945TIP3    H129771   7.111   0.528   6.042 -1.0169  1.7176  1.9627
 9945TIP3    H229772   7.081   0.406   6.126 -0.1070  0.2887  0.2252
 9946TIP3   OH229773   7.358   1.003   5.412  0.0302  0.6468 -0.0162
 9946TIP3    H129774   7.452   1.007   5.395 -0.0890  0.7773 -0.6832
 9946TIP3    H229775   7.323   0.952   5.339 -0.2130 -0.8340  1.1083
 9947TIP3   OH229776   2.042   2.405   4.480 -0.4011  0.4338 -0.5161
 9947TIP3    H129777   2.117   2.412   4.540 -0.6836 -0.7946  0.0014
 9947TIP3    H229778   1.966   2.409   4.537 -0.6798 -0.3854 -0.8248
 9948TIP3   OH229779   7.431   2.523   5.911 -0.6651  0.1434 -0.4016
 9948TIP3    H129780   7.411   2.462   5.840 -3.2462  1.6534 -1.0054
 9948TIP3    H229781   7.447   2.606   5.867  1.4477  0.2679  0.5361
 9949TIP3   OH229782   6.092   0.059   6.656 -0.0466 -0.2001  0.1547
 9949TIP3    H129783   6.087  -0.037   6.652 -1.0704 -0.1589  0.3260
 9949TIP3    H229784   6.119   0.085   6.568  1.3109 -0.7040  0.4077
 9950TIP3   OH229785   0.228   3.061   6.761 -0.0068 -0.2476 -0.0111
 9950TIP3    H129786   0.194   3.151   6.763 -0.5244 -0.3361 -2.4890
 9950TIP3    H229787   0.153   3.007   6.786  0.3311 -0.0097  1.5760
 9951TIP3   OH229788   4.086   7.842   0.754  0.6886  0.0988 -0.8410
 9951TIP3    H129789   4.070   7.838   0.849 -0.9605 -1.2105 -1.1587
 9951TIP3    H229790   4.180   7.858   0.747  0.4553  2.6843  1.0419
 9952TIP3   OH229791   8.434   1.509   4.691  0.3649  0.3562 -0.2572
 9952TIP3    H129792   8.346   1.538   4.669 -0.3638  0.0810  2.1819
 9952TIP3    H229793   8.455   1.443   4.625 -1.9917 -0.9305  0.2263
 9953TIP3   OH229794   0.276   0.878   6.743 -0.3510  0.1840 -0.2783
 9953TIP3    H129795   0.370   0.893   6.729 -0.4102 -1.4074 -2.6985
 9953TIP3    H229796   0.256   0.927   6.823  2.4491  0.8782  0.0721
 9954TIP3   OH229797   6.760   3.041   5.090  0.1556  0.3985  0.1868
 9954TIP3    H129798   6.762   3.128   5.129  0.4982  0.4214  0.1186
 9954TIP3    H229799   6.687   2.997   5.133  0.0852  0.6639  0.3391
 9955TIP3   OH229800   4.669   1.000   4.717  0.1590 -0.1694  0.3145
 9955TIP3    H129801   4.661   0.946   4.796 -1.6758 -0.6701 -0.1888
 9955TIP3    H229802   4.600   0.968   4.659  2.1009 -0.4871 -1.9065
 9956TIP3   OH229803   1.249   4.012   0.140  0.1263  0.3365 -0.0698
 9956TIP3    H129804   1.201   3.969   0.069 -2.7825  0.1502  1.8895
 9956TIP3    H229805   1.313   3.946   0.169 -0.0718 -0.3442 -1.1493
 9957TIP3   OH229806   4.421   0.665   6.071 -0.3199  0.0245 -0.2064
 9957TIP3    H129807   4.487   0.599   6.050 -2.7605 -2.4245 -0.3336
 9957TIP3    H229808   4.352   0.651   6.007 -1.8843  1.2400  1.1831
 9958TIP3   OH229809   6.590   2.990   6.159  0.2554 -0.4170  0.0829
 9958TIP3    H129810   6.620   2.978   6.069 -0.2055 -0.7609 -0.0223
 9958TIP3    H229811   6.647   2.933   6.211  1.4112  0.7811  0.1792
 9959TIP3   OH229812   7.962   1.524   5.765 -0.1705  0.2410  0.3992
 9959TIP3    H129813   7.967   1.445   5.820 -0.9596  1.0922  1.7145
 9959TIP3    H229814   8.040   1.519   5.710 -0.6530 -1.9170 -0.1720
 9960TIP3   OH229815   0.141   1.740   5.293 -0.7256 -0.3356  0.4123
 9960TIP3    H129816   0.226   1.732   5.336 -1.2469  0.4699  1.6206
 9960TIP3    H229817   0.107   1.650   5.290  0.7652 -0.8549 -1.3419
 9961TIP3   OH229818   7.428   1.872   6.320  0.2302 -1.0869  1.0437
 9961TIP3    H129819   7.486   1.857   6.245 -0.2713 -0.3197  0.4931
 9961TIP3    H229820   7.420   1.786   6.362  3.3586 -0.8067  2.3224
 9962TIP3   OH229821   6.090   0.978   4.944  0.1592 -0.5026  0.6651
 9962TIP3    H129822   6.147   0.981   4.867 -0.8354  1.4125 -0.0240
 9962TIP3    H229823   6.067   0.886   4.952 -2.0025 -0.3801 -3.0830
 9963TIP3   OH229824   0.996   6.985   0.319  0.1315 -0.8656 -0.5997
 9963TIP3    H129825   1.046   6.966   0.239  2.8005 -2.0888  1.2735
 9963TIP3    H229826   0.992   6.900   0.364  0.2608  0.1814  1.4169
 9964TIP3   OH229827   5.076   7.253   6.891  0.1222  0.6659  0.0593
 9964TIP3    H129828   5.126   7.283   6.967  0.0899  2.9710 -0.7747
 9964TIP3    H229829   5.137   7.262   6.818 -1.2929  3.0698 -0.9018
 9965TIP3   OH229830   1.395   6.155   0.832  0.4050  0.1390  0.6240
 9965TIP3    H129831   1.326   6.094   0.805 -0.0281  0.0720  1.8407
 9965TIP3    H229832   1.461   6.099   0.873  0.2385  0.4218  1.2901
 9966TIP3   OH229833   5.718   1.711   4.486  0.0386 -0.3380 -0.3528
 9966TIP3    H129834   5.645   1.772   4.501 -0.0714 -0.6666  0.4857
 9966TIP3    H229835   5.747   1.687   4.574  1.0217 -0.3812 -0.6900
 9967TIP3   OH229836   3.812   7.374   4.975  0.0737 -0.0432  0.3767
 9967TIP3    H129837   3.882   7.417   4.926 -1.5080  0.9609 -1.0490
 9967TIP3    H229838   3.783   7.302   4.919 -0.7884  0.2306  0.4640
 9968TIP3   OH229839   4.081   7.839   6.435 -0.3249  0.4430 -0.0044
 9968TIP3    H129840   3.999   7.862   6.391 -1.1623 -1.1029  0.6859
 9968TIP3    H229841   4.111   7.920   6.474 -3.2286  0.4270  2.4232
 9969TIP3   OH229842   7.011   4.052   5.275  0.4514  0.6234 -0.1706
 9969TIP3    H129843   7.015   4.077   5.183 -0.2068  1.8031  0.1023
 9969TIP3    H229844   7.011   4.136   5.322  1.8367  0.0146  0.9460
 9970TIP3   OH229845   5.054   7.805   6.134  0.1720  0.4686  0.4299
 9970TIP3    H129846   5.040   7.780   6.043 -0.0986  1.3287  0.2315
 9970TIP3    H229847   4.986   7.871   6.151  0.3171  0.4172  1.2060
 9971TIP3   OH229848   5.712   0.876   5.860  0.2318  0.0275 -0.0864
 9971TIP3    H129849   5.801   0.869   5.825 -0.2512 -2.4639 -0.9428
 9971TIP3    H229850   5.655   0.860   5.785 -0.9834  2.1287  0.3406
 9972TIP3   OH229851   6.820   0.196   4.289  0.0664  0.3881 -0.1219
 9972TIP3    H129852   6.895   0.143   4.316  1.7855  0.1058 -4.8550
 9972TIP3    H229853   6.860   0.277   4.256 -1.9163  1.2401 -0.4760
 9973TIP3   OH229854   0.852   3.642   6.042 -0.4104  0.2410 -0.0827
 9973TIP3    H129855   0.921   3.600   6.094  0.5482  0.6320 -0.9985
 9973TIP3    H229856   0.773   3.633   6.094  0.1090 -1.2454  0.4770
 9974TIP3   OH229857   7.792   3.726   6.664  0.4639  0.1695 -0.7996
 9974TIP3    H129858   7.861   3.742   6.598 -0.6084 -3.2235 -2.8624
 9974TIP3    H229859   7.836   3.677   6.733  0.4203 -0.9445 -1.5504
 9975TIP3   OH229860   5.473   2.891   4.068 -0.3096  0.6435 -0.6871
 9975TIP3    H129861   5.523   2.810   4.063  0.6051  1.2680 -1.6522
 9975TIP3    H229862   5.386   2.868   4.035  0.2125  0.2689 -1.8220
 9976TIP3   OH229863   2.478   6.684   0.225  0.0444  0.0304 -0.8260
 9976TIP3    H129864   2.428   6.661   0.303 -0.0438 -1.5945 -1.3433
 9976TIP3    H229865   2.569   6.687   0.254 -0.0045 -0.4396 -0.6245
 9977TIP3   OH229866   7.519   2.932   5.226 -0.2082 -0.1859 -0.1368
 9977TIP3    H129867   7.526   3.017   5.182  1.3906 -0.6680 -0.8491
 9977TIP3    H229868   7.446   2.943   5.287  0.7236  2.1126  0.6473
 9978TIP3   OH229869   1.879   4.357   0.075 -0.0395  0.3797 -0.3116
 9978TIP3    H129870   1.803   4.307   0.106  0.0569 -0.9320 -2.1213
 9978TIP3    H229871   1.953   4.320   0.124 -0.0616 -0.8662 -1.1812
 9979TIP3   OH229872   2.462   5.705  -0.011 -0.3170  0.3251  0.0447
 9979TIP3    H129873   2.444   5.715   0.083 -0.9753  0.2380 -0.0689
 9979TIP3    H229874   2.527   5.635  -0.015  0.8718  1.3875  0.5386
 9980TIP3   OH229875   8.339   6.157   0.241 -0.1797 -0.3310  0.5968
 9980TIP3    H129876   8.326   6.068   0.272  0.0700 -0.2137  1.0541
 9980TIP3    H229877   8.366   6.206   0.319 -2.7641  0.6986  0.8892
 9981TIP3   OH229878   1.884   5.072   0.215  0.6147 -0.3177 -0.4488
 9981TIP3    H129879   1.829   4.995   0.199  0.8858 -0.5067 -0.4933
 9981TIP3    H229880   1.865   5.097   0.305  0.3595 -0.3012 -0.5064
 9982TIP3   OH229881   5.291   1.001   6.804 -0.0484 -0.3704  0.2326
 9982TIP3    H129882   5.307   0.915   6.845  1.1805  0.1818  0.9500
 9982TIP3    H229883   5.245   0.980   6.723  1.6171 -1.8357 -0.3757
 9983TIP3   OH229884   7.771   1.030   6.635 -0.4915 -0.0694 -0.3753
 9983TIP3    H129885   7.836   0.999   6.699 -2.9261 -0.9369  1.7319
 9983TIP3    H229886   7.823   1.049   6.557  2.2859 -0.9554  1.1631
 9984TIP3   OH229887   0.483   2.967   6.899 -0.2622  1.1161 -0.3608
 9984TIP3    H129888   0.498   3.021   6.977  1.2285  0.6554 -0.2992
 9984TIP3    H229889   0.552   2.900   6.904 -1.1464  0.1381 -1.2416
 9985TIP3   OH229890   4.593   7.984   4.722 -0.1028 -0.8780 -0.0886
 9985TIP3    H129891   4.687   7.984   4.705  0.1848  0.3738  1.3391
 9985TIP3    H229892   4.563   8.068   4.686 -0.9468 -1.9279 -1.8807
 9986TIP3   OH229893   5.438   1.900   4.215  0.8503 -0.0893  0.0779
 9986TIP3    H129894   5.455   1.809   4.239 -2.1834 -1.3040 -2.1262
 9986TIP3    H229895   5.384   1.935   4.286 -1.2150 -1.2015 -0.9142
 9987TIP3   OH229896   2.693   5.952   0.233 -0.7094 -0.2296  0.4037
 9987TIP3    H129897   2.603   5.978   0.218 -0.3673  1.6525  1.4471
 9987TIP3    H229898   2.689   5.894   0.310 -0.9742  0.3392  0.8219
 9988TIP3   OH229899   5.453   7.826   6.446  0.0813  0.0566 -0.4344
 9988TIP3    H129900   5.416   7.819   6.358  0.3049  0.7874 -0.5923
 9988TIP3    H229901   5.408   7.758   6.497 -0.2717 -0.1606 -1.0360
 9989TIP3   OH229902   8.459   3.079   0.139 -0.0440  0.0162  0.3408
 9989TIP3    H129903   8.367   3.059   0.122  0.1580 -1.0932  0.5317
 9989TIP3    H229904   8.507   3.031   0.072  0.3878  0.8886  0.0119
 9990TIP3   OH229905   7.934   2.041   6.650 -0.3670 -0.5088 -0.3131
 9990TIP3    H129906   7.978   2.096   6.715 -3.4977 -0.3465  1.7861
 9990TIP3    H229907   7.967   2.071   6.566  0.5310  2.2762  0.9784
 9991TIP3   OH229908   0.583   0.553   6.295 -0.0972  0.2911  0.0957
 9991TIP3    H129909   0.604   0.460   6.291  2.5694  0.8313  0.6728
 9991TIP3    H229910   0.582   0.573   6.389 -2.6928  0.4347  0.0698
 9992TIP3   OH229911   1.590   5.384   0.892  0.3638 -0.8456  0.8825
 9992TIP3    H129912   1.524   5.373   0.823  0.8133 -0.9945  0.4774
 9992TIP3    H229913   1.658   5.437   0.852  0.0992  0.0375  1.5729
 9993TIP3   OH229914   5.851   2.903   6.451 -0.4634 -0.2835 -0.1552
 9993TIP3    H129915   5.833   2.901   6.545  0.6332  1.7749  0.1192
 9993TIP3    H229916   5.801   2.978   6.418  0.2127 -0.1890 -0.9823
 9994TIP3   OH229917   6.446   0.763   5.186 -0.5531 -0.1439  0.0746
 9994TIP3    H129918   6.498   0.843   5.193 -2.1426  1.0022 -0.9371
 9994TIP3    H229919   6.447   0.742   5.093 -0.5283 -1.0526  0.2741
 9995TIP3   OH229920   7.378   2.906   6.032 -0.0307  0.0205 -0.0142
 9995TIP3    H129921   7.293   2.892   6.074 -0.5255 -0.2757 -1.0949
 9995TIP3    H229922   7.377   2.998   6.006  0.2611  0.1940  0.5772
 9996TIP3   OH229923   4.948   3.078   5.602 -0.6456 -0.0665  0.1909
 9996TIP3    H129924   4.877   3.141   5.616 -2.0151 -1.3095 -0.9871
 9996TIP3    H229925   4.906   3.003   5.559  1.4968 -0.5698 -1.1105
 9997TIP3   OH229926   7.326   5.018   6.723 -0.0630 -0.1876  0.2408
 9997TIP3    H129927   7.299   5.102   6.760 -0.2069 -0.1460  0.0428
 9997TIP3    H229928   7.321   5.031   6.628  1.5106  0.0955  0.1875
 9998TIP3   OH229929   0.338   5.409   6.266 -0.4294 -0.3105  0.4726
 9998TIP3    H129930   0.318   5.318   6.289  0.7138 -0.2812  1.6191
 9998TIP3    H229931   0.305   5.460   6.341  0.0250  0.1142  0.3829
 9999TIP3   OH229932   8.072   2.742   6.624  0.1855 -0.3362 -0.5024
 9999TIP3    H129933   8.018   2.802   6.675  1.0003 -0.6280  0.7212
 9999TIP3    H229934   8.032   2.742   6.537 -1.8566 -0.6346  0.3992
10000TIP3   OH229935   7.892   1.783   5.692 -0.4249 -0.1338 -0.6687
10000TIP3    H129936   7.930   1.699   5.716  1.6755  0.2765 -2.3724
10000TIP3    H229937   7.804   1.762   5.660 -0.9695 -1.3318  1.5151
10001TIP3   OH229938   3.516   6.826   0.049 -0.1143  0.5365 -0.2006
10001TIP3    H129939   3.608   6.832   0.074  0.1879 -0.1644 -1.1435
10001TIP3    H229940   3.496   6.733   0.054 -0.3707  0.5293 -1.4414
10002TIP3   OH229941   7.860   0.103   6.306  0.1697 -0.4146 -0.2008
10002TIP3    H129942   7.784   0.045   6.300 -0.0197 -0.2455  0.6055
10002TIP3    H229943   7.883   0.104   6.399 -0.1360  1.2144 -0.1378
10003TIP3   OH229944   8.214   2.931   5.685  0.1141 -0.0953 -0.0019
10003TIP3    H129945   8.197   2.859   5.624 -1.3197  0.8918 -0.7786
10003TIP3    H229946   8.137   2.935   5.740  0.4829  0.4325  0.4789
10004TIP3   OH229947   2.156   7.287   0.017  0.1151 -0.9795 -0.6649
10004TIP3    H129948   2.112   7.281  -0.068 -1.8317  2.7575 -0.0050
10004TIP3    H229949   2.094   7.248   0.079 -0.6655  0.8242 -0.2830
10005TIP3   OH229950   4.481   1.952   6.204 -0.2233  0.1198  0.2307
10005TIP3    H129951   4.560   1.959   6.257 -0.4583  0.3803  0.5488
10005TIP3    H229952   4.478   2.033   6.154 -0.1153 -0.0333 -0.0238
10006TIP3   OH229953   6.803   0.269   0.345 -0.0361  0.3691  0.1747
10006TIP3    H129954   6.829   0.180   0.368  2.5005  0.9233 -0.4264
10006TIP3    H229955   6.807   0.317   0.428 -1.4601 -0.0734  0.5090
10007TIP3   OH229956   5.562   7.984   5.610  0.6412 -0.6366 -0.6546
10007TIP3    H129957   5.500   7.921   5.575  0.7343 -1.0634 -0.0611
10007TIP3    H229958   5.631   7.931   5.650  0.5602 -0.1729  0.1207
10008TIP3   OH229959   0.303   2.713   0.073 -0.6208 -0.6798 -0.4926
10008TIP3    H129960   0.379   2.705   0.131 -0.6264  0.4915 -0.3131
10008TIP3    H229961   0.309   2.802   0.038 -1.5296 -0.8210 -1.0138
10009TIP3   OH229962   0.887   4.782   0.472 -0.2296 -0.0462 -0.2961
10009TIP3    H129963   0.838   4.863   0.486 -0.6874 -0.2065 -0.9393
10009TIP3    H229964   0.944   4.775   0.549  0.2077  1.1667 -0.5047
10010TIP3   OH229965   8.232   3.613   4.662  0.2557  0.4725  0.4074
10010TIP3    H129966   8.289   3.588   4.589  1.0170  1.5383  0.6210
10010TIP3    H229967   8.284   3.674   4.713 -0.5292  0.2596  1.4725
10011TIP3   OH229968   1.213   6.195   0.360 -0.1232 -0.1046  0.3732
10011TIP3    H129969   1.233   6.101   0.367  1.2679  0.1397 -0.0731
10011TIP3    H229970   1.299   6.236   0.347 -0.8841  1.0631 -1.1033
10012TIP3   OH229971   6.841   2.714   4.997  0.2427 -0.1015 -0.0327
10012TIP3    H129972   6.821   2.659   5.073  2.9334 -1.2770 -0.1009
10012TIP3    H229973   6.894   2.786   5.034  1.1312 -0.4054 -0.6986
10013TIP3   OH229974   6.457   0.350   0.934 -0.1837  0.5042  0.4375
10013TIP3    H129975   6.524   0.394   0.987 -0.5625  2.0710 -0.3836
10013TIP3    H229976   6.401   0.420   0.902 -1.4742 -0.6809  0.0450
10014TIP3   OH229977   5.785   7.435   5.342 -0.3510  0.2643  0.0168
10014TIP3    H129978   5.817   7.398   5.424  0.0470 -2.4399 -1.2990
10014TIP3    H229979   5.840   7.395   5.274 -3.6447 -1.1925 -1.9414
10015TIP3   OH229980   8.321   4.936   6.698  0.8476  0.9664  0.1153
10015TIP3    H129981   8.407   4.957   6.734  1.4942 -0.9675 -0.2115
10015TIP3    H229982   8.303   4.847   6.729  0.3643  0.1622 -2.3420
10016TIP3   OH229983   2.926   6.445   0.329 -0.1615 -0.2909  0.3673
10016TIP3    H129984   2.955   6.440   0.420 -2.3283  0.8803  1.1478
10016TIP3    H229985   2.930   6.355   0.297  1.6041 -0.5666  1.2776
10017TIP3   OH229986   1.063   5.505   2.023  0.0328 -0.1933 -0.0056
10017TIP3    H129987   1.062   5.486   2.117  1.0894  0.2782  0.1010
10017TIP3    H229988   0.973   5.488   1.995 -0.0295 -1.3697  0.8772
10018TIP3   OH229989   3.326   0.595   0.362  0.2480 -0.3140  0.4998
10018TIP3    H129990   3.315   0.579   0.269 -0.5669 -0.5219  0.6244
10018TIP3    H229991   3.245   0.561   0.402 -0.0114  1.0204  1.1364
10019TIP3   OH229992   6.000   0.898   5.428 -0.0025  0.0677 -0.4602
10019TIP3    H129993   5.954   0.844   5.365 -3.5688  1.0415  1.1668
10019TIP3    H229994   6.090   0.866   5.426 -1.3384 -3.9426 -1.6366
10020TIP3   OH229995   8.321   1.110   6.095 -0.1568  0.0548  0.4267
10020TIP3    H129996   8.317   1.019   6.065 -1.7191  0.1172  0.4167
10020TIP3    H229997   8.239   1.149   6.065  0.6474  1.5723  0.1330
10021TIP3   OH229998   5.521   1.599   3.969  0.5219  0.1680 -0.5480
10021TIP3    H129999   5.519   1.581   4.063 -0.3756 -0.8188 -0.7554
10021TIP3    H230000   5.594   1.660   3.959  1.4172 -0.6805  0.6116
10022TIP3   OH230001   6.168   2.702   6.263  0.0152 -0.2615  0.2766
10022TIP3    H130002   6.209   2.696   6.177 -1.3433 -1.1567 -0.3270
10022TIP3    H230003   6.074   2.695   6.245 -0.2816 -0.4181  1.8281
10023TIP3   OH230004   7.840   1.942   6.055 -0.1897  0.0611 -0.0909
10023TIP3    H130005   7.758   1.896   6.036 -0.5660  1.2439 -1.4802
10023TIP3    H230006   7.858   1.992   5.975  2.0080 -0.3565  0.1260
10024TIP3   OH230007   6.933   1.896   6.167  0.4943 -0.0276 -0.0758
10024TIP3    H130008   7.012   1.950   6.175 -0.0718  0.8954 -0.5430
10024TIP3    H230009   6.894   1.924   6.084 -1.1432  0.6695  0.8916
10025TIP3   OH230010   0.062   6.352   2.454 -0.7152 -0.0574 -0.3683
10025TIP3    H130011   0.065   6.407   2.533  0.8567 -0.0199 -0.4387
10025TIP3    H230012   0.098   6.268   2.482  1.6094  0.5233 -1.4601
10026TIP3   OH230013   7.939   3.186   6.452  0.5384  0.3092 -0.0482
10026TIP3    H130014   7.845   3.179   6.466  0.4190 -1.1642 -1.4703
10026TIP3    H230015   7.978   3.144   6.528  0.0362  0.0194  0.0507
10027TIP3   OH230016   7.634   2.155   6.944 -0.7901 -0.6008  0.7925
10027TIP3    H130017   7.665   2.145   6.854 -0.0557 -0.5339  1.0354
10027TIP3    H230018   7.711   2.184   6.993 -1.0027 -1.3500  1.5839
10028TIP3   OH230019   6.654   6.846   6.230  0.0078 -0.2054 -0.0512
10028TIP3    H130020   6.623   6.914   6.289 -1.5172  1.7637 -3.0181
10028TIP3    H230021   6.588   6.777   6.236 -1.0879  0.7758 -0.8326
10029TIP3   OH230022   0.190   1.498   5.564 -0.0310  0.5038  0.0391
10029TIP3    H130023   0.236   1.581   5.579  0.7100  0.0567  0.2977
10029TIP3    H230024   0.098   1.519   5.576  0.2780  0.9173  1.8640
10030TIP3   OH230025   4.683   7.407   5.106 -0.0435 -0.0586  0.3808
10030TIP3    H130026   4.601   7.430   5.149 -1.6709  0.0307 -2.5965
10030TIP3    H230027   4.710   7.488   5.062  0.2306 -0.7854 -0.8121
10031TIP3   OH230028   7.909   2.912   6.767  0.2655 -0.2773 -0.4551
10031TIP3    H130029   7.816   2.917   6.788  0.0224 -2.0378 -1.0785
10031TIP3    H230030   7.933   3.001   6.741 -1.1906  0.2165 -0.1317
10032TIP3   OH230031   1.690   7.099   0.942 -0.4391  0.1746 -0.1574
10032TIP3    H130032   1.772   7.150   0.937  1.0885 -2.3119 -1.6003
10032TIP3    H230033   1.638   7.131   0.868 -0.3761  1.0827  0.1822
10033TIP3   OH230034   5.281   6.352   1.787  0.9248 -0.1711  0.4626
10033TIP3    H130035   5.230   6.317   1.714  0.5963  1.2109  0.0142
10033TIP3    H230036   5.369   6.316   1.775  1.5098  1.9964 -2.0219
10034TIP3   OH230037   8.214   3.060   6.270  0.1651  0.2001  0.3792
10034TIP3    H130038   8.278   3.064   6.342 -0.1361  1.5518  0.5837
10034TIP3    H230039   8.142   3.117   6.299 -0.1616  0.3927 -0.8026
10035TIP3   OH230040   3.020   6.736   1.992  0.1013 -0.2031  0.0483
10035TIP3    H130041   3.109   6.714   1.965  0.3384  0.3362  0.3653
10035TIP3    H230042   2.970   6.656   1.979  0.3351 -0.1289 -1.4287
10036TIP3   OH230043   8.441   1.553   5.613 -0.2004 -0.5443 -0.1766
10036TIP3    H130044   8.410   1.621   5.673  0.8851  0.0336 -0.2575
10036TIP3    H230045   8.381   1.480   5.626 -0.8442  0.1113  0.5595
10037TIP3   OH230046   0.366   4.621   6.109 -0.2068  0.3491  0.3566
10037TIP3    H130047   0.445   4.651   6.154  1.2844 -1.9863 -0.6067
10037TIP3    H230048   0.372   4.525   6.112 -1.0706  0.1311 -3.0349
10038TIP3   OH230049   7.645   2.345   6.317  1.0123  0.3051 -0.4170
10038TIP3    H130050   7.564   2.389   6.291  1.0206 -0.6557 -2.1473
10038TIP3    H230051   7.715   2.404   6.288  1.0162 -0.6827 -2.4897
10039TIP3   OH230052   8.274   2.782   6.061  0.4872 -0.4739  0.0331
10039TIP3    H130053   8.183   2.812   6.056  0.3214 -1.1976 -1.2117
10039TIP3    H230054   8.299   2.798   6.153 -0.8388 -0.1369  0.3435
10040TIP3   OH230055   0.582   2.334   6.721 -0.0985 -0.4004 -0.0504
10040TIP3    H130056   0.587   2.342   6.816 -0.1278 -2.9575  0.1941
10040TIP3    H230057   0.514   2.269   6.705 -0.0432 -0.0531 -1.8267
10041TIP3   OH230058   7.832   0.360   6.562 -0.5967  0.3562  0.8821
10041TIP3    H130059   7.886   0.282   6.551 -0.1859  0.3361  2.8468
10041TIP3    H230060   7.811   0.362   6.655 -0.7128  2.5320  0.8411
10042TIP3   OH230061   1.201   6.582   0.026  0.0743 -0.2852  0.1984
10042TIP3    H130062   1.206   6.487   0.038 -0.5877 -0.1737  1.3723
10042TIP3    H230063   1.264   6.617   0.089  0.7115  0.0460 -0.6024
10043TIP3   OH230064   7.425   3.597   4.666 -0.6793 -0.3644  0.3722
10043TIP3    H130065   7.367   3.561   4.598  0.9687 -0.5775 -0.9564
10043TIP3    H230066   7.486   3.526   4.685 -0.6075 -0.0057  1.4804
10044TIP3   OH230067   0.796   3.045   6.206  0.1498 -0.0300 -0.1493
10044TIP3    H130068   0.806   3.135   6.236 -0.2445  0.3247 -1.0593
10044TIP3    H230069   0.702   3.027   6.215 -0.2057  0.5727 -2.5203
10045TIP3   OH230070   0.093   4.143   4.108 -0.4634  0.1128  0.3643
10045TIP3    H130071   0.136   4.200   4.172 -1.9171 -0.8599  2.2623
10045TIP3    H230072   0.058   4.204   4.042  2.7138  0.9852 -0.5843
10046TIP3   OH230073   8.425   5.979   5.857 -0.1089  0.4981  0.0186
10046TIP3    H130074   8.432   5.900   5.910 -0.7482  1.0613  0.9464
10046TIP3    H230075   8.467   6.047   5.909 -1.8740  1.3334  0.3774
10047TIP3   OH230076   6.811   2.440   4.908 -0.0767 -0.4401 -0.2273
10047TIP3    H130077   6.738   2.396   4.950  0.7643 -0.1600  1.5627
10047TIP3    H230078   6.774   2.523   4.877 -0.9360 -1.0772 -0.9271
10048TIP3   OH230079   0.336   2.509   6.312 -0.3435  0.3298  0.0102
10048TIP3    H130080   0.339   2.475   6.223  1.1789 -1.7630  0.8348
10048TIP3    H230081   0.370   2.599   6.304  0.2117  0.0078 -1.4598
10049TIP3   OH230082   6.838   3.188   5.913  0.8605  0.6895  0.4723
10049TIP3    H130083   6.815   3.182   6.006 -1.8084 -0.5904 -0.2076
10049TIP3    H230084   6.909   3.125   5.902 -0.9366 -1.5363  1.0830
10050TIP3   OH230085   7.051   0.328   0.159  0.1627  0.1244 -0.7664
10050TIP3    H130086   7.034   0.265   0.089 -0.7524 -0.0641 -0.3768
10050TIP3    H230087   6.971   0.329   0.210  0.5813  0.7807 -0.1200
10051TIP3   OH230088   3.730   6.951   2.617 -0.0190 -0.0158  0.0957
10051TIP3    H130089   3.757   7.012   2.549 -0.9152 -1.3307 -1.4853
10051TIP3    H230090   3.731   7.002   2.697 -0.9609  2.1369 -1.2301
10052TIP3   OH230091   4.146   4.969   2.693  0.2120  0.4470  0.6098
10052TIP3    H130092   4.088   4.931   2.627 -0.8179  3.4482 -0.3031
10052TIP3    H230093   4.110   4.939   2.777  0.7109 -2.2530 -0.1081
10053TIP3   OH230094   2.244   1.306   6.114  0.4360  0.3063  1.0396
10053TIP3    H130095   2.156   1.281   6.088  0.5104  2.3888 -1.3932
10053TIP3    H230096   2.233   1.350   6.199 -0.9348  0.9599  0.5386
10054TIP3   OH230097   6.155   1.800   0.213  0.2068  0.1511  0.2698
10054TIP3    H130098   6.249   1.816   0.204 -0.2534  2.3991 -0.9013
10054TIP3    H230099   6.115   1.886   0.199 -2.1894 -1.2652 -1.8377
10055TIP3   OH230100   0.177   3.194   6.432 -0.0503 -0.0542  0.5462
10055TIP3    H130101   0.236   3.200   6.357 -1.2357 -0.4987 -0.4443
10055TIP3    H230102   0.234   3.173   6.506  1.1231  0.3214 -0.2391
10056TIP3   OH230103   5.378   7.269   1.485  0.5527  0.5550 -0.4973
10056TIP3    H130104   5.323   7.305   1.554 -0.4963 -1.5655 -0.1998
10056TIP3    H230105   5.370   7.332   1.413  1.3260  2.5649  1.1352
10057TIP3   OH230106   4.511   6.384   1.367 -0.1236  0.1569 -0.0076
10057TIP3    H130107   4.584   6.444   1.354  1.5256 -2.2269 -2.1968
10057TIP3    H230108   4.524   6.350   1.456  1.3730 -0.1597 -0.3357
10058TIP3   OH230109   4.530   5.456   0.971 -0.4437 -0.1307 -0.0491
10058TIP3    H130110   4.457   5.518   0.966 -0.5253 -0.1684  0.5874
10058TIP3    H230111   4.501   5.390   1.034 -0.4401 -0.9343 -0.8879
10059TIP3   OH230112   1.140   2.000   6.952  0.3164  0.2245 -0.2565
10059TIP3    H130113   1.048   1.986   6.974  0.6252 -0.0924  0.9144
10059TIP3    H230114   1.140   2.074   6.892 -0.6570  0.6211  0.2191
10060TIP3   OH230115   8.308   0.587   5.187  0.0908  0.1224 -0.0860
10060TIP3    H130116   8.303   0.494   5.168 -1.1193 -0.4783  2.7758
10060TIP3    H230117   8.397   0.601   5.219  0.5493  0.1501 -1.3480
10061TIP3   OH230118   3.545   5.150   1.408 -0.2003  0.2489 -0.3506
10061TIP3    H130119   3.536   5.223   1.346  2.0025 -0.6170 -1.7180
10061TIP3    H230120   3.498   5.078   1.367 -1.7033  0.6406  0.6380
10062TIP3   OH230121   2.476   2.391   5.406 -0.8723  0.0613  0.0340
10062TIP3    H130122   2.508   2.479   5.383 -1.4395 -0.2702 -2.1119
10062TIP3    H230123   2.507   2.378   5.495  0.1124  2.0390  0.0277
10063TIP3   OH230124   4.932   5.594   1.050  0.0304 -0.2051 -0.2691
10063TIP3    H130125   4.947   5.595   0.956 -0.1842 -3.8891 -0.4161
10063TIP3    H230126   4.854   5.650   1.062 -0.4070 -0.3186 -2.3550
10064TIP3   OH230127   1.573   4.365   5.883 -0.8026 -0.3975  0.3160
10064TIP3    H130128   1.645   4.305   5.864 -0.6391 -0.2977  0.6198
10064TIP3    H230129   1.514   4.316   5.941 -1.3644 -0.7444 -0.5355
10065TIP3   OH230130   6.327   5.054   1.046 -0.3212 -0.1022 -0.3352
10065TIP3    H130131   6.370   4.970   1.032 -1.3115 -0.3666 -1.9058
10065TIP3    H230132   6.281   5.044   1.130  0.5017 -0.7214  0.0430
10066TIP3   OH230133   1.244   2.774   5.964 -0.8273 -0.1645  0.3191
10066TIP3    H130134   1.310   2.838   5.992  0.2986 -1.4870  0.6934
10066TIP3    H230135   1.291   2.714   5.907 -2.3449  0.5229 -1.7285
10067TIP3   OH230136   4.551   5.947   2.863 -0.0867  0.0384 -0.3841
10067TIP3    H130137   4.585   5.970   2.776  2.4697 -1.7089  0.1043
10067TIP3    H230138   4.629   5.932   2.916 -1.6189  1.2825  2.3038
10068TIP3   OH230139   4.945   5.757   2.403  0.7079 -0.1672  0.5876
10068TIP3    H130140   4.884   5.800   2.344  0.5926  0.9994  1.5409
10068TIP3    H230141   4.890   5.722   2.473  1.2776  2.5749  2.4765
10069TIP3   OH230142   5.770   6.526   0.277  0.0770 -0.3634 -0.1762
10069TIP3    H130143   5.763   6.504   0.184  0.2632 -1.2454  0.0152
10069TIP3    H230144   5.864   6.526   0.294 -0.0185 -2.0278  0.4352
10070TIP3   OH230145   1.007   2.050   6.705  0.2200 -0.2308 -0.0038
10070TIP3    H130146   1.065   2.062   6.630 -0.2301  1.4343 -0.1119
10070TIP3    H230147   0.919   2.059   6.668 -0.0857 -1.8146  0.3175
10071TIP3   OH230148   6.024   0.747   1.711  0.0615 -0.1367  0.3177
10071TIP3    H130149   6.076   0.687   1.657 -2.1633  0.1678 -2.2788
10071TIP3    H230150   6.060   0.834   1.692 -1.5464  0.1192 -1.7874
10072TIP3   OH230151   4.880   7.591   2.278  0.2837 -0.3205  0.5487
10072TIP3    H130152   4.796   7.568   2.239  0.7637  0.8033 -1.1743
10072TIP3    H230153   4.941   7.524   2.247  0.2955 -0.4406  0.8224
10073TIP3   OH230154   2.464   2.530   6.098 -0.0975 -0.6543  0.2886
10073TIP3    H130155   2.544   2.579   6.119  0.3752 -1.3072  0.0431
10073TIP3    H230156   2.402   2.555   6.166 -0.6922  2.1928 -1.2145
10074TIP3   OH230157   5.716   6.692   2.969  0.3842  0.3935 -0.5176
10074TIP3    H130158   5.642   6.688   3.030 -0.3261  1.7338 -1.2762
10074TIP3    H230159   5.732   6.601   2.945 -1.0229  0.0909 -0.3450
10075TIP3   OH230160   3.696   6.870   1.996  0.1583 -0.3009  0.0977
10075TIP3    H130161   3.698   6.936   1.926  0.1319 -0.0381  0.3421
10075TIP3    H230162   3.728   6.917   2.073 -1.5316 -0.0798  0.6813
10076TIP3   OH230163   2.215   2.065   6.889  0.2260 -0.1708  0.8669
10076TIP3    H130164   2.181   2.149   6.922  0.9593  0.3952  0.2081
10076TIP3    H230165   2.310   2.070   6.902  0.6539  0.4409 -2.0626
10077TIP3   OH230166   1.176   4.601   6.145  0.2842 -0.1208 -0.1860
10077TIP3    H130167   1.265   4.632   6.132 -0.5057  1.7217 -1.4714
10077TIP3    H230168   1.125   4.680   6.162 -1.1016 -1.1498  0.5310
10078TIP3   OH230169   1.071   4.082   5.933 -0.4326 -0.3698 -0.0200
10078TIP3    H130170   1.044   4.025   6.006 -0.0950  0.0854  0.4655
10078TIP3    H230171   1.046   4.170   5.960  2.1912  0.1887  0.8059
10079TIP3   OH230172   0.976   2.834   6.621  0.8252 -0.2372  0.3500
10079TIP3    H130173   1.050   2.843   6.680 -0.3154 -0.5828  1.8557
10079TIP3    H230174   0.911   2.896   6.653 -0.2119 -1.1770  0.1005
10080TIP3   OH230175   4.318   7.389   1.248 -0.1825 -0.5305 -0.1166
10080TIP3    H130176   4.307   7.374   1.341  0.2615 -0.0659  0.0142
10080TIP3    H230177   4.241   7.440   1.222 -0.9445 -1.7576 -0.2640
10081TIP3   OH230178   4.370   5.706   0.508 -0.5950 -0.2910  0.4295
10081TIP3    H130179   4.377   5.611   0.500 -4.4014 -0.5928 -0.2221
10081TIP3    H230180   4.383   5.723   0.602 -3.5949 -1.9171  1.2082
10082TIP3   OH230181   0.503   1.404   6.740 -0.2803 -0.0580  0.0063
10082TIP3    H130182   0.506   1.385   6.646 -0.6414 -0.4543  0.0727
10082TIP3    H230183   0.410   1.403   6.762 -0.1870 -0.1456  0.4070
10083TIP3   OH230184   1.924   1.648   6.373 -0.4226 -0.3658  0.4274
10083TIP3    H130185   1.873   1.660   6.292 -0.3686  1.3723  0.6426
10083TIP3    H230186   1.868   1.594   6.428 -0.4907 -1.5255 -0.7433
10084TIP3   OH230187   2.356   6.296   0.499 -0.2170  0.2859  0.6357
10084TIP3    H130188   2.344   6.204   0.523 -1.9105  0.5247  0.7352
10084TIP3    H230189   2.269   6.327   0.475  0.7100  1.2195 -1.7524
10085TIP3   OH230190   1.902   2.603   6.585  0.0820  0.8369  0.3686
10085TIP3    H130191   1.890   2.696   6.563  1.1830  0.6561 -1.1117
10085TIP3    H230192   1.857   2.557   6.514  1.5361  0.2380 -0.1780
10086TIP3   OH230193   6.224   7.557   0.375 -0.3915 -0.3691  0.8687
10086TIP3    H130194   6.133   7.538   0.351 -0.1621 -2.6574  1.6270
10086TIP3    H230195   6.230   7.530   0.467  1.0279 -0.1150  0.8565
10087TIP3   OH230196   6.597   6.630   0.436 -0.1430 -0.0522  0.1988
10087TIP3    H130197   6.541   6.618   0.512  1.2085  0.3543  1.2790
10087TIP3    H230198   6.635   6.717   0.447 -0.6330  0.3809 -1.4157
10088TIP3   OH230199   0.891   3.318   6.309  0.2810  0.1577 -0.0984
10088TIP3    H130200   0.807   3.358   6.329  0.9010  0.0141  2.9226
10088TIP3    H230201   0.944   3.389   6.274 -0.0773  0.9526  0.9691
10089TIP3   OH230202   1.029   4.697   6.740  0.0873  0.4257 -0.4096
10089TIP3    H130203   1.028   4.769   6.804 -1.8675  0.7903 -0.8153
10089TIP3    H230204   1.018   4.739   6.655 -1.1303 -0.3413 -0.6486
10090TIP3   OH230205   1.452   2.711   4.668  0.1197  0.2131  0.6580
10090TIP3    H130206   1.517   2.729   4.600 -0.8519 -0.0142 -0.3475
10090TIP3    H230207   1.401   2.792   4.675  1.2109  0.7812  2.2398
10091TIP3   OH230208   5.651   0.370   0.099  0.3727 -0.4944  0.2878
10091TIP3    H130209   5.658   0.307   0.171 -0.8325 -1.3716 -0.3546
10091TIP3    H230210   5.597   0.326   0.033  0.0583  0.9557 -0.4434
10092TIP3   OH230211   6.739   8.001   5.765  0.5756  0.0228 -0.1433
10092TIP3    H130212   6.759   8.007   5.859  2.6325 -0.1517 -0.5416
10092TIP3    H230213   6.757   7.910   5.742 -2.2203 -0.5340 -0.2388
10093TIP3   OH230214   0.625   1.874   6.733  0.5920 -0.9351  0.2883
10093TIP3    H130215   0.546   1.859   6.682  0.7451 -0.3533 -0.1250
10093TIP3    H230216   0.623   1.806   6.801 -0.0447 -1.1798  0.0293
10094TIP3   OH230217   0.163   5.171   5.116  0.0503 -0.2725 -0.4825
10094TIP3    H130218   0.253   5.140   5.130 -0.4911 -2.0627 -0.8968
10094TIP3    H230219   0.109   5.110   5.167 -1.0279  0.0412 -1.2521
10095TIP3   OH230220   2.427   5.192   0.512  0.2251 -0.2936  0.4427
10095TIP3    H130221   2.391   5.176   0.599 -1.7633  1.4041 -0.0440
10095TIP3    H230222   2.353   5.182   0.453  1.5445 -1.3666 -1.0744
10096TIP3   OH230223   0.577   4.223   6.531 -0.4893  0.0775  0.0954
10096TIP3    H130224   0.599   4.307   6.571  0.6017  0.6438 -1.6258
10096TIP3    H230225   0.481   4.218   6.540 -0.2111 -0.1904  3.3749
10097TIP3   OH230226   1.701   4.457   5.522 -0.3051 -0.4315  0.6161
10097TIP3    H130227   1.684   4.364   5.538  1.2655 -0.9178 -0.4370
10097TIP3    H230228   1.669   4.473   5.433  1.2046 -0.4609  0.0436
10098TIP3   OH230229   5.399   5.596   1.059  0.1629 -0.0289 -0.3156
10098TIP3    H130230   5.317   5.567   1.099 -0.4937 -0.2157 -1.7698
10098TIP3    H230231   5.418   5.680   1.101 -0.4811 -0.2543  0.4276
10099TIP3   OH230232   3.586   4.231   0.583  0.2704  0.1146 -0.0979
10099TIP3    H130233   3.511   4.291   0.577  1.0498  1.3286  1.8113
10099TIP3    H230234   3.556   4.160   0.640 -0.4003 -0.9586 -1.7516
10100TIP3   OH230235   4.687   4.844   0.206 -0.1183 -0.0042 -0.0465
10100TIP3    H130236   4.646   4.926   0.236  2.1629  0.9483  0.5811
10100TIP3    H230237   4.712   4.863   0.116 -0.6266 -0.4213 -0.2752
10101TIP3   OH230238   0.058   1.239   6.869 -0.2730  0.3543 -0.1094
10101TIP3    H130239   0.096   1.153   6.887 -1.1242  0.5511  2.7401
10101TIP3    H230240  -0.035   1.228   6.884 -0.3953  1.7846  0.2664
10102TIP3   OH230241   2.218   5.225   3.629  0.1352 -0.0529  0.0572
10102TIP3    H130242   2.263   5.141   3.618 -2.3139 -1.2511 -1.2160
10102TIP3    H230243   2.216   5.239   3.724  1.8375 -0.6820  0.2157
10103TIP3   OH230244   0.426   1.149   5.347  0.6535  0.1949  0.4379
10103TIP3    H130245   0.487   1.114   5.281  0.4296 -0.6578  0.6784
10103TIP3    H230246   0.339   1.130   5.312  0.5040  1.7003 -0.0566
10104TIP3   OH230247   7.411   0.218   0.474  0.4981 -0.1103 -0.1128
10104TIP3    H130248   7.338   0.157   0.466 -0.4557  0.9649  0.2494
10104TIP3    H230249   7.444   0.204   0.563  1.0501 -0.9306 -0.4380
10105TIP3   OH230250   8.341   3.095   6.744 -0.1163  0.3519 -0.4964
10105TIP3    H130251   8.375   3.011   6.775 -1.0596 -0.1485 -0.8239
10105TIP3    H230252   8.385   3.160   6.800  2.0790 -0.2165 -1.4844
10106TIP3   OH230253   2.609   2.899   6.338  0.4686 -0.1215  0.1204
10106TIP3    H130254   2.530   2.906   6.285  1.0992 -0.6244 -0.9124
10106TIP3    H230255   2.593   2.954   6.414 -1.5019 -1.4587  0.6986
10107TIP3   OH230256   5.160   5.428   0.496  0.4710 -0.2620 -0.3031
10107TIP3    H130257   5.115   5.363   0.441 -1.8402  0.9524  0.0823
10107TIP3    H230258   5.171   5.384   0.580  0.1303 -0.6320 -0.4489
10108TIP3   OH230259   3.659   7.665  -0.021 -0.0016  0.2549  0.4747
10108TIP3    H130260   3.659   7.716   0.060  1.0653 -1.5234  1.6238
10108TIP3    H230261   3.666   7.574   0.008  0.3184 -0.4136 -1.6178
10109TIP3   OH230262   1.469   4.811   5.430 -0.0775 -0.0667 -0.1922
10109TIP3    H130263   1.393   4.754   5.440 -0.3391  0.4286  0.6713
10109TIP3    H230264   1.447   4.890   5.480  0.0069  1.0817 -1.9534
10110TIP3   OH230265   1.438   7.017   0.619  0.7821 -0.3080 -0.1374
10110TIP3    H130266   1.484   7.091   0.660 -1.3625 -0.3258  2.3998
10110TIP3    H230267   1.389   6.977   0.690 -0.3109 -2.4957 -2.0723
10111TIP3   OH230268   0.506   0.098   6.076 -0.1018  0.5400 -0.5503
10111TIP3    H130269   0.573   0.033   6.096  0.1886  1.0378  0.0769
10111TIP3    H230270   0.554   0.175   6.046 -0.4950  0.0684 -2.4346
10112TIP3   OH230271   7.625   1.791   4.927  0.2283  0.3250 -0.2707
10112TIP3    H130272   7.623   1.860   4.861  1.7754 -0.3441 -1.0652
10112TIP3    H230273   7.537   1.754   4.926 -0.1962  1.3273 -0.8801
10113TIP3   OH230274   2.331   3.569   5.999 -0.3678  0.0136 -0.0958
10113TIP3    H130275   2.240   3.561   6.028 -0.3469 -1.0256 -0.3130
10113TIP3    H230276   2.328   3.558   5.904 -0.3554  2.8265 -0.4834
10114TIP3   OH230277   3.517   5.069   0.532  0.7258 -0.2921 -0.0652
10114TIP3    H130278   3.513   5.049   0.625  3.5408  0.5448  0.2801
10114TIP3    H230279   3.572   5.000   0.495 -0.0293 -0.3808 -1.0405
10115TIP3   OH230280   7.784   0.454   1.274  0.3780 -0.1873  0.3433
10115TIP3    H130281   7.747   0.384   1.220  0.3335  0.4039 -0.4010
10115TIP3    H230282   7.876   0.431   1.284 -0.0024 -1.2497  1.5386
10116TIP3   OH230283   4.315   6.511   0.446  0.7797 -0.6281  0.3935
10116TIP3    H130284   4.318   6.576   0.375  0.4298 -0.4684  0.5240
10116TIP3    H230285   4.346   6.558   0.523 -0.1229 -0.4289  0.6311
10117TIP3   OH230286   1.470   2.442   6.004 -0.5289  0.3055  0.4240
10117TIP3    H130287   1.557   2.475   6.025 -0.0604 -1.0306  0.6220
10117TIP3    H230288   1.443   2.494   5.928  1.0607 -0.3001 -0.5779
10118TIP3   OH230289   1.338   7.539   1.010 -0.2074  0.3071  0.0901
10118TIP3    H130290   1.413   7.599   1.007 -1.0384  1.4979  1.8787
10118TIP3    H230291   1.374   7.457   1.042  0.9884 -0.2660 -2.5867
10119TIP3   OH230292   2.167   7.567   0.067 -0.3230  0.0066  0.2795
10119TIP3    H130293   2.073   7.586   0.065 -0.6341 -1.5244 -0.7864
10119TIP3    H230294   2.173   7.475   0.040  1.4390 -0.0989  0.9688
10120TIP3   OH230295   0.931   2.308   6.860 -0.4018 -0.6065 -0.4430
10120TIP3    H130296   0.879   2.231   6.881  1.6795 -2.2240 -0.9660
10120TIP3    H230297   1.002   2.274   6.805  0.2387  1.7837 -1.1533
10121TIP3   OH230298   5.470   5.739   0.266 -0.4223  0.1901 -0.0975
10121TIP3    H130299   5.463   5.760   0.359  0.1995 -0.6312  0.1394
10121TIP3    H230300   5.425   5.655   0.257  1.5614 -0.9029 -0.0971
10122TIP3   OH230301   0.519   5.567   6.134 -0.1802 -0.0118  0.2192
10122TIP3    H130302   0.477   5.503   6.192  0.2152 -0.4672  0.0100
10122TIP3    H230303   0.562   5.629   6.193  0.6322 -0.7490  0.4136
10123TIP3   OH230304   6.939   0.469   1.594  0.2024  0.5393 -0.1185
10123TIP3    H130305   6.884   0.450   1.671 -0.7048  1.3805 -0.5411
10123TIP3    H230306   7.028   0.466   1.627 -0.2114  1.5971  1.1450
10124TIP3   OH230307   1.572   7.228   0.739 -0.1507  0.1944 -0.1984
10124TIP3    H130308   1.645   7.246   0.679  1.0202  0.1686  1.2125
10124TIP3    H230309   1.558   7.311   0.785 -0.4899 -0.0322  0.1104
10125TIP3   OH230310   3.743   5.831   1.241 -0.1386 -0.8377  0.6512
10125TIP3    H130311   3.711   5.915   1.275 -1.7773 -1.9887  2.0407
10125TIP3    H230312   3.832   5.825   1.275 -0.3555 -0.1042  1.3867
10126TIP3   OH230313   1.518   3.563   6.648  0.2463  0.3744 -0.5081
10126TIP3    H130314   1.425   3.547   6.664  0.6129 -0.6282  0.7041
10126TIP3    H230315   1.541   3.502   6.578  0.0020  0.6019 -0.7878
10127TIP3   OH230316   5.196   6.502   0.478  0.0747  0.1453  0.1224
10127TIP3    H130317   5.264   6.435   0.483  0.6284  0.6158 -1.0379
10127TIP3    H230318   5.186   6.533   0.568  1.5321  0.1916  0.2760
10128TIP3   OH230319   3.116   4.724   1.805  0.0024  0.0683  0.1219
10128TIP3    H130320   3.105   4.658   1.736 -1.3435  2.1996 -1.7508
10128TIP3    H230321   3.030   4.729   1.847 -0.0625  1.0250 -0.1191
10129TIP3   OH230322   3.772   5.453   1.035 -0.5102  0.2725  0.0415
10129TIP3    H130323   3.832   5.527   1.034  0.8996 -0.8234  0.7570
10129TIP3    H230324   3.798   5.400   0.960 -1.2321  0.2888 -0.2231
10130TIP3   OH230325   6.752   3.857   6.658 -0.0077  0.3425 -0.2297
10130TIP3    H130326   6.664   3.854   6.695 -0.2351 -0.7087 -0.8263
10130TIP3    H230327   6.780   3.765   6.655  0.7404  0.5826 -0.8874
10131TIP3   OH230328   2.007   2.666   5.730 -0.2862 -0.0265  0.0705
10131TIP3    H130329   2.065   2.646   5.656 -1.6557 -1.5407 -0.6370
10131TIP3    H230330   2.048   2.624   5.805  1.8126  2.6099  0.5145
10132TIP3   OH230331   3.238   5.047   6.640 -0.0109  0.0002 -0.5998
10132TIP3    H130332   3.254   5.022   6.549  0.2175 -1.2216 -0.2374
10132TIP3    H230333   3.294   4.989   6.691  1.0785  1.7597  0.2573
10133TIP3   OH230334   1.002   2.590   5.388 -0.2420 -0.2701 -0.5492
10133TIP3    H130335   0.968   2.535   5.459 -1.7493  1.2140 -0.0694
10133TIP3    H230336   1.049   2.660   5.433  2.3621 -1.5698 -1.1780
10134TIP3   OH230337   4.041   5.237   0.946 -0.0519 -0.2581 -0.3428
10134TIP3    H130338   4.076   5.298   0.881 -1.6562  2.7767  1.5130
10134TIP3    H230339   3.968   5.194   0.901 -0.1438  0.6397 -1.0699
10135TIP3   OH230340   2.129   4.072   5.222 -0.2675 -0.0113  0.4266
10135TIP3    H130341   2.142   4.034   5.308  1.0121  0.5320  0.4885
10135TIP3    H230342   2.200   4.136   5.213 -0.6491  0.2507 -0.8431
10136TIP3   OH230343   3.443   1.084   6.860  0.0321 -0.1275 -0.3047
10136TIP3    H130344   3.478   1.082   6.771 -0.5996  1.1125 -0.5998
10136TIP3    H230345   3.389   1.005   6.866  2.4924 -1.8379  0.0314
10137TIP3   OH230346   4.486   7.168   1.231 -0.0998 -0.9796  0.0431
10137TIP3    H130347   4.416   7.233   1.238 -1.3532 -2.4348  1.3580
10137TIP3    H230348   4.504   7.142   1.321  0.7698 -2.0558 -0.4263
10138TIP3   OH230349   0.824   5.686   5.973 -0.2572 -0.1049 -0.1350
10138TIP3    H130350   0.799   5.733   6.052 -2.1040  2.3023 -2.0607
10138TIP3    H230351   0.858   5.753   5.914  0.0320 -1.6465 -1.7935
10139TIP3   OH230352   8.085   2.529   6.110  0.3074  0.3108  0.4063
10139TIP3    H130353   8.073   2.588   6.184 -0.2641  1.7945 -0.8444
10139TIP3    H230354   8.179   2.513   6.106  0.4723  1.1970  0.7189
10140TIP3   OH230355   0.690   0.313   1.021 -0.2902  0.1992 -0.2236
10140TIP3    H130356   0.614   0.369   1.010 -0.2257  0.4459  0.5823
10140TIP3    H230357   0.740   0.324   0.940 -0.1107  1.5642  0.0577
10141TIP3   OH230358   1.163   2.129   5.146  0.2807 -0.1668 -0.0223
10141TIP3    H130359   1.098   2.107   5.079  0.5280  0.6755 -0.5488
10141TIP3    H230360   1.149   2.065   5.215 -1.9167  0.7309  0.3981
10142TIP3   OH230361   3.769   7.198   0.236 -0.4770  0.0454 -0.1025
10142TIP3    H130362   3.727   7.284   0.236 -1.5336 -0.4464  1.5461
10142TIP3    H230363   3.696   7.136   0.228  0.0713 -0.7648  1.0567
10143TIP3   OH230364   3.311   3.523   4.311 -0.2588  0.6018 -0.4421
10143TIP3    H130365   3.347   3.589   4.370  0.6700  0.2825 -0.6534
10143TIP3    H230366   3.281   3.453   4.368  1.5609 -0.1622 -0.3958
10144TIP3   OH230367   7.448   2.537   6.482 -0.0511  0.0430  0.0839
10144TIP3    H130368   7.537   2.536   6.517 -0.7211  1.1372  1.9429
10144TIP3    H230369   7.405   2.463   6.525 -0.3990  0.3237  0.2188
10145TIP3   OH230370   1.394   3.604   5.917 -0.2644  0.5876  0.0763
10145TIP3    H130371   1.442   3.535   5.871 -0.1953  1.5614 -1.3219
10145TIP3    H230372   1.425   3.598   6.007  0.2487 -0.7608 -0.1813
10146TIP3   OH230373   5.739   7.965   1.696  0.0121  0.4773  0.0626
10146TIP3    H130374   5.705   7.986   1.783 -0.9635 -0.4471 -0.0824
10146TIP3    H230375   5.829   7.997   1.697  1.4622 -3.3836  2.9046
10147TIP3   OH230376   6.058   3.034   6.641 -0.2871  1.0895 -0.0093
10147TIP3    H130377   6.021   2.957   6.684  0.2963  1.3702  1.0113
10147TIP3    H230378   5.983   3.079   6.602 -0.8112  0.7861  0.6432
10148TIP3   OH230379   0.805   2.288   6.298 -0.1439 -0.4354 -0.6743
10148TIP3    H130380   0.807   2.295   6.394  1.4442 -1.2415 -0.6419
10148TIP3    H230381   0.896   2.302   6.271 -0.6647  0.2488 -2.1021
10149TIP3   OH230382   2.598   4.030   5.560  0.3173 -0.4880  0.9312
10149TIP3    H130383   2.539   4.075   5.499  0.8818  1.5033  1.8181
10149TIP3    H230384   2.591   3.938   5.536 -2.3121 -0.1688  0.2941
10150TIP3   OH230385   7.984   3.462   5.907 -0.2978 -0.2746 -0.1959
10150TIP3    H130386   7.905   3.471   5.855 -0.1145  2.3027 -0.0685
10150TIP3    H230387   8.043   3.531   5.876 -0.0678  1.1718  3.1405
10151TIP3   OH230388   1.363   3.151   6.415  0.4517 -0.8977 -0.4219
10151TIP3    H130389   1.327   3.182   6.498  1.2105 -0.4649 -0.2476
10151TIP3    H230390   1.291   3.158   6.353 -0.1197 -1.2180  0.1960
10152TIP3   OH230391   6.575   1.073   3.826 -0.1354  0.1327 -0.4550
10152TIP3    H130392   6.591   1.039   3.914 -0.5557  2.0974  0.4123
10152TIP3    H230393   6.485   1.046   3.806  0.6314 -2.0166 -1.1097
10153TIP3   OH230394   3.380   7.625   2.857 -0.2656  0.2163  0.0315
10153TIP3    H130395   3.303   7.576   2.887 -0.7042  0.5755 -0.4936
10153TIP3    H230396   3.346   7.712   2.836  0.5182  0.7660  1.0050
10154TIP3   OH230397   5.601   5.149   0.698  0.2278 -0.1804 -0.4922
10154TIP3    H130398   5.693   5.172   0.684  0.0408  2.3820  2.0215
10154TIP3    H230399   5.563   5.151   0.610  1.8471  2.2150 -1.2109
10155TIP3   OH230400   4.932   5.960   0.723  0.1180 -0.0058 -0.1782
10155TIP3    H130401   4.895   5.884   0.677  0.1507 -0.5004  0.5966
10155TIP3    H230402   4.866   5.983   0.788  1.7841 -1.8921  2.3013
10156TIP3   OH230403   0.050   1.138   5.675 -0.6696 -0.1323 -0.3258
10156TIP3    H130404  -0.003   1.202   5.723 -0.4114 -0.6754  0.7085
10156TIP3    H230405   0.139   1.173   5.678 -0.4691 -0.7038  0.5446
10157TIP3   OH230406   3.743   5.919   0.220  0.7710  0.0626  0.0652
10157TIP3    H130407   3.707   5.832   0.202 -1.3630  1.3871 -2.4490
10157TIP3    H230408   3.832   5.916   0.187  0.5217 -1.0078 -0.5434
10158TIP3   OH230409   2.997   4.082   6.038  0.5437  0.5205  0.8001
10158TIP3    H130410   3.015   3.998   5.996  1.1144  0.3945  1.2881
10158TIP3    H230411   2.932   4.124   5.982  0.3156 -0.2156  0.5102
10159TIP3   OH230412   1.122   1.301   6.510 -0.6768 -0.3543 -0.4279
10159TIP3    H130413   1.052   1.315   6.574 -0.7667 -0.5741 -0.4800
10159TIP3    H230414   1.108   1.212   6.478  0.6950 -1.0572  0.8796
10160TIP3   OH230415   4.869   7.285   1.187  0.0997 -0.0127 -0.0235
10160TIP3    H130416   4.962   7.275   1.205 -0.2416  0.4784  2.1266
10160TIP3    H230417   4.830   7.306   1.272 -1.7891  1.0691 -1.1231
10161TIP3   OH230418   3.602   6.442   0.543 -0.5795 -0.0794  0.1783
10161TIP3    H130419   3.534   6.461   0.608 -2.1330  0.2246 -1.4996
10161TIP3    H230420   3.556   6.396   0.473  0.6143  1.4922 -1.7025
10162TIP3   OH230421   4.416   7.166   0.064  0.0093  0.1264  0.2293
10162TIP3    H130422   4.402   7.218  -0.015 -0.3696 -0.0381  0.1866
10162TIP3    H230423   4.507   7.184   0.089  0.8462 -1.4998 -1.4940
10163TIP3   OH230424   5.531   5.769   1.233 -0.3867 -0.1963 -0.5425
10163TIP3    H130425   5.560   5.835   1.296 -2.8690 -0.2323  0.7056
10163TIP3    H230426   5.607   5.713   1.220  0.3293  0.1249  2.0663
10164TIP3   OH230427   4.922   6.638   0.927 -0.0388 -0.2437 -0.2129
10164TIP3    H130428   4.913   6.691   1.007 -1.6725 -0.5938 -0.1456
10164TIP3    H230429   4.880   6.690   0.859  0.3439 -0.4552 -0.6108
10165TIP3   OH230430   0.579   3.941   6.455 -0.1090  0.2072  0.0592
10165TIP3    H130431   0.665   3.899   6.458 -0.2983 -0.0827  2.2060
10165TIP3    H230432   0.599   4.035   6.459  0.1738  0.2031 -1.2159
10166TIP3   OH230433   1.630   2.943   5.008  0.3064  0.5313 -0.0792
10166TIP3    H130434   1.593   2.858   4.986 -0.3340  0.3565  1.6121
10166TIP3    H230435   1.619   2.995   4.928 -2.1884 -0.0050 -0.1267
10167TIP3   OH230436   1.104   2.898   6.353  0.1478  0.2421  0.3668
10167TIP3    H130437   1.176   2.844   6.385  0.1660  0.5282  0.8116
10167TIP3    H230438   1.049   2.913   6.429 -0.2568  0.2267  0.0801
10168TIP3   OH230439   4.861   6.282   1.222 -0.2009 -0.5244  0.5133
10168TIP3    H130440   4.788   6.224   1.244 -0.0345 -0.8089  0.3126
10168TIP3    H230441   4.906   6.238   1.150  0.1304 -0.3174  0.5933
10169TIP3   OH230442   2.144   3.996   6.155  0.6816 -0.3362  0.1677
10169TIP3    H130443   2.177   3.962   6.073  1.4955  0.4261  0.1773
10169TIP3    H230444   2.183   4.083   6.163 -1.2679  0.5615  0.2037
10170TIP3   OH230445   3.976   4.375   1.234 -0.4800  0.3354  1.0378
10170TIP3    H130446   3.942   4.383   1.323 -1.9617 -1.1358  0.6237
10170TIP3    H230447   4.031   4.297   1.236 -0.1676  0.5466  0.7597
10171TIP3   OH230448   1.131   3.164   6.275  0.5340  0.0039 -0.3290
10171TIP3    H130449   1.054   3.220   6.269  0.5657  0.5007  3.0615
10171TIP3    H230450   1.096   3.075   6.275  0.2263  0.1161 -2.1635
10172TIP3   OH230451   7.419   0.358   0.041  0.3751  0.0858  0.1608
10172TIP3    H130452   7.391   0.275   0.002  1.5926  0.0725 -0.7172
10172TIP3    H230453   7.481   0.334   0.108  0.7394  0.2851 -0.1031
10173TIP3   OH230454   6.766   2.068   4.191 -0.0401  0.4790 -0.1755
10173TIP3    H130455   6.711   1.991   4.180 -0.8221  0.7352  1.7090
10173TIP3    H230456   6.798   2.063   4.281  1.4220  1.3757 -0.6150
10174TIP3   OH230457   6.085   1.217   1.473 -0.7786 -0.1898  0.5404
10174TIP3    H130458   6.076   1.286   1.538 -1.5411 -2.7987  3.3025
10174TIP3    H230459   5.996   1.203   1.440 -0.5757  0.3218 -0.2441
10175TIP3   OH230460   0.378   4.181   6.875  0.1917  0.1221  0.1548
10175TIP3    H130461   0.388   4.247   6.807  0.8692  1.1772  1.2498
10175TIP3    H230462   0.404   4.099   6.834 -1.8678  0.3002 -1.5976
10176TIP3   OH230463   4.212   6.403   2.278  0.1301 -0.0163 -0.6482
10176TIP3    H130464   4.274   6.465   2.238 -0.7628  0.6286 -1.0649
10176TIP3    H230465   4.161   6.457   2.339  0.5257 -0.7131  0.3086
10177TIP3   OH230466   2.235   2.354   6.556 -0.9104 -0.4781 -0.2895
10177TIP3    H130467   2.239   2.277   6.499  1.1929 -1.2326  0.8038
10177TIP3    H230468   2.155   2.343   6.607 -2.7220  0.1052 -2.9060
10178TIP3   OH230469   7.081   2.334   0.183 -0.6021  0.2309  0.0106
10178TIP3    H130470   7.057   2.295   0.098  0.5756 -0.7175  0.1118
10178TIP3    H230471   7.038   2.279   0.248  1.4057 -1.1827  0.1724
10179TIP3   OH230472   5.903   2.227   1.843 -0.2200 -0.5079  0.0397
10179TIP3    H130473   5.958   2.166   1.793 -0.9045 -1.7472  0.7624
10179TIP3    H230474   5.854   2.170   1.903  1.4470  1.0251  2.9522
10180TIP3   OH230475   2.230   5.004   6.446  0.2431 -0.5206 -0.3417
10180TIP3    H130476   2.320   4.974   6.435 -0.9807 -3.7527 -2.1441
10180TIP3    H230477   2.195   5.005   6.357 -1.3648  1.2229  0.2960
10181TIP3   OH230478   4.970   4.995   0.115  1.0344 -0.0505 -0.9345
10181TIP3    H130479   4.913   4.944   0.056  0.4226 -1.1370  0.5485
10181TIP3    H230480   4.957   5.086   0.088 -1.6925 -0.2413 -0.4207
10182TIP3   OH230481   3.060   5.569   0.521  0.0748  0.2216  0.2833
10182TIP3    H130482   3.024   5.591   0.435 -1.4223  1.6609  1.2439
10182TIP3    H230483   3.094   5.480   0.511  0.8294  0.7335 -2.0716
10183TIP3   OH230484   4.425   7.302   0.745 -0.6873 -0.0490 -0.3574
10183TIP3    H130485   4.418   7.207   0.756 -0.1628 -0.2754 -1.8590
10183TIP3    H230486   4.463   7.333   0.827 -1.6053 -1.0367  0.4620
10184TIP3   OH230487   2.511   5.399   0.042 -0.0429 -0.1710 -0.0821
10184TIP3    H130488   2.582   5.338   0.027 -0.2775 -0.5995  0.5513
10184TIP3    H230489   2.469   5.410  -0.044  1.3269  0.7742 -0.6483
10185TIP3   OH230490   2.886   5.442   0.110 -0.9741 -0.4096 -0.1400
10185TIP3    H130491   2.835   5.483   0.040 -1.3916 -1.8493 -0.7004
10185TIP3    H230492   2.913   5.357   0.073  0.7676 -0.1975  0.5978
10186TIP3   OH230493   3.900   4.967   0.418 -0.3601 -0.2162 -0.6164
10186TIP3    H130494   3.820   4.915   0.417 -0.6645  0.2549 -1.5427
10186TIP3    H230495   3.956   4.928   0.350 -0.7100  0.8307 -1.5214
10187TIP3   OH230496   8.406   5.328   6.210 -0.4630  0.2003  0.2031
10187TIP3    H130497   8.403   5.325   6.305 -0.3412 -0.4100  0.1939
10187TIP3    H230498   8.480   5.385   6.190 -0.5332  0.3853  0.4759
10188TIP3   OH230499   2.471   5.625   0.603  0.0076  0.1011 -0.6658
10188TIP3    H130500   2.436   5.577   0.528  1.3445 -0.0670 -1.1887
10188TIP3    H230501   2.487   5.557   0.669  0.0411  0.0928 -0.6832
10189TIP3   OH230502   2.461   2.317   6.715  0.3713 -0.5467  0.0964
10189TIP3    H130503   2.409   2.386   6.674  0.8592  0.0396  0.4765
10189TIP3    H230504   2.414   2.236   6.691 -0.7259 -0.0286  0.4483
10190TIP3   OH230505   3.657   2.473   4.465 -0.6297 -0.1596  0.3883
10190TIP3    H130506   3.667   2.527   4.387 -0.5089 -2.6759 -1.4051
10190TIP3    H230507   3.563   2.469   4.480 -0.8083 -1.2209 -0.8292
10191TIP3   OH230508   7.782   4.058   6.400 -0.5118  0.3471 -0.4243
10191TIP3    H130509   7.861   4.005   6.395 -0.5989  0.3408 -1.7140
10191TIP3    H230510   7.801   4.122   6.469 -0.2101 -1.0004  0.7769
10192TIP3   OH230511   3.544   4.569   6.546 -0.0638  0.2545  0.1268
10192TIP3    H130512   3.509   4.588   6.459  0.8186  0.8281 -0.1084
10192TIP3    H230513   3.586   4.483   6.537  1.7149  1.1891 -0.5122
10193TIP3   OH230514   2.505   2.040   6.743  0.4125  0.0516  0.0230
10193TIP3    H130515   2.593   2.033   6.779  0.7731  0.1931 -0.8233
10193TIP3    H230516   2.461   1.959   6.769  0.7708  0.0049  0.4848
10194TIP3   OH230517   6.226   5.313   0.550  0.3486  0.4942  0.1837
10194TIP3    H130518   6.135   5.325   0.522  0.9622 -1.2943 -2.7866
10194TIP3    H230519   6.276   5.376   0.498  0.9307  0.8479  1.1542
10195TIP3   OH230520   7.973   0.064   2.203 -1.4745  0.0782  0.2812
10195TIP3    H130521   7.910  -0.001   2.232 -0.9673 -1.5965 -2.2006
10195TIP3    H230522   8.050   0.049   2.256 -1.1966 -1.7009 -0.5968
10196TIP3   OH230523   0.838   2.887   5.758 -0.4163 -0.2902 -0.6248
10196TIP3    H130524   0.860   2.909   5.848  0.5719 -0.9196 -0.6975
10196TIP3    H230525   0.912   2.833   5.728 -0.4349  0.4302 -2.0041
10197TIP3   OH230526   1.650   4.816   6.395  0.1581  0.1742  0.0044
10197TIP3    H130527   1.660   4.811   6.490 -1.3479  1.6619  0.2663
10197TIP3    H230528   1.612   4.731   6.371  4.0461 -1.7085  0.1942
10198TIP3   OH230529   4.197   4.560   1.529 -0.2329  0.0372 -0.6129
10198TIP3    H130530   4.237   4.632   1.578  0.2551 -0.5704 -0.1070
10198TIP3    H230531   4.255   4.545   1.455  0.2901 -0.5894 -0.0886
10199TIP3   OH230532   4.382   5.920   0.341 -0.3856  0.1760  0.2995
10199TIP3    H130533   4.393   5.840   0.393 -0.1365 -0.1047 -0.1822
10199TIP3    H230534   4.308   5.964   0.381 -0.1848 -0.0302  0.9096
10200TIP3   OH230535   4.595   7.246   0.518  0.2083  0.1366 -0.1897
10200TIP3    H130536   4.527   7.266   0.582  0.9428  1.3970  0.2041
10200TIP3    H230537   4.678   7.266   0.562  0.6856  1.7773 -1.7902
10201TIP3   OH230538   5.050   7.630   0.901 -0.2455  0.3060  0.1714
10201TIP3    H130539   5.011   7.715   0.880 -0.3705  0.2731  0.2724
10201TIP3    H230540   4.976   7.574   0.924 -0.1784  0.1195 -0.0660
10202TIP3   OH230541   6.565   7.157   0.302 -0.5517  0.1079  0.0106
10202TIP3    H130542   6.590   7.115   0.384  0.3848 -0.4970 -0.5777
10202TIP3    H230543   6.642   7.149   0.246 -0.6374  1.8761 -0.4050
10203TIP3   OH230544   3.904   5.557   0.064 -0.3189 -0.6625  0.1100
10203TIP3    H130545   3.930   5.611  -0.010  1.3738 -1.9702 -0.2642
10203TIP3    H230546   3.810   5.542   0.051 -0.8157  2.1110  0.1930
10204TIP3   OH230547   5.908   7.275   1.688 -0.0649  0.2391  0.4493
10204TIP3    H130548   5.898   7.209   1.619  1.2025  0.6999 -0.1869
10204TIP3    H230549   5.828   7.328   1.681 -0.2251 -0.0857 -0.2586
10205TIP3   OH230550   6.375   5.840   0.171  0.0302 -0.4394 -0.1381
10205TIP3    H130551   6.368   5.934   0.160 -1.0664 -0.6283 -1.1066
10205TIP3    H230552   6.465   5.826   0.200  0.4763  0.8091 -0.8970
10206TIP3   OH230553   5.245   6.903   1.345  0.0663  0.0353  0.2493
10206TIP3    H130554   5.264   6.811   1.360  1.4650  0.4495  1.0047
10206TIP3    H230555   5.323   6.938   1.303 -0.3560  0.9409  0.1938
10207TIP3   OH230556   6.241   5.709   1.231  0.1782  0.3092  0.1952
10207TIP3    H130557   6.268   5.800   1.244 -1.3918  0.6414  1.2577
10207TIP3    H230558   6.265   5.689   1.141 -0.7037  2.2224 -0.4747
10208TIP3   OH230559   4.036   1.724   5.114 -0.4907 -0.4538 -0.0655
10208TIP3    H130560   4.014   1.747   5.204  2.5591  0.3642  0.5241
10208TIP3    H230561   4.095   1.650   5.122 -0.3029 -0.4559 -1.4034
10209TIP3   OH230562   6.357   2.743   3.122  0.1433  0.1896 -0.6073
10209TIP3    H130563   6.363   2.830   3.163  0.0175  0.6663 -1.5942
10209TIP3    H230564   6.363   2.760   3.028  0.7188 -0.9295 -0.7821
10210TIP3   OH230565   3.561   2.863   6.919  0.5099  0.2959 -0.2946
10210TIP3    H130566   3.595   2.791   6.866 -0.5921  0.3035 -1.0384
10210TIP3    H230567   3.612   2.939   6.891 -0.0292  0.2889 -1.3274
10211TIP3   OH230568   6.931   7.600   1.639  0.0421 -0.2346 -0.3402
10211TIP3    H130569   6.965   7.633   1.556 -0.6970 -2.0685 -1.4028
10211TIP3    H230570   6.986   7.641   1.706  2.2834 -0.7180 -1.8500
10212TIP3   OH230571   3.439   3.658   6.459  0.6279  0.0554  0.1651
10212TIP3    H130572   3.419   3.619   6.374  0.7493 -0.6740  0.4704
10212TIP3    H230573   3.501   3.598   6.499 -1.9410 -1.3610  2.1476
10213TIP3   OH230574   3.374   3.831   5.769  0.5462  0.2837  0.0710
10213TIP3    H130575   3.427   3.806   5.693  0.1102  0.8501 -0.4230
10213TIP3    H230576   3.291   3.785   5.755  0.0857  1.2386 -0.3459
10214TIP3   OH230577   5.471   6.988   1.231  0.1241 -0.4799  0.1709
10214TIP3    H130578   5.562   7.013   1.217 -0.5447  0.6738 -2.5602
10214TIP3    H230579   5.420   7.058   1.189 -1.9172 -3.0239 -1.7839
10215TIP3   OH230580   5.254   6.805   0.736 -0.3927 -0.1634 -0.5741
10215TIP3    H130581   5.190   6.872   0.713 -0.5565 -0.3087 -0.5446
10215TIP3    H230582   5.290   6.834   0.820  0.4491  0.5416 -1.1657
10216TIP3   OH230583   2.610   2.580   6.449  0.0786  0.1725  0.1506
10216TIP3    H130584   2.668   2.593   6.523 -0.4089  1.1278  0.3655
10216TIP3    H230585   2.575   2.667   6.429  0.3640 -0.0336 -1.3260
10217TIP3   OH230586   0.764   4.314   1.932  0.2733 -0.1056 -0.1233
10217TIP3    H130587   0.802   4.226   1.939 -2.1623 -1.2811 -0.6964
10217TIP3    H230588   0.710   4.323   2.011 -1.1960 -0.0423 -1.1058
10218TIP3   OH230589   3.807   1.748   6.415 -0.1748 -0.4388 -0.3761
10218TIP3    H130590   3.752   1.702   6.351  0.8253 -0.5104 -1.1951
10218TIP3    H230591   3.838   1.825   6.369 -0.3414  0.1016  0.3983
10219TIP3   OH230592   3.500   2.149   6.658 -0.3727  0.2974  0.4803
10219TIP3    H130593   3.512   2.189   6.573 -0.3349 -0.0660  0.3126
10219TIP3    H230594   3.408   2.123   6.660 -0.0517 -0.9020  0.0196
10220TIP3   OH230595   4.415   6.329   0.117 -0.3814 -0.1481  0.1009
10220TIP3    H130596   4.343   6.386   0.145  0.2788  1.9395 -2.2200
10220TIP3    H230597   4.376   6.274   0.049  0.5267  2.1894 -2.4273
10221TIP3   OH230598   3.581   2.874   6.246  0.5578  0.1217 -0.2270
10221TIP3    H130599   3.595   2.780   6.233 -0.7550  0.0684 -1.3807
10221TIP3    H230600   3.486   2.885   6.244  0.5966  1.1931  2.0909
10222TIP3   OH230601   7.137   6.627   0.276  0.1523 -0.4652  0.0198
10222TIP3    H130602   7.183   6.543   0.278  0.1280 -0.4617  2.3536
10222TIP3    H230603   7.132   6.654   0.368  1.1452  2.6287 -0.7437
10223TIP3   OH230604   1.741   2.917   5.276 -0.0585  0.0407  0.3494
10223TIP3    H130605   1.753   2.825   5.302  0.6745 -0.6501 -2.2587
10223TIP3    H230606   1.710   2.912   5.185 -1.5909  2.3598  0.6947
10224TIP3   OH230607   3.150   4.053   5.779 -0.2684  0.0350  0.0794
10224TIP3    H130608   3.219   4.043   5.713  1.3679 -0.5324  1.8583
10224TIP3    H230609   3.151   3.971   5.827 -3.6017 -0.7875 -1.1529
10225TIP3   OH230610   2.714   1.330   5.923  0.3150 -0.3930  0.2673
10225TIP3    H130611   2.678   1.266   5.863  0.4583 -0.0800 -0.1534
10225TIP3    H230612   2.648   1.339   5.991 -1.1347  1.3605 -1.3381
10226TIP3   OH230613   2.834   1.312   1.418 -0.2999  0.1073  0.2665
10226TIP3    H130614   2.764   1.261   1.457 -1.1331  1.0309 -0.0129
10226TIP3    H230615   2.881   1.349   1.493 -0.3945 -0.1341  0.4441
10227TIP3   OH230616   3.356   7.577   0.384 -0.2442  0.5343 -0.5534
10227TIP3    H130617   3.380   7.523   0.308 -0.8923  0.2290 -0.5513
10227TIP3    H230618   3.271   7.615   0.360 -1.3198 -0.9941  0.7411
10228TIP3   OH230619   5.860   7.859   0.427 -0.4567  0.5363 -0.8203
10228TIP3    H130620   5.820   7.783   0.386  1.7404 -1.3480  0.4539
10228TIP3    H230621   5.794   7.888   0.491 -1.1632 -0.4884 -1.0675
10229TIP3   OH230622   3.800   6.944   0.993 -0.1378 -0.1631 -0.4914
10229TIP3    H130623   3.771   6.981   1.076 -0.5689 -0.7427 -0.3817
10229TIP3    H230624   3.893   6.965   0.988 -0.4015  1.0235 -0.4846
10230TIP3   OH230625   1.195   0.514   1.147  0.0398 -0.4251  0.1276
10230TIP3    H130626   1.185   0.425   1.112 -0.0205  0.2895 -1.7084
10230TIP3    H230627   1.278   0.511   1.194 -0.2637 -1.6286  0.6167
10231TIP3   OH230628   3.160   2.126   5.481  0.2465  0.0115  0.3545
10231TIP3    H130629   3.103   2.052   5.463  0.3816 -0.0590  0.2211
10231TIP3    H230630   3.153   2.139   5.576  0.1985 -0.1506  0.3727
10232TIP3   OH230631   2.611   2.920   5.432  0.2579 -0.2196  0.1266
10232TIP3    H130632   2.549   2.989   5.411  2.6531  1.6083 -1.1199
10232TIP3    H230633   2.641   2.940   5.521 -0.4693 -0.7748  0.5054
10233TIP3   OH230634   3.051   5.907   6.664  0.8939 -0.0299 -0.0853
10233TIP3    H130635   2.966   5.919   6.707  0.5561  0.4255 -0.8691
10233TIP3    H230636   3.085   5.826   6.701  0.8434  0.6297  1.4243
10234TIP3   OH230637   2.946   1.323   5.359  0.2982  0.4624 -0.1795
10234TIP3    H130638   2.897   1.328   5.441  0.9853 -1.7102  0.4074
10234TIP3    H230639   2.880   1.314   5.291 -0.1968 -0.5894  0.4282
10235TIP3   OH230640   7.560   0.478   0.737 -0.2994  0.4593 -0.1455
10235TIP3    H130641   7.525   0.534   0.806  0.7397 -0.4770  1.1691
10235TIP3    H230642   7.516   0.507   0.658 -2.5649  0.6086  1.1331
10236TIP3   OH230643   3.110   1.597   4.476  1.1457  0.1095 -0.2091
10236TIP3    H130644   3.014   1.602   4.474  1.2159  0.7907 -2.4230
10236TIP3    H230645   3.129   1.504   4.470  0.6392 -0.0287  0.2305
10237TIP3   OH230646   3.371   1.003   6.236 -0.2410  0.0533 -1.0792
10237TIP3    H130647   3.309   0.977   6.303  1.1192 -0.6732 -0.1008
10237TIP3    H230648   3.346   0.952   6.159 -0.7426 -0.3593 -0.6439
10238TIP3   OH230649   3.676   2.444   5.066  0.5863 -0.9584  0.7458
10238TIP3    H130650   3.747   2.380   5.078  1.2191 -0.0847  1.7582
10238TIP3    H230651   3.600   2.391   5.044  1.2925 -2.0042  0.7553
10239TIP3   OH230652   4.651   6.816   1.327 -0.0400  0.8775  0.0213
10239TIP3    H130653   4.714   6.888   1.322 -0.1622  1.0412  0.7448
10239TIP3    H230654   4.583   6.839   1.264  1.3231 -0.0011 -1.8071
10240TIP3   OH230655   0.125   1.335   0.688 -0.2982 -0.1556 -0.2874
10240TIP3    H130656   0.201   1.313   0.743 -0.2026  1.2732  0.1677
10240TIP3    H230657   0.147   1.298   0.602  0.6474 -0.2728 -0.0084
10241TIP3   OH230658   3.655   1.856   2.327  0.5715 -0.2865 -0.0479
10241TIP3    H130659   3.751   1.856   2.323  0.6419  0.4627  1.3717
10241TIP3    H230660   3.635   1.807   2.406 -0.1374  1.3479  0.8200
10242TIP3   OH230661   7.019   7.869   0.353  0.0114 -0.5132  0.1818
10242TIP3    H130662   6.950   7.817   0.312  0.9360 -1.4177 -0.2436
10242TIP3    H230663   7.009   7.956   0.314  0.3528 -1.1435 -1.3592
10243TIP3   OH230664   2.788   5.396   6.058 -0.1050 -0.2881 -0.2416
10243TIP3    H130665   2.792   5.303   6.082  1.2248 -0.4027 -0.8359
10243TIP3    H230666   2.705   5.427   6.094 -0.2768 -1.5605  0.4832
10244TIP3   OH230667   7.969   0.177   0.959 -0.7116  0.4573  0.3906
10244TIP3    H130668   8.043   0.209   1.010  0.7554 -1.1374 -0.6761
10244TIP3    H230669   7.996   0.091   0.928 -1.2216  1.6606 -3.7254
10245TIP3   OH230670   3.078   3.249   5.872 -0.1813 -0.6883 -0.2397
10245TIP3    H130671   3.036   3.321   5.920 -0.2859 -0.6890 -0.3308
10245TIP3    H230672   3.119   3.196   5.940 -1.3721 -1.3718 -0.0417
10246TIP3   OH230673   3.735   3.389   5.987 -0.7331 -0.4350  0.3194
10246TIP3    H130674   3.803   3.452   5.963 -1.8483 -0.6908 -3.9235
10246TIP3    H230675   3.655   3.442   5.996 -0.8141 -0.6820  1.0706
10247TIP3   OH230676   8.442   1.209   1.297 -0.2091 -0.2125 -0.5080
10247TIP3    H130677   8.354   1.217   1.259  0.0517 -0.0153 -1.0755
10247TIP3    H230678   8.464   1.298   1.324 -0.2815 -0.3041 -0.1462
10248TIP3   OH230679   6.170   7.130   0.291 -0.1840 -0.0263  0.4472
10248TIP3    H130680   6.153   7.039   0.267 -0.3545  0.2280 -0.4130
10248TIP3    H230681   6.104   7.150   0.357  0.3916 -0.7870  1.2544
10249TIP3   OH230682   4.514   2.177   6.055  0.0314  0.4702  0.1690
10249TIP3    H130683   4.453   2.163   5.982 -1.6138  0.0449  1.5890
10249TIP3    H230684   4.593   2.131   6.029 -0.8546 -0.4525 -0.9560
10250TIP3   OH230685   3.889   1.164   6.857  0.3289  0.3266  0.3259
10250TIP3    H130686   3.826   1.095   6.837  0.0342  0.4319  0.9038
10250TIP3    H230687   3.962   1.148   6.797 -1.8613  2.4872 -3.1210
10251TIP3   OH230688   0.259   1.101   6.170 -0.1662  0.3785 -0.3073
10251TIP3    H130689   0.224   1.043   6.103  0.1340  0.3250 -0.4163
10251TIP3    H230690   0.185   1.156   6.195 -0.6787 -0.6378  0.4292
10252TIP3   OH230691   4.596   0.560   4.220 -0.6095  0.1698  0.2521
10252TIP3    H130692   4.671   0.501   4.209 -1.8199 -1.6014  1.3664
10252TIP3    H230693   4.539   0.541   4.146 -0.5835  0.5715  0.1281
10253TIP3   OH230694   2.140   3.299   5.187  0.0279  0.1843  0.0201
10253TIP3    H130695   2.125   3.326   5.278 -1.9182  0.8922 -0.4917
10253TIP3    H230696   2.058   3.256   5.161  0.1917  0.9105 -1.7357
10254TIP3   OH230697   1.927   2.575   6.187  0.0787  0.6211 -0.1270
10254TIP3    H130698   1.981   2.647   6.219 -1.2123  1.3344  0.4988
10254TIP3    H230699   1.904   2.525   6.265  0.7896 -0.3418 -0.5372
10255TIP3   OH230700   4.827   5.148   1.270 -0.1677  0.0216 -0.2025
10255TIP3    H130701   4.878   5.073   1.301  0.6816  0.1484 -1.2504
10255TIP3    H230702   4.866   5.224   1.315  1.8960  0.3657 -2.4312
10256TIP3   OH230703   4.775   7.536   0.117 -0.4087  0.0466 -0.3600
10256TIP3    H130704   4.812   7.553   0.204  0.3769  0.0238 -0.6888
10256TIP3    H230705   4.702   7.598   0.110  1.3651  2.1532 -0.8745
10257TIP3   OH230706   8.388   4.013   2.757 -0.2167  0.2322  0.0167
10257TIP3    H130707   8.348   3.937   2.715  0.7016  0.0951 -0.6189
10257TIP3    H230708   8.333   4.030   2.833 -0.4696 -1.0247  0.1258
10258TIP3   OH230709   4.304   1.746   5.313  0.8017  0.0385 -0.4983
10258TIP3    H130710   4.321   1.804   5.387 -0.6478  0.3282 -0.3952
10258TIP3    H230711   4.246   1.678   5.347  0.7083 -0.2325 -1.1800
10259TIP3   OH230712   3.249   2.593   6.500  0.6083  0.0895  0.9832
10259TIP3    H130713   3.312   2.564   6.434  0.6640  1.8160  0.2645
10259TIP3    H230714   3.290   2.669   6.541  0.1576 -0.4023  2.3743
10260TIP3   OH230715   7.129   5.954   0.291 -0.6896 -0.5662  0.1457
10260TIP3    H130716   7.115   6.044   0.320 -1.1132 -0.7370  0.4838
10260TIP3    H230717   7.165   5.962   0.203  1.2596 -0.0326  0.9575
10261TIP3   OH230718   7.052   5.475   0.297 -0.2912 -0.3229  0.1465
10261TIP3    H130719   7.041   5.566   0.324  0.8551  0.2946 -1.3554
10261TIP3    H230720   7.028   5.475   0.204  2.4413 -0.9663 -0.5986
10262TIP3   OH230721   1.728   2.366   6.666 -0.2478 -0.0536 -0.1488
10262TIP3    H130722   1.720   2.424   6.741 -3.7880 -0.9512  0.2904
10262TIP3    H230723   1.699   2.419   6.592  1.3279  0.2230 -0.5851
10263TIP3   OH230724   3.678   1.383   4.590 -0.1946  0.3855 -0.1731
10263TIP3    H130725   3.620   1.395   4.515  0.5879 -1.1849 -1.0490
10263TIP3    H230726   3.621   1.351   4.659 -0.7100  0.7166 -0.4410
10264TIP3   OH230727   6.253   7.163   0.699 -0.3635 -0.4119  0.1922
10264TIP3    H130728   6.256   7.257   0.679 -1.7075 -0.0031  1.8558
10264TIP3    H230729   6.173   7.132   0.655 -0.0525 -0.7430 -0.1471
10265TIP3   OH230730   1.919   6.927   1.505  0.2617  0.2253 -0.1126
10265TIP3    H130731   1.915   6.909   1.412 -0.4411 -1.8108  0.2735
10265TIP3    H230732   1.831   6.905   1.537  0.6896  0.2669  1.1181
10266TIP3   OH230733   5.837   5.659   1.790 -0.4736 -0.1038  0.2431
10266TIP3    H130734   5.928   5.632   1.797 -0.2392  0.2821 -1.1462
10266TIP3    H230735   5.819   5.705   1.872  0.4181 -0.6484  0.7430
10267TIP3   OH230736   7.960   6.359   0.838 -0.0358  0.1351 -0.0418
10267TIP3    H130737   7.921   6.436   0.796 -0.0696  0.1052 -0.0652
10267TIP3    H230738   7.931   6.365   0.929  1.3374  1.0679  0.3589
10268TIP3   OH230739   6.202   4.933   0.580 -0.5667  0.1753 -0.0437
10268TIP3    H130740   6.258   4.856   0.593 -1.8671 -1.1222 -1.8714
10268TIP3    H230741   6.204   4.978   0.664  0.9611 -1.3600  0.7870
10269TIP3   OH230742   2.954   3.603   6.902 -0.3758  0.4122  1.0704
10269TIP3    H130743   3.004   3.676   6.865 -0.6426 -0.4404 -1.0472
10269TIP3    H230744   3.003   3.525   6.877 -0.4028 -0.1820  2.8193
10270TIP3   OH230745   3.212   6.441   0.530  0.2942  0.5640 -0.1550
10270TIP3    H130746   3.278   6.452   0.597  1.3297 -3.4559 -0.3755
10270TIP3    H230747   3.135   6.408   0.577  0.6703 -1.1948 -0.7091
10271TIP3   OH230748   3.776   6.845   0.132 -0.0267  0.3096  0.2042
10271TIP3    H130749   3.855   6.851   0.185 -0.8621  1.0354  1.4058
10271TIP3    H230750   3.784   6.762   0.085  0.4142 -0.6756  1.9795
10272TIP3   OH230751   2.337   1.460   6.882  0.3037 -0.0495  0.3296
10272TIP3    H130752   2.407   1.450   6.818 -0.3714 -2.2421 -0.1004
10272TIP3    H230753   2.274   1.518   6.840  0.1350 -1.0189 -0.7865
10273TIP3   OH230754   1.845   2.865   6.546  0.0400  0.4124  0.5227
10273TIP3    H130755   1.904   2.938   6.528 -1.0661  1.4836  1.1444
10273TIP3    H230756   1.793   2.894   6.621 -1.9187 -0.0985 -0.5992
10274TIP3   OH230757   0.819   2.295   6.585 -0.0648 -0.5054 -0.1368
10274TIP3    H130758   0.731   2.323   6.610  0.0074 -2.7243  2.8290
10274TIP3    H230759   0.877   2.344   6.643  0.5726 -0.2506 -0.9787
10275TIP3   OH230760   2.774   3.058   6.754  0.2128  0.0752  0.0889
10275TIP3    H130761   2.838   3.128   6.748  0.5070 -0.2845 -1.0459
10275TIP3    H230762   2.813   2.985   6.706 -0.4387 -0.6044  0.5693
10276TIP3   OH230763   2.086   1.701   3.914  0.1129  0.4115 -0.1102
10276TIP3    H130764   2.128   1.745   3.988  1.1436 -1.0531  0.2040
10276TIP3    H230765   2.140   1.724   3.839 -0.4228  1.1893 -0.2524
10277TIP3   OH230766   1.573   0.431   0.445  0.6852 -0.1879 -0.3484
10277TIP3    H130767   1.479   0.444   0.431  0.8409  0.6628 -0.5986
10277TIP3    H230768   1.616   0.479   0.374  1.3589  1.2018  0.9578
10278TIP3   OH230769   2.537   1.356   6.436  0.6901  0.4136  0.3423
10278TIP3    H130770   2.457   1.306   6.421  1.1755 -0.3507  0.3198
10278TIP3    H230771   2.590   1.301   6.493  1.3828  0.7386  0.0168
10279TIP3   OH230772   4.788   7.081   0.782 -0.2339  0.4837  0.0255
10279TIP3    H130773   4.789   7.152   0.718  0.3032 -0.0532 -0.5602
10279TIP3    H230774   4.728   7.112   0.851 -0.2111  1.3837 -0.3551
10280TIP3   OH230775   0.901   2.455   4.996  0.0905  0.3463  0.0438
10280TIP3    H130776   0.984   2.496   4.970  0.2196  0.0072 -0.0777
10280TIP3    H230777   0.897   2.375   4.943 -0.1018  0.1369  0.3790
10281TIP3   OH230778   5.432   7.113   0.642  0.1647 -0.0204 -0.0504
10281TIP3    H130779   5.483   7.131   0.563 -1.6301 -3.9176 -2.2234
10281TIP3    H230780   5.346   7.151   0.624 -0.9838 -2.9564 -1.0694
10282TIP3   OH230781   2.688   2.798   6.877  0.3891  0.6000 -0.0559
10282TIP3    H130782   2.765   2.746   6.855  0.0837  0.9579 -2.0864
10282TIP3    H230783   2.697   2.878   6.825 -1.2792  0.6846 -0.2540
10283TIP3   OH230784   6.901   5.899   0.624 -0.1174  0.6249 -0.0759
10283TIP3    H130785   6.955   5.970   0.658 -0.8123  0.8610  0.5657
10283TIP3    H230786   6.823   5.943   0.590 -0.6446  0.1512  0.5171
10284TIP3   OH230787   4.720   1.430   4.691 -0.6464  0.2046 -0.1902
10284TIP3    H130788   4.757   1.358   4.742 -2.3307 -0.8065 -0.3438
10284TIP3    H230789   4.649   1.389   4.641 -1.4678  1.9406 -0.4656
10285TIP3   OH230790   0.872   0.056   0.196 -0.6360 -0.1019 -0.8897
10285TIP3    H130791   0.912   0.118   0.257 -1.0072  0.0425 -0.7904
10285TIP3    H230792   0.777   0.068   0.209 -0.7070 -0.7238 -0.8342
10286TIP3   OH230793   1.224   4.694   5.138 -0.0252 -0.1960  0.2851
10286TIP3    H130794   1.167   4.629   5.096 -1.1232  1.2549 -0.4932
10286TIP3    H230795   1.207   4.683   5.232  0.4593 -1.6183  0.2233
10287TIP3   OH230796   5.696   7.878   0.651  0.9867  0.4372  0.3841
10287TIP3    H130797   5.610   7.844   0.629  2.3027 -2.3127 -0.7949
10287TIP3    H230798   5.715   7.842   0.737 -0.2847  3.6251  2.0976
10288TIP3   OH230799   3.292   5.203   0.874  0.1623 -0.0449 -0.2324
10288TIP3    H130800   3.245   5.149   0.809 -2.9504  0.6929  1.2935
10288TIP3    H230801   3.293   5.291   0.835 -0.4856  0.1036  0.0652
10289TIP3   OH230802   3.394   5.543   0.701 -0.0986  0.2822  0.4313
10289TIP3    H130803   3.323   5.513   0.759 -2.0540  0.8653 -1.5752
10289TIP3    H230804   3.408   5.471   0.640  0.7105  0.3569  0.5222
10290TIP3   OH230805   4.471   4.886   0.428  1.1480 -0.1342  0.2549
10290TIP3    H130806   4.433   4.832   0.360 -0.0617  2.9385 -1.6276
10290TIP3    H230807   4.561   4.855   0.437  1.7144  0.2241 -3.6512
10291TIP3   OH230808   4.789   4.657   5.969  0.4281 -0.3622  0.7234
10291TIP3    H130809   4.852   4.729   5.978 -0.2221  0.1239  1.3680
10291TIP3    H230810   4.809   4.597   6.040  1.6824 -1.3812 -0.4532
10292TIP3   OH230811   2.470   3.813   6.255  0.3518  0.2659  0.5264
10292TIP3    H130812   2.531   3.744   6.281  0.1123  0.4241  1.5058
10292TIP3    H230813   2.471   3.810   6.159  3.8777  2.0090  0.4436
10293TIP3   OH230814   7.211   5.963   0.022  0.2145  0.3346  0.1342
10293TIP3    H130815   7.300   5.943   0.052  0.0119  0.8673  1.0814
10293TIP3    H230816   7.192   5.893  -0.041  0.1461 -1.5484  2.1755
10294TIP3   OH230817   2.206   1.636   5.638  0.0502 -0.0917 -0.0565
10294TIP3    H130818   2.137   1.571   5.624 -0.3177 -0.1789  1.9759
10294TIP3    H230819   2.278   1.587   5.677  0.6943  0.2873 -0.7583
10295TIP3   OH230820   5.478   6.385   0.237  0.2052  0.0155  0.1474
10295TIP3    H130821   5.451   6.406   0.326 -0.2341  0.1822 -0.0236
10295TIP3    H230822   5.574   6.390   0.238  0.1057  2.6736 -0.0436
10296TIP3   OH230823   5.614   1.927   6.302 -0.4240 -0.0193 -0.2154
10296TIP3    H130824   5.680   1.858   6.286  0.1525  0.8219 -1.5700
10296TIP3    H230825   5.651   1.979   6.373 -0.4586 -0.6195  0.2416
10297TIP3   OH230826   6.265   4.685   0.899 -0.0199 -0.7409 -0.5745
10297TIP3    H130827   6.300   4.761   0.946  0.0365 -1.0993 -0.0298
10297TIP3    H230828   6.300   4.693   0.811  1.2377 -0.9582 -0.1016
10298TIP3   OH230829   7.245   7.420   0.430  0.2901 -0.4885  0.0784
10298TIP3    H130830   7.274   7.458   0.512  1.7716 -1.5175  0.0507
10298TIP3    H230831   7.170   7.365   0.454 -0.8829  1.1861  0.3417
10299TIP3   OH230832   8.407   0.246   1.239  1.0453 -0.5638 -0.0283
10299TIP3    H130833   8.411   0.338   1.267  2.0501 -0.4091 -0.6676
10299TIP3    H230834   8.436   0.247   1.148 -1.0478 -1.2342 -0.7367
10300TIP3   OH230835   4.208   4.056   5.239 -0.2804 -0.0458 -0.3990
10300TIP3    H130836   4.229   3.972   5.279 -2.0831 -1.1652 -1.6943
10300TIP3    H230837   4.276   4.069   5.173  1.6705  0.9598  1.7345
10301TIP3   OH230838   2.868   3.168   5.670 -0.4577  0.3076  0.7141
10301TIP3    H130839   2.945   3.163   5.614  1.0387 -1.9363  2.8940
10301TIP3    H230840   2.902   3.192   5.756 -1.9873 -2.2232  2.0719
10302TIP3   OH230841   7.001   1.305   0.464 -0.0453 -0.1379  0.2665
10302TIP3    H130842   7.061   1.256   0.519 -1.3307 -0.6042  1.2591
10302TIP3    H230843   6.941   1.347   0.525 -1.0960 -0.1525 -0.7456
10303TIP3   OH230844   7.777   5.482   1.771  0.0428 -0.3167 -0.3591
10303TIP3    H130845   7.860   5.500   1.815  0.7277  1.6450 -2.3440
10303TIP3    H230846   7.795   5.502   1.679 -2.3243 -0.9861 -0.9911
10304TIP3   OH230847   5.107   6.161   0.611 -0.0551  0.7650 -0.2160
10304TIP3    H130848   5.058   6.242   0.625  0.6358  1.1915 -0.2449
10304TIP3    H230849   5.062   6.097   0.666  0.0549  1.4220  0.6545
10305TIP3   OH230850   0.881   4.693   4.443  0.4052  0.2134  0.3326
10305TIP3    H130851   0.882   4.652   4.529  0.8736  1.4114  0.9028
10305TIP3    H230852   0.793   4.676   4.409  0.9954 -2.3955 -0.0157
10306TIP3   OH230853   0.436   0.103   0.966 -0.0691 -0.1117  0.0987
10306TIP3    H130854   0.477   0.188   0.981 -0.2233 -0.2696  1.4641
10306TIP3    H230855   0.389   0.113   0.883  0.8713  0.7642 -0.3400
10307TIP3   OH230856   2.927   2.160   5.962 -0.6847 -0.4482  0.3527
10307TIP3    H130857   2.847   2.212   5.970  0.4976  1.1540  2.4034
10307TIP3    H230858   2.983   2.191   6.034  1.4409 -2.1218 -0.5215
10308TIP3   OH230859   3.655   1.725   5.923 -0.0122 -0.4784  0.5827
10308TIP3    H130860   3.579   1.672   5.944  1.5220 -2.5044  1.2484
10308TIP3    H230861   3.668   1.714   5.829 -1.3222  0.9588  0.2283
10309TIP3   OH230862   2.662   2.064   4.528 -0.2789 -0.2825  0.1826
10309TIP3    H130863   2.746   2.100   4.557 -0.8067 -1.3327  3.0981
10309TIP3    H230864   2.598   2.102   4.588 -1.3380 -2.8510  0.7107
10310TIP3   OH230865   5.013   0.791   6.343 -0.1122 -0.2105 -0.0065
10310TIP3    H130866   5.006   0.720   6.278 -1.3385  0.7969 -0.9853
10310TIP3    H230867   5.107   0.808   6.349 -0.0283  0.0294 -1.8914
10311TIP3   OH230868   6.855   4.973   1.231  0.3115 -0.0280 -0.4602
10311TIP3    H130869   6.914   5.004   1.163  0.3008 -1.0937 -0.9768
10311TIP3    H230870   6.910   4.966   1.310  0.2477  1.5035 -0.2746
10312TIP3   OH230871   4.182   0.841   5.843 -0.7231 -0.2897 -0.0829
10312TIP3    H130872   4.269   0.881   5.841 -1.4673  1.4948  1.5532
10312TIP3    H230873   4.174   0.806   5.932 -1.5244 -0.8092 -0.3540
10313TIP3   OH230874   8.481   1.689   0.323 -0.7849 -0.7463 -0.2260
10313TIP3    H130875   8.387   1.672   0.338 -1.0087 -0.1802 -0.9559
10313TIP3    H230876   8.494   1.670   0.230 -0.4333  0.3285 -0.4022
10314TIP3   OH230877   3.611   7.659   1.047  0.5319 -0.2073 -0.2327
10314TIP3    H130878   3.573   7.571   1.042  2.1682 -0.9099 -0.5675
10314TIP3    H230879   3.692   7.647   1.096  0.9747  1.0489 -0.6526
10315TIP3   OH230880   3.845   2.695   5.816  0.1882 -0.1164 -0.1310
10315TIP3    H130881   3.753   2.709   5.792  0.2873 -1.9391 -1.6655
10315TIP3    H230882   3.845   2.611   5.861  0.7280  1.1059  2.2276
10316TIP3   OH230883   6.529   7.284   5.414 -0.2424 -0.3616  0.7144
10316TIP3    H130884   6.575   7.365   5.393 -0.8614 -0.0388  0.5811
10316TIP3    H230885   6.598   7.222   5.436  0.4656 -0.7129 -2.2497
10317TIP3   OH230886   2.548   4.372   6.784 -0.0519  0.0668  0.2828
10317TIP3    H130887   2.483   4.365   6.714  0.1399  1.4675 -0.0587
10317TIP3    H230888   2.624   4.324   6.750 -0.6239 -0.8915  0.3481
10318TIP3   OH230889   0.793   0.269   0.757  0.4093  0.3490 -0.3902
10318TIP3    H130890   0.877   0.307   0.733  0.7738 -0.8262 -1.0278
10318TIP3    H230891   0.753   0.245   0.674  0.0730 -0.4113 -0.0120
10319TIP3   OH230892   0.952   7.952   1.139 -0.3457  0.6061  0.2003
10319TIP3    H130893   1.030   7.897   1.141 -0.6416  0.1816  0.1463
10319TIP3    H230894   0.879   7.890   1.138 -0.6591  0.9476 -1.8690
10320TIP3   OH230895   2.494   2.032   6.467 -0.5623 -0.7702 -0.0485
10320TIP3    H130896   2.501   2.124   6.442 -0.5543 -0.6358  0.4384
10320TIP3    H230897   2.476   2.034   6.561  0.5107 -1.2818  0.1816
10321TIP3   OH230898   5.267   7.672   0.378  0.2923 -0.1106  0.2397
10321TIP3    H130899   5.288   7.690   0.287 -3.0019  2.7669 -0.0603
10321TIP3    H230900   5.171   7.669   0.381  0.3483 -1.0690  3.4256
10322TIP3   OH230901   5.150   7.196   0.616  0.1615 -0.5948 -0.6094
10322TIP3    H130902   5.166   7.270   0.675 -0.0057 -1.2281  0.2180
10322TIP3    H230903   5.070   7.156   0.648 -0.3937 -0.4390 -1.7751
10323TIP3   OH230904   4.851   5.723   1.627  0.2706 -0.1312  0.4972
10323TIP3    H130905   4.766   5.760   1.605 -0.3798 -1.5612  0.4979
10323TIP3    H230906   4.878   5.768   1.707 -0.5677  0.2025  0.5913
10324TIP3   OH230907   6.696   7.120   5.582 -0.2121 -0.1155 -0.1318
10324TIP3    H130908   6.720   7.091   5.494  0.9294  1.8305 -0.4785
10324TIP3    H230909   6.720   7.046   5.638 -1.8346 -1.7411 -1.5482
10325TIP3   OH230910   2.651   3.646   6.355 -0.2868 -0.2488  0.1459
10325TIP3    H130911   2.715   3.685   6.415 -2.8131 -0.5902  3.1999
10325TIP3    H230912   2.666   3.552   6.362  0.0870 -0.2396 -0.5446
10326TIP3   OH230913   4.421   2.077   4.374 -0.1328 -0.5406  0.0549
10326TIP3    H130914   4.380   2.072   4.460 -1.6178 -1.1646 -0.6640
10326TIP3    H230915   4.463   1.992   4.363 -1.4003 -1.1052 -0.5288
10327TIP3   OH230916   7.526   7.784   1.118  0.4134  0.1108  0.8500
10327TIP3    H130917   7.474   7.848   1.166 -0.0956  0.9341 -0.7457
10327TIP3    H230918   7.472   7.760   1.043  0.8605 -1.7498  1.0945
10328TIP3   OH230919   3.670   7.466   0.206 -0.2480  0.3682  0.1748
10328TIP3    H130920   3.659   7.496   0.297 -3.7762 -1.0407  0.3066
10328TIP3    H230921   3.580   7.461   0.172  0.8967 -1.0163 -2.7755
10329TIP3   OH230922   2.820   4.041   6.918 -0.2376  0.2738  0.3128
10329TIP3    H130923   2.825   3.981   6.992 -1.0742 -1.2901 -0.8877
10329TIP3    H230924   2.730   4.035   6.888  0.3463  0.1158 -1.4604
10330TIP3   OH230925   4.231   5.978   0.608  0.0217 -0.2025  0.3186
10330TIP3    H130926   4.160   6.041   0.598  0.9556  1.1152  1.7943
10330TIP3    H230927   4.189   5.892   0.598 -1.5044  0.5981 -0.2621
10331TIP3   OH230928   2.508   1.959   6.029 -0.7014 -0.2284  0.1397
10331TIP3    H130929   2.477   1.888   5.974  0.8250 -0.1109 -0.8940
10331TIP3    H230930   2.519   2.033   5.969  2.1270 -0.4346  0.3180
10332TIP3   OH230931   3.579   3.396   6.536  0.1700  0.1386  0.2853
10332TIP3    H130932   3.548   3.349   6.459  0.5193  0.6072 -0.1484
10332TIP3    H230933   3.517   3.373   6.606 -0.8720  0.7122 -0.4473
10333TIP3   OH230934   1.460   1.255   6.235 -0.4490  0.0821 -0.1613
10333TIP3    H130935   1.392   1.194   6.263  1.6573 -2.0904  0.3673
10333TIP3    H230936   1.470   1.317   6.307 -1.0165 -0.3200  0.2550
10334TIP3   OH230937   1.483   2.088   6.931 -0.1901 -0.0764 -0.0965
10334TIP3    H130938   1.469   2.000   6.967  1.0699 -1.1752 -2.1573
10334TIP3    H230939   1.573   2.087   6.899 -0.6936  1.3857 -1.6739
10335TIP3   OH230940   5.129   5.949   0.383 -0.1433 -0.4834 -0.2008
10335TIP3    H130941   5.066   5.980   0.447  0.4598 -1.1678  0.7442
10335TIP3    H230942   5.186   6.024   0.366  0.1112 -0.4889  0.5868
10336TIP3   OH230943   3.355   4.133   5.139 -0.4653  0.2052 -0.0162
10336TIP3    H130944   3.436   4.114   5.185  0.4856 -0.2680 -1.8226
10336TIP3    H230945   3.381   4.185   5.063 -1.6095 -1.3229 -1.5107
10337TIP3   OH230946   7.936   5.826   1.568  0.4352  0.3804  0.1045
10337TIP3    H130947   7.958   5.903   1.515  1.9221  1.1726  1.8054
10337TIP3    H230948   7.841   5.822   1.566  0.3397  2.1461 -0.1880
10338TIP3   OH230949   8.228   4.708   1.938 -0.3185  0.1817 -0.3015
10338TIP3    H130950   8.240   4.644   1.868  1.7930  0.6323 -0.3774
10338TIP3    H230951   8.227   4.656   2.018 -3.6467 -0.4386 -0.6600
10339TIP3   OH230952   6.031   7.289   1.323  0.1512  0.7349  0.8730
10339TIP3    H130953   6.028   7.374   1.366 -1.4215  1.1056  0.0554
10339TIP3    H230954   6.016   7.308   1.230 -0.1861 -0.4166  0.6803
10340TIP3   OH230955   3.563   6.711   0.685  0.0285 -0.0178 -0.1943
10340TIP3    H130956   3.530   6.797   0.713 -0.4953 -0.1384 -0.4486
10340TIP3    H230957   3.593   6.725   0.595 -0.7162 -0.2775 -0.4823
10341TIP3   OH230958   6.045   3.958   0.325  0.8157  0.1090 -0.1593
10341TIP3    H130959   6.011   3.873   0.352  1.5669  0.0742  0.6978
10341TIP3    H230960   5.967   4.011   0.308  0.3502 -0.4419  0.2720
10342TIP3   OH230961   3.127   1.076   6.641 -0.5777 -0.6172 -0.2259
10342TIP3    H130962   3.071   1.056   6.717 -2.4707 -0.9289 -1.6650
10342TIP3    H230963   3.075   1.136   6.588  0.2163 -1.3716 -1.8899
10343TIP3   OH230964   0.067   6.389   1.777  0.0645  0.1353 -0.6187
10343TIP3    H130965   0.123   6.448   1.828  1.1890 -1.1713 -0.3040
10343TIP3    H230966  -0.010   6.376   1.832  0.3824  0.3216 -0.1259
10344TIP3   OH230967   6.545   4.410   1.665  0.3086 -0.4159  0.0881
10344TIP3    H130968   6.513   4.500   1.659 -0.3545 -0.5587  1.2609
10344TIP3    H230969   6.605   4.411   1.739  1.9754 -0.4701 -1.2416
10345TIP3   OH230970   5.027   5.413   2.387  0.2484 -0.1043 -0.1123
10345TIP3    H130971   4.936   5.394   2.366 -0.4678  1.1800  1.7038
10345TIP3    H230972   5.051   5.484   2.327  0.0022 -0.3365 -0.4840
10346TIP3   OH230973   6.061   6.760   0.440 -0.2432  0.3855 -0.1633
10346TIP3    H130974   6.126   6.830   0.442 -0.0265  0.1762  1.0734
10346TIP3    H230975   5.995   6.786   0.505 -1.6416  0.8081 -1.7299
10347TIP3   OH230976   5.345   6.750   0.166 -0.5103 -0.3405  0.0919
10347TIP3    H130977   5.324   6.659   0.187 -0.4289 -0.5968 -0.8879
10347TIP3    H230978   5.406   6.744   0.092 -3.5117  0.5721 -2.5842
10348TIP3   OH230979   0.642   2.283   5.518  0.0065  0.0100  0.3199
10348TIP3    H130980   0.684   2.365   5.492  0.9405 -0.7120 -0.4892
10348TIP3    H230981   0.686   2.258   5.599  1.7558 -1.1599 -0.9442
10349TIP3   OH230982   1.977   5.053   5.770 -0.6203  1.0825  0.5219
10349TIP3    H130983   1.920   5.028   5.698  0.7677 -2.4635  0.5082
10349TIP3    H230984   2.056   5.088   5.728  0.2567 -1.1370  0.2467
10350TIP3   OH230985   4.407   7.652   0.887 -0.0205 -0.3041 -0.1745
10350TIP3    H130986   4.467   7.714   0.846 -1.1736 -0.6101 -2.4105
10350TIP3    H230987   4.418   7.667   0.981  1.4506  1.6181 -0.6140
10351TIP3   OH230988   2.667   3.328   6.343 -0.5157 -0.5473 -0.0137
10351TIP3    H130989   2.632   3.260   6.401 -1.5858  1.8991  2.2849
10351TIP3    H230990   2.597   3.345   6.280 -0.6366 -0.8257  0.0450
10352TIP3   OH230991   5.847   4.093   0.534 -0.3149  0.1941  0.3860
10352TIP3    H130992   5.830   4.176   0.490  0.1027  0.8744  1.4793
10352TIP3    H230993   5.943   4.089   0.541 -0.1484 -1.6837 -2.0934
10353TIP3   OH230994   4.592   1.502   5.454  0.6301  0.0459 -0.2921
10353TIP3    H130995   4.545   1.420   5.438 -0.3939  0.4721  0.5272
10353TIP3    H230996   4.654   1.508   5.381  1.5458 -2.0491  0.2450
10354TIP3   OH230997   4.049   2.905   5.017 -0.8180 -0.1547  0.3997
10354TIP3    H130998   4.049   3.000   5.031  2.7171  0.0925 -0.8823
10354TIP3    H230999   4.043   2.895   4.922  0.3360 -1.1879  0.4321
10355TIP3   OH231000   5.414   4.892   0.648 -0.5983  0.1741  0.1623
10355TIP3    H131001   5.371   4.958   0.594 -0.6628  1.7078  2.0240
10355TIP3    H231002   5.490   4.864   0.596  0.7298  3.3807  0.2331
10356TIP3   OH231003   2.859   3.322   6.577 -1.0207 -0.4826 -0.3846
10356TIP3    H131004   2.817   3.308   6.493 -2.7435 -2.4748  0.7758
10356TIP3    H231005   2.950   3.293   6.564 -0.1584  2.9354 -2.6101
10357TIP3   OH231006   7.233   5.905   0.790 -0.2053 -0.1897 -0.2798
10357TIP3    H131007   7.193   5.992   0.797  0.7092  0.2961 -0.9094
10357TIP3    H231008   7.277   5.892   0.874 -1.1097 -0.4439  0.1635
10358TIP3   OH231009   3.527   1.818   3.396 -0.4879  0.4835 -1.0583
10358TIP3    H131010   3.606   1.764   3.390 -0.4043  0.5190 -0.3416
10358TIP3    H231011   3.461   1.770   3.347 -0.5713 -0.5503  0.0715
10359TIP3   OH231012   4.211   1.537   4.836  0.1174 -1.2589 -0.0097
10359TIP3    H131013   4.270   1.513   4.907  2.9530  0.3240 -1.7587
10359TIP3    H231014   4.206   1.458   4.782  2.2042 -0.8195 -0.8854
10360TIP3   OH231015   8.278   7.870   6.845  0.2528  0.0777 -0.2135
10360TIP3    H131016   8.237   7.885   6.760 -1.3518 -1.8731  0.1699
10360TIP3    H231017   8.220   7.913   6.908  0.6605  0.2781  0.0299
10361TIP3   OH231018   2.180   2.056   6.617  1.4098  0.5460 -0.0175
10361TIP3    H131019   2.130   1.974   6.614  1.4889  0.4972  0.0069
10361TIP3    H231020   2.184   2.079   6.709 -1.9897  2.6402 -0.3022
10362TIP3   OH231021   7.056   7.390   0.211  0.6640 -0.5729 -0.1144
10362TIP3    H131022   7.138   7.414   0.255  0.2314 -0.3295  0.5640
10362TIP3    H231023   7.073   7.408   0.118  1.3219 -0.3585  0.0434
10363TIP3   OH231024   0.243   0.575   1.613 -0.1551 -0.2031 -0.0942
10363TIP3    H131025   0.321   0.565   1.559 -0.5988 -0.2762 -0.7184
10363TIP3    H231026   0.268   0.537   1.698  0.6709  0.2801 -0.1156
10364TIP3   OH231027   2.231   1.672   6.720 -0.2686 -0.0273  0.0072
10364TIP3    H131028   2.284   1.730   6.665  1.1923  1.8557  3.2383
10364TIP3    H231029   2.198   1.605   6.660  3.2575  0.5081 -2.6735
10365TIP3   OH231030   3.409   2.105   5.380  0.2966 -0.0752 -0.1463
10365TIP3    H131031   3.403   2.191   5.338 -0.1575  1.6755  3.2853
10365TIP3    H231032   3.318   2.084   5.403  0.6954 -0.1408  1.4526
10366TIP3   OH231033   5.696   6.763   0.389 -0.5030  0.5583  0.6316
10366TIP3    H131034   5.756   6.784   0.461  0.1370  0.5571  0.0994
10366TIP3    H231035   5.716   6.672   0.368  0.1996  0.9429 -0.3976
10367TIP3   OH231036   3.678   2.400   6.671 -0.4254  0.1424  0.0439
10367TIP3    H131037   3.745   2.339   6.703  0.1750  0.7688  0.0024
10367TIP3    H231038   3.595   2.358   6.693 -0.0225 -0.7076 -0.0117
10368TIP3   OH231039   4.898   6.049   1.523 -0.2501  0.1282 -0.1125
10368TIP3    H131040   4.890   5.982   1.455 -0.9581  1.2026 -1.1343
10368TIP3    H231041   4.825   6.109   1.505  0.0891  0.9078  1.0641
10369TIP3   OH231042   7.801   5.140   0.203  0.0613 -0.0610 -0.6562
10369TIP3    H131043   7.883   5.093   0.187  1.3715  1.9221  0.1605
10369TIP3    H231044   7.769   5.162   0.115 -0.6452 -2.5218 -1.0727
10370TIP3   OH231045   6.507   5.288   0.052 -0.5717 -0.1913 -0.0527
10370TIP3    H131046   6.546   5.209   0.014  0.7307  0.3985  0.0047
10370TIP3    H231047   6.436   5.256   0.107 -1.4212 -1.1623 -1.6925
10371TIP3   OH231048   6.294   7.802   0.783  0.2934  0.8000  0.2235
10371TIP3    H131049   6.389   7.808   0.794  0.2829  2.4878 -0.5266
10371TIP3    H231050   6.277   7.836   0.696 -0.7281 -2.4391 -0.9130
10372TIP3   OH231051   4.174   4.692   0.797 -0.1656  0.6135 -0.2121
10372TIP3    H131052   4.183   4.601   0.768  0.6152  0.2702  1.0383
10372TIP3    H231053   4.246   4.738   0.754  0.5604  0.2509  0.5950
10373TIP3   OH231054   5.372   6.058   0.538  0.2205 -0.4096  0.2217
10373TIP3    H131055   5.281   6.077   0.515  0.4669 -2.2087 -2.4590
10373TIP3    H231056   5.375   5.964   0.552  1.8356 -0.5258 -0.7072
10374TIP3   OH231057   1.233   1.333   5.947 -0.0713 -0.3018 -0.2528
10374TIP3    H131058   1.284   1.391   6.004  0.5253 -1.2099  0.1348
10374TIP3    H231059   1.216   1.256   6.001  3.1283 -2.5225 -2.2887
10375TIP3   OH231060   1.593   3.926   6.693  0.1541  0.1541  0.0837
10375TIP3    H131061   1.667   3.866   6.693  1.9105  2.1465 -4.3588
10375TIP3    H231062   1.523   3.879   6.648  0.3562  0.1366 -0.2101
10376TIP3   OH231063   6.841   7.235   0.150  0.2669 -0.0519  0.2853
10376TIP3    H131064   6.810   7.245   0.060 -1.4484 -2.1162  0.5912
10376TIP3    H231065   6.919   7.289   0.155  0.5222 -0.0794 -2.5193
10377TIP3   OH231066   6.951   0.728   5.974  0.6004  0.4677  0.1568
10377TIP3    H131067   6.957   0.635   5.998  2.0729  1.2129  2.8596
10377TIP3    H231068   6.857   0.747   5.973  0.2813 -1.0590 -0.5874
10378TIP3   OH231069   3.523   7.576   0.635  0.0168  0.1320 -0.0581
10378TIP3    H131070   3.606   7.586   0.589 -0.2914  3.1091 -0.0191
10378TIP3    H231071   3.459   7.556   0.566  0.5302 -1.0632 -0.2104
10379TIP3   OH231072   0.890   6.362   0.370 -0.2406 -0.1044  0.1682
10379TIP3    H131073   0.942   6.442   0.368  2.5445 -1.8340  0.8960
10379TIP3    H231074   0.903   6.323   0.283 -0.9594 -0.1676  0.0853
10380TIP3   OH231075   7.970   1.656   1.339  0.2341  0.4305  0.1284
10380TIP3    H131076   8.053   1.624   1.305  0.1718 -0.8235  1.1356
10380TIP3    H231077   7.993   1.698   1.422 -0.2587 -0.7874  0.8919
10381TIP3   OH231078   3.357   3.377   5.367  0.5725 -0.2113 -0.1716
10381TIP3    H131079   3.288   3.356   5.305  0.2533  0.4843 -0.0606
10381TIP3    H231080   3.415   3.301   5.366  0.4478 -0.2980 -1.1584
10382TIP3   OH231081   2.413   1.153   6.758  0.6354 -0.3134  0.2319
10382TIP3    H131082   2.493   1.132   6.709  1.3160  1.5138  0.5252
10382TIP3    H231083   2.444   1.181   6.844 -0.4920 -2.3863  1.3600
10383TIP3   OH231084   2.869   3.982   5.690 -0.3992 -0.1509  0.2736
10383TIP3    H131085   2.943   4.001   5.747  0.2847 -0.0026 -0.6588
10383TIP3    H231086   2.850   4.065   5.646 -0.0749 -0.5787 -0.6956
10384TIP3   OH231087   5.540   3.608   6.419 -0.0172  0.7531 -0.1758
10384TIP3    H131088   5.504   3.667   6.353 -1.8245 -0.0538  0.0387
10384TIP3    H231089   5.496   3.634   6.500  0.7790  0.5120  0.3372
10385TIP3   OH231090   5.941   4.005   6.708  0.0200  0.0641 -0.4144
10385TIP3    H131091   5.984   3.985   6.791 -0.0105  0.7451 -0.2372
10385TIP3    H231092   5.886   3.928   6.691  2.4117 -1.4730 -1.3913
10386TIP3   OH231093   1.357   3.215   6.051  0.8693 -0.2993  0.0760
10386TIP3    H131094   1.282   3.177   6.005  1.1266 -0.4274 -0.2461
10386TIP3    H231095   1.366   3.161   6.129 -0.2869  0.6443  0.8805
10387TIP3   OH231096   6.854   7.153   0.697  0.3742  0.0765  0.3427
10387TIP3    H131097   6.870   7.060   0.712  1.2586  0.2881  0.7177
10387TIP3    H231098   6.878   7.195   0.779  0.7730  0.7268 -0.1076
10388TIP3   OH231099   3.443   6.297   0.351 -0.0342 -0.1358  0.0664
10388TIP3    H131100   3.350   6.276   0.343 -0.1858  0.5644 -0.0583
10388TIP3    H231101   3.488   6.217   0.323 -0.5839  0.2635 -2.0447
10389TIP3   OH231102   6.840   4.920   0.503 -0.3258 -0.2281  0.3122
10389TIP3    H131103   6.883   4.954   0.582  1.1125 -0.1679 -0.4817
10389TIP3    H231104   6.818   4.998   0.452 -4.6532  0.0164  2.2872
10390TIP3   OH231105   1.068   1.138   6.117  0.2527  0.3698 -0.2170
10390TIP3    H131106   0.984   1.096   6.131  0.6002  0.1319  1.2334
10390TIP3    H231107   1.051   1.231   6.135  0.7901  0.0109  2.3657
10391TIP3   OH231108   5.703   4.569   0.764  0.2489 -0.1847  0.1696
10391TIP3    H131109   5.648   4.526   0.698 -2.2093  0.3707  1.8263
10391TIP3    H231110   5.745   4.641   0.716 -0.6373 -0.4544 -1.0490
10392TIP3   OH231111   7.575   4.689   0.933 -0.1673 -0.8352  0.5078
10392TIP3    H131112   7.528   4.672   0.852  0.3226 -1.7340  0.3993
10392TIP3    H231113   7.639   4.757   0.911  0.1506 -1.2760  0.0705
10393TIP3   OH231114   3.055   2.892   5.925 -0.4814 -0.1957 -0.1352
10393TIP3    H131115   3.088   2.951   5.993 -0.9947  1.4084 -1.2559
10393TIP3    H231116   2.961   2.884   5.943 -0.6624  0.4167 -0.7747
10394TIP3   OH231117   3.810   4.875   0.905 -0.3759 -0.8442  0.3605
10394TIP3    H131118   3.724   4.897   0.870 -0.5434  0.0296  1.2931
10394TIP3    H231119   3.862   4.853   0.828 -0.6537  1.3497 -0.4886
10395TIP3   OH231120   6.983   7.487   6.908 -0.6409  0.0718  0.2878
10395TIP3    H131121   7.059   7.531   6.947 -1.0576  0.7242  0.3835
10395TIP3    H231122   6.974   7.406   6.957 -0.1561  0.1064  0.4384
10396TIP3   OH231123   1.998   3.067   4.605 -0.1957  0.5452 -0.7417
10396TIP3    H131124   1.946   3.140   4.638  1.3135  1.3137 -0.0528
10396TIP3    H231125   2.003   3.082   4.510  0.4200  1.5258 -0.5524
10397TIP3   OH231126   4.844   7.018   0.204  0.5172 -0.0363  0.3042
10397TIP3    H131127   4.799   7.094   0.167  0.9834 -0.8992 -2.1441
10397TIP3    H231128   4.937   7.042   0.203  0.4598  0.2406  1.6683
10398TIP3   OH231129   4.225   0.301   5.865 -0.2069 -0.8457  0.0904
10398TIP3    H131130   4.304   0.322   5.816 -0.2506 -2.4713 -0.6919
10398TIP3    H231131   4.255   0.291   5.956  0.4499 -1.2097 -0.1668
10399TIP3   OH231132   6.976   0.925   0.415 -0.0981  0.2951 -0.5330
10399TIP3    H131133   7.021   0.984   0.355  0.3673  0.7487  0.2501
10399TIP3    H231134   7.044   0.897   0.477 -0.8855  1.0170  0.6920
10400TIP3   OH231135   1.847   1.470   5.798  0.5888 -0.6626 -0.4677
10400TIP3    H131136   1.770   1.445   5.748  0.5935  2.0592 -1.9130
10400TIP3    H231137   1.920   1.452   5.739  0.8450 -0.5628 -0.1823
10401TIP3   OH231138   8.351   7.509   6.477 -0.3525  0.0403  0.2585
10401TIP3    H131139   8.256   7.506   6.466 -0.7172  1.3554  2.6503
10401TIP3    H231140   8.385   7.453   6.407 -2.9313 -1.2794 -0.0149
10402TIP3   OH231141   1.421   1.573   6.204 -0.5218  0.0284 -0.1022
10402TIP3    H131142   1.340   1.531   6.230 -0.1532 -1.1630 -0.8048
10402TIP3    H231143   1.463   1.599   6.286 -0.3982 -1.6811  0.3844
10403TIP3   OH231144   4.365   3.514   5.750 -0.0845  0.8081  0.2611
10403TIP3    H131145   4.332   3.604   5.749 -1.8670  0.1762 -0.6443
10403TIP3    H231146   4.289   3.462   5.778  0.3031 -0.6275 -1.2982
10404TIP3   OH231147   4.184   4.430   0.765  0.0171  0.5608 -0.2150
10404TIP3    H131148   4.246   4.373   0.720 -0.5462  1.1548 -1.7994
10404TIP3    H231149   4.099   4.387   0.754  0.1209 -0.1728  1.8050
10405TIP3   OH231150   2.314   2.214   4.339  0.4635  0.2134  0.1257
10405TIP3    H131151   2.310   2.118   4.339  1.3168  0.1730 -0.4370
10405TIP3    H231152   2.333   2.237   4.430 -0.6408 -0.1063  0.4432
10406TIP3   OH231153   4.904   1.462   6.790 -0.2932  0.1909  0.4934
10406TIP3    H131154   4.951   1.381   6.775  0.8285  0.8878  0.1426
10406TIP3    H231155   4.963   1.514   6.845 -1.0083  0.7534  0.7366
10407TIP3   OH231156   3.880   3.749   6.122 -0.4291  0.1359  0.0991
10407TIP3    H131157   3.797   3.741   6.170 -1.8021  1.6083 -1.9443
10407TIP3    H231158   3.858   3.726   6.032  1.9674 -1.9066 -0.0074
10408TIP3   OH231159   6.110   6.540   0.174 -0.6716  0.0936  0.0899
10408TIP3    H131160   6.198   6.577   0.176 -0.7878  0.7377 -3.5166
10408TIP3    H231161   6.094   6.509   0.263  2.9336  0.5645  0.9397
10409TIP3   OH231162   6.812   7.281   2.160 -0.3716  0.3577 -0.3629
10409TIP3    H131163   6.856   7.272   2.076 -2.7283  0.6801 -1.6983
10409TIP3    H231164   6.722   7.306   2.137 -1.1347  0.1790  2.2413
10410TIP3   OH231165   7.929   6.869   2.819  0.3337  0.4665  0.2652
10410TIP3    H131166   7.838   6.852   2.795  0.7166 -1.1618 -0.0707
10410TIP3    H231167   7.980   6.842   2.743  1.0750  1.9468  0.2174
10411TIP3   OH231168   6.117   3.463   6.383 -0.1019 -0.5619  0.1219
10411TIP3    H131169   6.108   3.532   6.317  0.4687  0.4188  1.0719
10411TIP3    H231170   6.204   3.425   6.366 -0.1764 -0.6662 -0.0278
10412TIP3   OH231171   2.805   2.623   5.175  0.3946 -0.4616  0.0977
10412TIP3    H131172   2.777   2.542   5.132 -0.1804 -0.8604  1.1965
10412TIP3    H231173   2.878   2.654   5.122  0.6694 -1.7391 -0.2992
10413TIP3   OH231174   5.128   7.210  -0.009 -0.0716  0.6549  0.5410
10413TIP3    H131175   5.103   7.170   0.074  0.9675 -1.3888 -0.1009
10413TIP3    H231176   5.053   7.264  -0.034 -0.7409  0.5689  2.3483
10414TIP3   OH231177   5.140   1.686   5.638  0.3163  0.6215  0.6402
10414TIP3    H131178   5.148   1.709   5.546  0.4204 -2.3622 -0.1452
10414TIP3    H231179   5.219   1.722   5.679  0.9205  0.8146 -0.6755
10415TIP3   OH231180   5.564   3.779   6.095 -0.4721 -0.1794 -0.5557
10415TIP3    H131181   5.539   3.700   6.046 -0.8444  0.4606 -1.4148
10415TIP3    H231182   5.658   3.788   6.079 -0.9608  1.2213 -2.9662
10416TIP3   OH231183   7.306   7.472   0.696  0.0826 -0.2212 -0.2440
10416TIP3    H131184   7.254   7.552   0.690 -0.5517 -0.6883 -1.1273
10416TIP3    H231185   7.379   7.495   0.754 -0.9251  0.5327  0.7349
10417TIP3   OH231186   0.152   5.857   2.892  0.2347  0.0251 -0.3814
10417TIP3    H131187   0.063   5.890   2.898 -0.3384 -1.6462  0.6629
10417TIP3    H231188   0.156   5.814   2.807 -0.5169 -1.4453  0.3114
10418TIP3   OH231189   4.617   3.782   5.074  0.0187  0.1259 -0.7412
10418TIP3    H131190   4.667   3.708   5.039 -0.7327 -0.2933 -0.9391
10418TIP3    H231191   4.666   3.810   5.151  1.2239  0.5070 -1.6298
10419TIP3   OH231192   5.419   2.237   6.872 -0.3527  0.2301  0.2612
10419TIP3    H131193   5.442   2.182   6.947  0.5360  2.0676  1.3698
10419TIP3    H231194   5.323   2.241   6.875 -0.5148 -2.1164 -0.4991
10420TIP3   OH231195   5.751   3.065   5.325 -0.4332  0.1440 -0.2316
10420TIP3    H131196   5.658   3.083   5.311 -0.2386  1.2095 -0.1818
10420TIP3    H231197   5.753   3.017   5.408 -0.9075  0.4907 -0.0164
10421TIP3   OH231198   0.521   5.300   0.773  0.2916  0.2456  0.2292
10421TIP3    H131199   0.501   5.300   0.679 -0.7657 -1.5857  0.4372
10421TIP3    H231200   0.438   5.323   0.815  0.9257  1.7178  0.7046
10422TIP3   OH231201   5.365   2.530   6.642 -0.1273 -0.0659  0.0571
10422TIP3    H131202   5.367   2.607   6.586  0.2322  0.3101  0.5841
10422TIP3    H231203   5.450   2.530   6.686 -0.5961 -0.0810  0.9645
10423TIP3   OH231204   6.982   1.545   6.818 -0.6006 -0.1988  0.3719
10423TIP3    H131205   7.028   1.570   6.737 -0.8181  1.2758  0.6986
10423TIP3    H231206   6.889   1.550   6.795 -0.6882  1.4085  1.0603
10424TIP3   OH231207   8.201   4.588   1.519  0.2067 -0.3757  0.0200
10424TIP3    H131208   8.126   4.632   1.479  1.1656  0.2653 -1.1010
10424TIP3    H231209   8.162   4.523   1.577 -1.2200 -1.3029 -1.9159
10425TIP3   OH231210   5.696   2.580   6.671  0.4984 -0.1148 -0.3068
10425TIP3    H131211   5.704   2.490   6.703 -0.2018  0.5046  1.7057
10425TIP3    H231212   5.776   2.596   6.622  1.0644 -1.5288  0.1522
10426TIP3   OH231213   4.273   3.099   4.189 -0.8940  0.4004 -0.3587
10426TIP3    H131214   4.249   3.016   4.148  0.2678 -0.5898  0.9053
10426TIP3    H231215   4.224   3.101   4.271 -0.7960  0.9033 -0.3088
10427TIP3   OH231216   3.416   0.970   5.100 -0.4877 -0.0842 -0.4740
10427TIP3    H131217   3.393   1.037   5.164 -0.8594  0.4287 -1.1280
10427TIP3    H231218   3.512   0.973   5.095 -0.5630  1.4332 -1.5604
10428TIP3   OH231219   5.160   0.566   6.712 -0.0441 -0.4649 -0.0271
10428TIP3    H131220   5.189   0.477   6.734  0.2158 -0.4410 -0.2606
10428TIP3    H231221   5.179   0.618   6.790 -1.2960 -0.8528  0.5530
10429TIP3   OH231222   5.689   1.235   6.420  0.1627 -0.6383 -0.4756
10429TIP3    H131223   5.620   1.206   6.479  1.5234 -0.4213  1.2481
10429TIP3    H231224   5.726   1.154   6.384 -1.6404 -0.7347 -2.2353
10430TIP3   OH231225   3.802   1.811   6.678 -0.2261  0.0119 -0.5801
10430TIP3    H131226   3.730   1.771   6.728 -0.9190  2.7500  0.7230
10430TIP3    H231227   3.794   1.773   6.591 -2.2120 -1.0407  0.0163
10431TIP3   OH231228   2.317   7.439   0.754  0.3684 -0.6484  0.5072
10431TIP3    H131229   2.346   7.384   0.681  0.0220 -0.9594  0.5986
10431TIP3    H231230   2.225   7.457   0.734  0.2041 -0.9435  0.9943
10432TIP3   OH231231   3.172   0.453   4.795  0.2635 -0.1828 -0.4947
10432TIP3    H131232   3.165   0.513   4.869 -1.2844 -1.4992  0.4634
10432TIP3    H231233   3.105   0.482   4.734  0.0472 -0.4407 -0.3828
10433TIP3   OH231234   3.177   5.638   1.582 -0.0521 -0.0243  0.3946
10433TIP3    H131235   3.143   5.557   1.620 -0.6979 -0.1199 -0.3634
10433TIP3    H231236   3.156   5.631   1.489  1.4157  0.2484  0.0349
10434TIP3   OH231237   4.432   2.880   5.418  0.2211  0.1584 -0.0145
10434TIP3    H131238   4.389   2.965   5.420 -1.8785 -0.8436 -0.6850
10434TIP3    H231239   4.407   2.838   5.500  0.9077  0.0494  0.1347
10435TIP3   OH231240   5.957   2.661   5.422 -0.2121 -0.3604 -0.0372
10435TIP3    H131241   6.037   2.609   5.420 -0.0684 -0.1569  0.3868
10435TIP3    H231242   5.891   2.606   5.381 -0.1689 -1.0561  0.8221
10436TIP3   OH231243   2.285   0.069   0.883  0.4503  0.0980 -0.3045
10436TIP3    H131244   2.237  -0.014   0.888 -0.4267  0.6332  0.2200
10436TIP3    H231245   2.332   0.074   0.966  0.0089  0.4138 -0.0678
10437TIP3   OH231246   3.681   2.048   4.381 -0.0843 -0.7935 -0.1218
10437TIP3    H131247   3.609   2.030   4.442 -1.4681  0.3003 -1.3903
10437TIP3    H231248   3.684   2.143   4.374  0.7390 -0.8684 -0.9757
10438TIP3   OH231249   6.711   0.607   4.024  0.2300 -0.6147  0.4987
10438TIP3    H131250   6.666   0.579   4.104 -1.8823  0.3867 -0.2885
10438TIP3    H231251   6.665   0.561   3.954  1.0588 -0.2646 -0.2810
10439TIP3   OH231252   4.898   1.721   5.314 -0.8273  0.4202 -0.5209
10439TIP3    H131253   4.944   1.795   5.274  0.1542  0.3434  0.4245
10439TIP3    H231254   4.859   1.673   5.240  0.3734  0.6564 -1.3178
10440TIP3   OH231255   4.954   3.390   5.958  0.0821  0.0947 -0.2382
10440TIP3    H131256   5.021   3.370   6.023  0.3721  0.9103 -0.2889
10440TIP3    H231257   4.894   3.315   5.962 -0.4725  0.6033  1.6915
10441TIP3   OH231258   6.674   1.631   6.718 -0.4858 -0.4668  0.4367
10441TIP3    H131259   6.666   1.707   6.659  1.4547 -0.4222  0.1897
10441TIP3    H231260   6.680   1.556   6.659 -0.9692 -0.6720  0.6489
10442TIP3   OH231261   4.289   4.055   6.704 -0.3035 -0.4205  0.2161
10442TIP3    H131262   4.277   4.091   6.792  0.1414 -0.3727  0.2581
10442TIP3    H231263   4.343   4.119   6.659 -0.5861 -0.4130 -0.1160
10443TIP3   OH231264   5.327   2.198   5.909  0.1554  0.0215 -0.3039
10443TIP3    H131265   5.286   2.261   5.850  1.3226  1.0355 -0.0560
10443TIP3    H231266   5.391   2.152   5.855 -1.2540 -1.5421 -0.6866
10444TIP3   OH231267   2.902   1.826   4.573  0.0486 -0.3616  0.1333
10444TIP3    H131268   2.918   1.920   4.558  2.0500 -0.4280  1.6484
10444TIP3    H231269   2.832   1.804   4.512 -0.5889  2.1677 -0.1231
10445TIP3   OH231270   7.752   7.516   0.554 -0.5542 -0.2292 -0.3472
10445TIP3    H131271   7.802   7.541   0.476  0.1125 -0.4548  0.0056
10445TIP3    H231272   7.695   7.445   0.524 -0.1284 -0.4769 -0.5806
10446TIP3   OH231273   4.376   3.812   6.602 -0.4552 -0.1450 -0.3925
10446TIP3    H131274   4.471   3.811   6.618 -0.6436 -1.2068  0.7613
10446TIP3    H231275   4.342   3.878   6.662 -0.2546  1.5335 -2.0847
10447TIP3   OH231276   3.732   2.566   3.870  0.1826 -0.5076 -0.5326
10447TIP3    H131277   3.704   2.486   3.915 -0.7796  0.3175  0.3875
10447TIP3    H231278   3.666   2.578   3.801 -0.9187  0.6238  0.6826
10448TIP3   OH231279   2.172   2.871   6.844  0.7974  0.4591 -0.3609
10448TIP3    H131280   2.112   2.823   6.900 -0.0242  0.4604 -1.2266
10448TIP3    H231281   2.242   2.808   6.825  0.2115 -0.0871 -0.7158
10449TIP3   OH231282   5.293   1.773   6.615  0.1380  0.4680  0.0165
10449TIP3    H131283   5.355   1.765   6.543  0.1415 -0.3286  0.1066
10449TIP3    H231284   5.295   1.866   6.638  0.1159  0.7335 -1.0273
10450TIP3   OH231285   3.303   2.835   6.134  0.0769  0.0720  0.6846
10450TIP3    H131286   3.305   2.746   6.098 -0.4970  0.9717 -1.6411
10450TIP3    H231287   3.347   2.888   6.069  2.3428  1.1965  3.0522
10451TIP3   OH231288   4.500   0.196   6.886 -0.3387 -0.0574 -0.2292
10451TIP3    H131289   4.592   0.184   6.911 -0.5642  0.0694  0.6801
10451TIP3    H231290   4.501   0.196   6.791  0.8269  1.5253 -0.2372
10452TIP3   OH231291   4.403   1.707   5.754  0.6636  0.2781  0.6082
10452TIP3    H131292   4.465   1.722   5.826  1.1962  0.0994  0.1952
10452TIP3    H231293   4.380   1.615   5.762 -1.2939  0.8633  2.1169
10453TIP3   OH231294   6.368   1.346   5.375 -0.1888  0.4071  0.1700
10453TIP3    H131295   6.454   1.307   5.389  0.4582  0.9145 -2.1877
10453TIP3    H231296   6.306   1.278   5.399  0.8806 -0.4563  0.5216
10454TIP3   OH231297   3.725   2.555   6.436 -0.3628 -0.2968  0.1681
10454TIP3    H131298   3.816   2.581   6.452 -0.6829  0.6183  0.5370
10454TIP3    H231299   3.708   2.485   6.500 -0.0299 -0.2262  0.3348
10455TIP3   OH231300   7.974   6.007   1.778 -0.0132 -0.2373 -0.9280
10455TIP3    H131301   7.992   5.926   1.731  0.5098 -0.0276 -1.0956
10455TIP3    H231302   7.950   5.979   1.866  1.2476 -0.5325 -0.6687
10456TIP3   OH231303   6.158   3.906   5.721  0.2119  0.3499  0.3235
10456TIP3    H131304   6.177   3.833   5.663 -0.3037  1.0701 -0.7751
10456TIP3    H231305   6.209   3.979   5.686  0.6128  0.5622  1.3232
10457TIP3   OH231306   0.662   6.386   0.048 -0.1475 -0.6614  0.3190
10457TIP3    H131307   0.718   6.419  -0.022  1.4738  3.3418  3.2632
10457TIP3    H231308   0.711   6.314   0.088  1.4738  0.6616  0.7701
10458TIP3   OH231309   6.567   2.332   5.002  0.1341 -0.3080  0.1669
10458TIP3    H131310   6.523   2.336   5.087  0.9271  0.8824  0.5389
10458TIP3    H231311   6.496   2.335   4.938 -0.3721  0.9433  0.7666
10459TIP3   OH231312   5.237   2.487   5.878  0.0682  0.0624 -0.2643
10459TIP3    H131313   5.274   2.547   5.813 -0.7656 -0.8066 -1.5620
10459TIP3    H231314   5.225   2.541   5.956  1.6722  0.9644 -0.6219
10460TIP3   OH231315   5.354   3.563   5.197  0.1935 -0.2149  0.3790
10460TIP3    H131316   5.398   3.587   5.115  0.0957  0.0536  0.4071
10460TIP3    H231317   5.426   3.546   5.258  0.2670 -0.4204  0.2361
10461TIP3   OH231318   6.130   4.356   6.444  0.0038 -0.0877 -0.5735
10461TIP3    H131319   6.125   4.374   6.350  0.0210  1.1958 -0.3471
10461TIP3    H231320   6.066   4.286   6.459 -1.3689  0.9857 -1.2509
10462TIP3   OH231321   8.152   5.826   2.318 -0.3957 -0.1522 -0.1681
10462TIP3    H131322   8.233   5.875   2.332 -0.3931 -0.4757  0.9481
10462TIP3    H231323   8.178   5.751   2.265  0.1564 -0.6337  0.7837
10463TIP3   OH231324   8.448   4.294   1.195  0.1176 -0.4541 -0.3566
10463TIP3    H131325   8.472   4.207   1.163  0.4247 -0.5455  0.1251
10463TIP3    H231326   8.372   4.279   1.250  0.2544 -0.4365 -0.1613
10464TIP3   OH231327   5.531   0.416   5.891  0.1715  0.1727  0.0322
10464TIP3    H131328   5.574   0.395   5.974 -0.3525  1.4032  0.6394
10464TIP3    H231329   5.600   0.406   5.825  0.5002 -1.1481  0.5709
10465TIP3   OH231330   3.327   2.985   6.378  1.2780 -0.6193  0.1735
10465TIP3    H131331   3.289   2.941   6.302 -0.4751  1.1324  0.0128
10465TIP3    H231332   3.336   2.915   6.444  0.4981 -1.6405 -0.7838
10466TIP3   OH231333   7.599   6.884   3.205 -0.4443  0.0088 -0.2401
10466TIP3    H131334   7.671   6.947   3.204 -0.7818  0.4020  0.0189
10466TIP3    H231335   7.598   6.852   3.295  0.0595 -0.7536 -0.5027
10467TIP3   OH231336   5.788   2.671   6.035  0.7367 -0.2280  0.0108
10467TIP3    H131337   5.842   2.604   5.994  1.8435  0.9448 -0.4825
10467TIP3    H231338   5.816   2.670   6.127 -1.0949 -2.2175  0.5814
10468TIP3   OH231339   6.794   2.368   6.004 -0.1346 -0.2305 -0.6202
10468TIP3    H131340   6.806   2.322   5.921 -0.1892  1.3554 -1.5282
10468TIP3    H231341   6.881   2.403   6.024 -0.5101  0.8982 -0.9315
10469TIP3   OH231342   2.730   2.675   6.167 -0.1129 -0.3311  0.1716
10469TIP3    H131343   2.787   2.726   6.109  2.3138 -3.0395  0.0360
10469TIP3    H231344   2.711   2.734   6.240  4.7503  0.0268  1.3183
10470TIP3   OH231345   4.675   2.442   4.484 -0.3832  0.5283 -0.3394
10470TIP3    H131346   4.677   2.533   4.511 -1.1217  0.9795 -1.7488
10470TIP3    H231347   4.585   2.427   4.457 -0.0819 -0.3923 -0.8585
10471TIP3   OH231348   4.980   3.548   5.509 -0.3205 -0.1255 -0.3771
10471TIP3    H131349   5.041   3.490   5.463  1.1912 -0.2183  1.6456
10471TIP3    H231350   4.998   3.635   5.474  1.0821 -0.1358  0.3059
10472TIP3   OH231351   5.327   0.939   5.880  0.7665 -0.6787  0.1757
10472TIP3    H131352   5.391   0.996   5.923  0.9383 -1.2843  0.7402
10472TIP3    H231353   5.265   0.998   5.839  0.7411 -0.0806  1.0664
10473TIP3   OH231354   5.177   3.244   4.561  0.2214  0.0137 -0.6440
10473TIP3    H131355   5.229   3.179   4.514  1.6559 -0.4710  1.5214
10473TIP3    H231356   5.149   3.198   4.640 -0.3085  1.4645  0.0169
10474TIP3   OH231357   1.497   6.482   1.798 -0.5928  0.1587  0.3023
10474TIP3    H131358   1.454   6.457   1.716 -0.3050  1.5543 -0.2879
10474TIP3    H231359   1.479   6.575   1.807  3.5375  1.1747 -0.7399
10475TIP3   OH231360   2.220   3.010   4.835 -0.8445 -0.5325 -0.0059
10475TIP3    H131361   2.155   3.038   4.771 -0.9331  1.4387  0.8985
10475TIP3    H231362   2.170   2.960   4.900 -1.0308 -1.1267 -0.6096
10476TIP3   OH231363   4.902   3.962   0.163 -0.2544 -0.3579  0.6016
10476TIP3    H131364   4.958   3.939   0.237  1.1671  1.0467  0.0067
10476TIP3    H231365   4.929   4.051   0.139 -0.6365 -0.7971 -1.6180
10477TIP3   OH231366   4.376   1.516   6.793  0.3445  0.1681 -0.0756
10477TIP3    H131367   4.470   1.522   6.810  0.2853  0.6957  0.0837
10477TIP3    H231368   4.366   1.439   6.737  0.7965 -0.2642  0.4337
10478TIP3   OH231369   7.926   5.201   2.206  0.4309  0.0051 -0.3069
10478TIP3    H131370   8.018   5.205   2.235  0.2712  1.6989 -0.0186
10478TIP3    H231371   7.931   5.177   2.114  1.0452 -2.8001  0.3832
10479TIP3   OH231372   2.696   1.070   6.193  0.0438  0.3039  0.0269
10479TIP3    H131373   2.740   1.155   6.187  0.8260 -0.1125 -0.2303
10479TIP3    H231374   2.610   1.084   6.153  0.1885  0.9625 -0.0499
10480TIP3   OH231375   2.700   3.544   6.613  0.3857  0.0807  0.6723
10480TIP3    H131376   2.645   3.489   6.669 -0.3238  0.0667 -0.0283
10480TIP3    H231377   2.771   3.486   6.585  0.1237 -0.2398  0.6575
10481TIP3   OH231378   4.362   2.017   4.624 -0.4788  0.1797  0.5480
10481TIP3    H131379   4.313   2.096   4.647  0.5803  0.6565  1.1533
10481TIP3    H231380   4.323   1.948   4.677 -1.4492  0.2661 -0.0277
10482TIP3   OH231381   5.432   1.740   6.375  0.7394  0.1459  0.1809
10482TIP3    H131382   5.405   1.726   6.284  0.1349 -1.0110  0.5249
10482TIP3    H231383   5.507   1.800   6.369 -0.0034  0.9732 -0.9895
10483TIP3   OH231384   4.171   1.335   3.364  0.0475  0.1494 -0.5265
10483TIP3    H131385   4.137   1.393   3.433 -0.2964 -1.4481  0.6635
10483TIP3    H231386   4.134   1.249   3.384  2.0888 -0.9130 -1.1700
10484TIP3   OH231387   5.573   3.340   6.442  0.0399 -0.0703  0.1453
10484TIP3    H131388   5.487   3.311   6.414 -0.3349  0.8786  0.2870
10484TIP3    H231389   5.578   3.432   6.414  1.0826 -0.1750 -0.0538
10485TIP3   OH231390   8.355   6.437   0.622  0.2795  0.2052  0.1609
10485TIP3    H131391   8.274   6.470   0.584 -0.6017 -0.7088  1.2038
10485TIP3    H231392   8.418   6.509   0.611 -0.1922  0.2933 -2.1642
10486TIP3   OH231393   1.319   2.501   6.684  0.3184 -0.6235  0.3704
10486TIP3    H131394   1.396   2.549   6.714  1.2945 -1.2640 -1.0686
10486TIP3    H231395   1.324   2.416   6.727  0.1962 -0.5315  0.5706
10487TIP3   OH231396   2.492   2.311   6.378 -0.7099 -0.8034  0.3309
10487TIP3    H131397   2.529   2.392   6.414  0.4094 -1.5064  0.7700
10487TIP3    H231398   2.397   2.323   6.386 -0.5451  0.2477  0.8512
10488TIP3   OH231399   5.942   1.636   6.854 -0.0470  0.4695  0.4333
10488TIP3    H131400   5.915   1.674   6.938 -0.1649  0.1297  0.5462
10488TIP3    H231401   5.942   1.711   6.794 -2.8319  0.1876  0.0268
10489TIP3   OH231402   3.216   1.644   5.435  0.3571  0.0102  0.0116
10489TIP3    H131403   3.307   1.651   5.464  0.2878 -1.3632  0.6274
10489TIP3    H231404   3.169   1.612   5.513 -0.5560  0.2058 -0.4525
10490TIP3   OH231405   3.871   1.137   0.552 -0.1927  0.0257  0.5336
10490TIP3    H131406   3.886   1.104   0.640 -0.5234  0.4765  0.7613
10490TIP3    H231407   3.776   1.129   0.539 -0.0352 -0.9275 -0.1407
10491TIP3   OH231408   6.744   4.536   6.656 -0.4868 -0.1807  0.9087
10491TIP3    H131409   6.700   4.480   6.591 -0.6836 -0.9621  1.7021
10491TIP3    H231410   6.817   4.482   6.687  1.3034  1.2425 -0.6759
10492TIP3   OH231411   4.262   1.775   6.742 -0.1184 -0.3066 -0.5729
10492TIP3    H131412   4.305   1.791   6.658 -0.1629  1.1053 -0.3391
10492TIP3    H231413   4.302   1.694   6.774  1.2535  0.1633 -1.0656
10493TIP3   OH231414   4.358   2.663   4.247  0.1669  0.3883 -0.0157
10493TIP3    H131415   4.311   2.738   4.282 -2.0317 -0.7226 -0.4653
10493TIP3    H231416   4.352   2.672   4.152 -0.3602 -0.4852 -0.0744
10494TIP3   OH231417   5.171   4.020   6.411  0.1067 -0.1062 -0.2891
10494TIP3    H131418   5.147   4.035   6.320 -2.4103 -0.8784  0.2143
10494TIP3    H231419   5.087   4.013   6.457  1.3380 -0.2151  2.0073
10495TIP3   OH231420   4.617   2.152   4.885 -0.1137 -0.2840  0.2399
10495TIP3    H131421   4.546   2.215   4.896  1.5013  1.6298  0.0078
10495TIP3    H231422   4.672   2.189   4.816  1.9649 -0.8894  1.5075
10496TIP3   OH231423   2.911   2.765   5.652  0.9031  0.0904 -0.2191
10496TIP3    H131424   2.907   2.781   5.557  2.4461 -0.8638 -0.4535
10496TIP3    H231425   2.939   2.848   5.689 -1.5490  1.0553 -0.3841
10497TIP3   OH231426   7.611   5.443   2.385  0.4471 -0.6536  0.9404
10497TIP3    H131427   7.517   5.451   2.368  0.8928  3.5688 -0.2160
10497TIP3    H231428   7.650   5.436   2.299  1.3206 -0.0571  1.2818
10498TIP3   OH231429   0.098   6.492   0.853 -0.0513 -0.3405 -0.0184
10498TIP3    H131430   0.193   6.502   0.847 -0.0073  0.3063  1.4380
10498TIP3    H231431   0.064   6.537   0.776  0.8094 -0.1870 -0.3166
10499TIP3   OH231432   6.251   2.307   5.954  0.1510 -0.1986  0.0828
10499TIP3    H131433   6.342   2.335   5.943  0.2954 -0.2463  1.1304
10499TIP3    H231434   6.200   2.368   5.902  1.0444 -2.0407 -3.0943
10500TIP3   OH231435   5.139   2.237   6.847 -0.2490 -0.2967  0.2650
10500TIP3    H131436   5.143   2.295   6.770 -0.5532  0.7334  1.0099
10500TIP3    H231437   5.048   2.241   6.876 -0.5475 -2.0875 -0.3611
10501TIP3   OH231438   4.581   3.361   5.639  0.6963  0.4053 -0.2314
10501TIP3    H131439   4.660   3.412   5.657 -0.2883  1.1258  2.1783
10501TIP3    H231440   4.510   3.413   5.676 -1.1075  0.3698 -3.4281
10502TIP3   OH231441   4.108   3.174   3.934  0.3715 -0.1841  0.5380
10502TIP3    H131442   4.162   3.210   4.004  1.0771  2.1441 -1.1309
10502TIP3    H231443   4.040   3.239   3.920  0.5579 -0.3406 -1.2649
10503TIP3   OH231444   6.482   2.677   6.062 -0.4486  0.4612  0.1121
10503TIP3    H131445   6.523   2.746   6.010 -0.5838  1.7994  1.7321
10503TIP3    H231446   6.460   2.719   6.145 -0.0349 -1.6781  1.3553
10504TIP3   OH231447   3.374   2.824   6.615  0.1755  0.3639 -0.1825
10504TIP3    H131448   3.452   2.772   6.634 -0.3411 -0.7409 -1.0993
10504TIP3    H231449   3.353   2.864   6.699  2.5142  1.7730 -0.2170
10505TIP3   OH231450   3.870   2.059   5.552 -0.2590  0.0018 -0.1533
10505TIP3    H131451   3.865   2.043   5.458  0.5825 -0.6180 -0.0986
10505TIP3    H231452   3.959   2.094   5.566 -0.8027  1.2608  0.2379
10506TIP3   OH231453   3.973   2.985   5.929  0.0983  0.3492  0.2699
10506TIP3    H131454   3.931   2.976   6.015 -0.2523 -0.9383 -0.0251
10506TIP3    H231455   3.936   3.065   5.893 -1.9744 -0.6362  0.1140
10507TIP3   OH231456   3.051   3.796   5.506  0.3490  0.1896 -0.1143
10507TIP3    H131457   3.141   3.803   5.473  0.5493 -0.1750  0.3613
10507TIP3    H231458   2.997   3.830   5.434  0.7604 -0.9242 -0.9572
10508TIP3   OH231459   5.955   3.274   6.262 -0.1226  0.1879 -0.5988
10508TIP3    H131460   5.996   3.345   6.313  3.4435 -1.2197 -1.3253
10508TIP3    H231461   5.924   3.316   6.182  0.7929  1.1744 -0.4481
10509TIP3   OH231462   4.102   2.770   5.766 -0.0906 -0.7276  0.0005
10509TIP3    H131463   4.086   2.853   5.809  1.6755 -0.5669  0.3375
10509TIP3    H231464   4.022   2.719   5.782 -1.1610  0.8702 -0.1896
10510TIP3   OH231465   8.378   6.737   2.038 -0.6744 -0.3563  0.5705
10510TIP3    H131466   8.447   6.747   1.974 -1.9349  2.6002 -0.4063
10510TIP3    H231467   8.423   6.724   2.121  0.9716 -4.2229 -0.8225
10511TIP3   OH231468   6.108   4.930   4.735 -0.4541 -0.7778 -0.2463
10511TIP3    H131469   6.054   4.870   4.787 -0.3095 -0.2784  0.4749
10511TIP3    H231470   6.062   4.935   4.651 -0.2640 -2.2035 -0.4550
10512TIP3   OH231471   1.878   6.813   0.545 -1.1203 -0.1708 -0.3239
10512TIP3    H131472   1.814   6.833   0.615 -1.1960 -0.9455 -0.1688
10512TIP3    H231473   1.912   6.727   0.568 -0.7001 -0.1638 -0.9228
10513TIP3   OH231474   7.017   2.670   6.755  0.0089 -0.1035 -0.3228
10513TIP3    H131475   6.953   2.620   6.807  1.7158 -0.2843  1.6722
10513TIP3    H231476   6.989   2.761   6.765 -0.3456 -0.2406 -0.0075
10514TIP3   OH231477   6.167   1.170   5.442 -0.6469  0.2205 -0.2397
10514TIP3    H131478   6.177   1.076   5.431  0.8879  0.3064  0.2646
10514TIP3    H231479   6.112   1.181   5.519 -1.9240 -0.2621 -1.0666
10515TIP3   OH231480   5.911   3.689   6.177 -0.3734  0.6809 -0.3631
10515TIP3    H131481   5.969   3.729   6.112 -0.8668  0.9457 -0.6407
10515TIP3    H231482   5.840   3.650   6.126 -0.2284  0.0030 -0.0496
10516TIP3   OH231483   1.492   6.306   0.320 -0.4920  0.5359 -0.4703
10516TIP3    H131484   1.556   6.235   0.307  1.0804  1.8845 -0.3626
10516TIP3    H231485   1.516   6.371   0.253 -2.0298  0.8870 -0.6916
10517TIP3   OH231486   2.257   4.264   6.187  0.0030 -0.1453  0.1289
10517TIP3    H131487   2.211   4.343   6.161  0.4056 -0.8741 -2.9631
10517TIP3    H231488   2.348   4.292   6.200  0.1580 -0.1164 -1.0275
10518TIP3   OH231489   3.476   1.400   6.389 -0.1122  0.2864 -0.2003
10518TIP3    H131490   3.413   1.347   6.341  0.5815 -1.6729  1.0152
10518TIP3    H231491   3.426   1.438   6.461 -1.2885  3.6710 -2.6590
10519TIP3   OH231492   3.846   2.295   4.383 -0.2059 -0.8660 -0.3235
10519TIP3    H131493   3.784   2.352   4.429 -0.8088 -0.9584 -1.0136
10519TIP3    H231494   3.931   2.319   4.419 -0.4426  0.5343 -0.6579
10520TIP3   OH231495   4.731   3.226   6.025  0.5551 -0.2926 -0.3805
10520TIP3    H131496   4.679   3.306   6.038  0.0756 -0.4421 -1.3171
10520TIP3    H231497   4.722   3.178   6.108 -0.5125 -0.1466 -0.4017
10521TIP3   OH231498   4.840   2.876   4.902  0.2672  1.1875  0.0364
10521TIP3    H131499   4.896   2.880   4.825  1.9295  1.7484  1.2395
10521TIP3    H231500   4.857   2.790   4.940 -0.7427  0.8099 -0.3609
10522TIP3   OH231501   7.360   5.116   1.227 -0.0276  0.3473 -0.5811
10522TIP3    H131502   7.383   5.028   1.197 -0.5389  0.4844 -1.3997
10522TIP3    H231503   7.378   5.172   1.151 -1.1499  0.7322 -0.5656
10523TIP3   OH231504   3.687   2.912   4.069  0.6112  0.1048 -0.0289
10523TIP3    H131505   3.724   2.833   4.030  0.0664 -0.5305  0.7334
10523TIP3    H231506   3.602   2.923   4.026  1.2836  1.0672 -1.1403
10524TIP3   OH231507   2.316   1.045   0.057 -0.1128 -0.3208 -0.1416
10524TIP3    H131508   2.302   0.963   0.010  0.4935 -0.0075 -0.8748
10524TIP3    H231509   2.239   1.053   0.114 -1.2105 -0.3467 -1.5798
10525TIP3   OH231510   4.690   3.462   4.002  0.5208 -0.3788  0.0954
10525TIP3    H131511   4.608   3.471   4.052  0.8045 -1.5258  0.7968
10525TIP3    H231512   4.670   3.500   3.917 -0.5982 -0.2070  0.4181
10526TIP3   OH231513   4.583   2.724   4.999 -0.2793  0.0835  0.5552
10526TIP3    H131514   4.621   2.743   5.086 -0.9702  0.1367  0.8471
10526TIP3    H231515   4.489   2.728   5.013 -0.3924  0.6877 -0.3360
10527TIP3   OH231516   3.652   0.960   3.763  0.6990 -0.2029  0.4273
10527TIP3    H131517   3.663   0.922   3.850  0.2385  0.2204  0.6706
10527TIP3    H231518   3.676   1.052   3.773 -0.7774  0.2000  0.4522
10528TIP3   OH231519   3.707   0.974   5.710 -0.6823 -0.1195  0.5377
10528TIP3    H131520   3.658   0.962   5.629 -1.3713 -0.0367  0.9366
10528TIP3    H231521   3.722   0.886   5.743  1.4650 -0.2654 -0.7711
10529TIP3   OH231522   5.483   3.129   6.074  0.6245  0.8114  0.5605
10529TIP3    H131523   5.484   3.037   6.100  2.0472  0.7065  0.1762
10529TIP3    H231524   5.439   3.130   5.990  4.0832 -0.0960 -1.3761
10530TIP3   OH231525   2.746   0.201   0.133  0.3487  0.5299  0.2810
10530TIP3    H131526   2.823   0.224   0.184  1.0674 -0.8690 -0.1242
10530TIP3    H231527   2.741   0.267   0.064  2.4014 -0.5090 -0.9176
10531TIP3   OH231528   3.435   3.870   6.205 -0.0793  0.1223  0.4946
10531TIP3    H131529   3.519   3.852   6.248 -0.5647 -0.0851  1.3624
10531TIP3    H231530   3.387   3.923   6.269 -0.6188  0.2187  0.0060
10532TIP3   OH231531   5.128   7.843   1.529 -0.0553  0.2356  0.4917
10532TIP3    H131532   5.170   7.781   1.469  1.5481 -0.5091  2.3143
10532TIP3    H231533   5.173   7.926   1.512  1.0614 -0.1893  1.2866
10533TIP3   OH231534   7.544   7.943   0.301  0.3640 -0.0507  0.5197
10533TIP3    H131535   7.456   7.932   0.337 -1.1382 -0.5031 -3.0693
10533TIP3    H231536   7.538   8.022   0.247  2.0676 -0.2681 -0.0266
10534TIP3   OH231537   2.826   2.480   6.636  0.2072  0.2729  0.6083
10534TIP3    H131538   2.762   2.417   6.669 -1.4177  1.5560  0.0533
10534TIP3    H231539   2.908   2.432   6.631 -0.0547 -0.6338  4.0522
10535TIP3   OH231540   6.921   3.757   4.145  0.0431 -0.0082  0.0549
10535TIP3    H131541   7.000   3.810   4.137  1.6219 -2.1265  0.9832
10535TIP3    H231542   6.871   3.776   4.066  1.0671  1.9874 -0.1565
10536TIP3   OH231543   4.901   2.227   5.975 -0.2219  0.3543 -0.4022
10536TIP3    H131544   4.845   2.157   5.942 -1.2667  0.5289  0.9608
10536TIP3    H231545   4.846   2.274   6.038  1.0557  1.2870  0.0315
10537TIP3   OH231546   6.206   3.707   5.143 -0.0043  0.1720 -0.2078
10537TIP3    H131547   6.216   3.743   5.055  0.1074  0.5230 -0.0555
10537TIP3    H231548   6.223   3.614   5.133 -1.1999  0.0019 -0.7739
10538TIP3   OH231549   4.242   2.095   6.569  0.1725 -0.6664 -0.5658
10538TIP3    H131550   4.238   2.111   6.663 -0.3341 -0.5144 -0.6091
10538TIP3    H231551   4.187   2.017   6.555 -0.0480 -0.4745 -0.7814
10539TIP3   OH231552   0.451   7.638   0.790  0.4708  0.9236 -0.3100
10539TIP3    H131553   0.539   7.675   0.787  0.9213  0.0187  1.2175
10539TIP3    H231554   0.448   7.576   0.717  2.4139 -1.8260  1.8604
10540TIP3   OH231555   6.047   1.828   6.480  0.7371 -0.2956  0.1928
10540TIP3    H131556   6.081   1.739   6.492 -0.9699 -0.7113  2.0422
10540TIP3    H231557   5.998   1.847   6.560 -0.2370  1.7252 -0.8401
10541TIP3   OH231558   5.815   3.690   5.270  0.0593  0.0039 -0.2277
10541TIP3    H131559   5.839   3.626   5.337  2.4194  0.5157 -0.5316
10541TIP3    H231560   5.752   3.747   5.313  0.9102 -0.1724  1.3125
10542TIP3   OH231561   4.094   3.950   6.139  0.1210  0.5033 -0.7455
10542TIP3    H131562   4.105   3.966   6.046 -0.9113 -1.3763 -1.2130
10542TIP3    H231563   4.058   3.862   6.145 -1.5157  1.2493  1.3465
10543TIP3   OH231564   6.591   2.515   6.915  0.0186 -0.1720 -0.2590
10543TIP3    H131565   6.584   2.443   6.853 -1.0465 -1.4950  1.3449
10543TIP3    H231566   6.685   2.532   6.922  0.1575 -0.1492 -2.0386
10544TIP3   OH231567   6.005   1.839   5.987  0.0654  0.2153 -0.4126
10544TIP3    H131568   6.010   1.873   6.077 -0.6402 -2.4448  0.6962
10544TIP3    H231569   6.069   1.890   5.938  0.0476  2.1209  1.4697
10545TIP3   OH231570   4.752   5.350   0.062  0.3427 -0.7153  0.4155
10545TIP3    H131571   4.814   5.299   0.010 -0.3358 -1.0328 -0.0901
10545TIP3    H231572   4.737   5.430   0.011 -0.3128 -1.0209  0.1197
10546TIP3   OH231573   6.682   1.548   5.513  0.4692  0.1779 -0.1078
10546TIP3    H131574   6.726   1.585   5.437  2.3551 -0.4542  0.6473
10546TIP3    H231575   6.752   1.512   5.567 -0.9774 -0.9870  1.0725
10547TIP3   OH231576   7.570   5.901   1.804 -0.0448  0.0038 -0.1365
10547TIP3    H131577   7.528   5.974   1.760  0.4778  0.5520  0.2769
10547TIP3    H231578   7.639   5.873   1.744 -2.3213 -2.2711 -1.8032
10548TIP3   OH231579   5.312   2.715   4.328 -0.0995  0.6853  0.3316
10548TIP3    H131580   5.281   2.801   4.302  0.3923  0.4396 -1.1310
10548TIP3    H231581   5.239   2.676   4.376 -0.4316  1.7954  0.7254
10549TIP3   OH231582   6.812   7.364   0.881  0.1051 -0.3946 -0.1895
10549TIP3    H131583   6.727   7.408   0.881 -0.6464 -1.8193 -0.8356
10549TIP3    H231584   6.854   7.392   0.800 -0.0413 -0.2124 -0.2016
10550TIP3   OH231585   5.132   1.495   6.282 -0.2189  0.0160 -0.3518
10550TIP3    H131586   5.182   1.536   6.212 -1.4931  0.5228 -0.9758
10550TIP3    H231587   5.148   1.401   6.271  2.0195  0.2390  0.5584
10551TIP3   OH231588   7.917   6.359   1.228 -0.4164 -0.5314 -0.1638
10551TIP3    H131589   7.907   6.279   1.176  2.2124 -0.6031 -0.6199
10551TIP3    H231590   7.902   6.331   1.318 -0.6732 -1.2980 -0.4389
10552TIP3   OH231591   8.297   6.587   2.626  0.0689  0.2187 -0.1454
10552TIP3    H131592   8.269   6.552   2.711 -1.0939  0.9509 -0.2086
10552TIP3    H231593   8.258   6.527   2.562  1.6091 -0.7948 -0.1588
10553TIP3   OH231594   5.936   2.487   6.509 -0.2248 -0.0449 -0.4196
10553TIP3    H131595   5.920   2.397   6.537 -0.2912 -0.0138 -0.3587
10553TIP3    H231596   6.032   2.493   6.501 -0.2538 -0.2831 -0.9627
10554TIP3   OH231597   6.413   2.067   6.654 -0.2898 -0.4719  0.7390
10554TIP3    H131598   6.360   2.037   6.728  0.0021  0.0491  1.1664
10554TIP3    H231599   6.350   2.105   6.593 -0.2894  1.4454  1.8803
10555TIP3   OH231600   0.331   4.802   1.224  0.0056  0.0684 -0.1574
10555TIP3    H131601   0.421   4.785   1.253 -0.1729 -2.0966 -0.7254
10555TIP3    H231602   0.332   4.893   1.194  1.4669  0.7361  1.8030
10556TIP3   OH231603   7.273   7.360   1.005  0.5433 -0.4732 -0.3269
10556TIP3    H131604   7.265   7.285   0.947  1.7380 -2.3369  1.8110
10556TIP3    H231605   7.354   7.404   0.978 -0.4804  0.4444 -1.9769
10557TIP3   OH231606   0.213   5.104   0.906 -0.5136  0.4536 -0.2368
10557TIP3    H131607   0.166   5.027   0.875 -0.2578 -0.1537  0.8879
10557TIP3    H231608   0.144   5.162   0.940 -0.5578  0.0635  0.3377
10558TIP3   OH231609   7.736   6.175   0.066 -0.0286 -0.3541 -0.9022
10558TIP3    H131610   7.741   6.264   0.101  0.2627 -0.6575 -0.1625
10558TIP3    H231611   7.728   6.119   0.144 -4.2649 -0.6969 -1.4788
10559TIP3   OH231612   3.120   2.372   6.260  0.0930 -0.0852  0.6437
10559TIP3    H131613   3.041   2.391   6.310  0.5323  0.0345  1.2956
10559TIP3    H231614   3.140   2.281   6.281  0.1394 -0.1094  0.4933
10560TIP3   OH231615   0.300   5.053   1.169 -0.2291  0.4553 -0.1998
10560TIP3    H131616   0.213   5.091   1.175 -0.6312 -0.5750  0.6665
10560TIP3    H231617   0.316   5.042   1.076 -0.6622  1.4620 -0.3953
10561TIP3   OH231618   7.450   7.419   2.526 -0.2732 -0.2614 -0.4772
10561TIP3    H131619   7.393   7.350   2.560  0.5796  0.3601  2.3242
10561TIP3    H231620   7.446   7.488   2.592  0.7396  1.3930 -2.1028
10562TIP3   OH231621   5.200   4.533   4.472 -0.1239 -0.4567 -0.4786
10562TIP3    H131622   5.170   4.487   4.550 -1.0661 -0.6689 -0.9626
10562TIP3    H231623   5.236   4.615   4.504 -1.5701 -0.0355  0.0621
10563TIP3   OH231624   3.609   5.150   4.700  0.0475 -0.3411  0.0710
10563TIP3    H131625   3.603   5.055   4.690  1.2254 -0.2220 -1.8476
10563TIP3    H231626   3.646   5.181   4.618  1.6704  1.5787  1.4835
10564TIP3   OH231627   5.121   4.125   4.426 -0.3535 -0.0060 -1.2707
10564TIP3    H131628   5.111   4.210   4.468 -1.3427 -0.3364 -0.8259
10564TIP3    H231629   5.197   4.136   4.368 -0.3513  1.1146 -1.0716
10565TIP3   OH231630   4.031   6.560   0.483  0.3179 -0.0708  0.4518
10565TIP3    H131631   4.109   6.521   0.444  0.1715  1.5686 -1.5516
10565TIP3    H231632   4.064   6.626   0.543  0.4791  0.2482  0.0112
10566TIP3   OH231633   4.790   2.581   5.403 -0.3517  0.1133 -0.0645
10566TIP3    H131634   4.710   2.614   5.362 -1.2038 -2.4540 -0.5919
10566TIP3    H231635   4.762   2.503   5.451  1.3083  0.9541  2.3381
10567TIP3   OH231636   4.266   2.059   5.319  0.8076 -0.3328 -0.5484
10567TIP3    H131637   4.346   2.111   5.319  2.2421 -2.3610 -4.1382
10567TIP3    H231638   4.295   1.969   5.304 -1.9013 -1.6806  1.6592
10568TIP3   OH231639   5.397   4.463   6.617  0.0791  0.2775  0.7921
10568TIP3    H131640   5.334   4.396   6.589 -1.0531  1.4730  0.4448
10568TIP3    H231641   5.456   4.473   6.542  1.6894 -1.9786  1.6964
10569TIP3   OH231642   5.098   2.690   5.409  0.2134 -0.2247 -0.5854
10569TIP3    H131643   5.063   2.628   5.473  0.2194 -1.3261 -1.6441
10569TIP3    H231644   5.160   2.639   5.357  0.5398  0.7741 -1.1871
10570TIP3   OH231645   4.016   2.560   5.012  0.1568  0.1907  0.6083
10570TIP3    H131646   4.004   2.487   4.951 -0.7165 -0.7214  1.8256
10570TIP3    H231647   3.937   2.614   5.001  1.3384  1.6176 -1.1310
10571TIP3   OH231648   5.821   3.552   3.359  0.1737  0.2158  0.1003
10571TIP3    H131649   5.798   3.575   3.269  0.5655  0.9614  0.1880
10571TIP3    H231650   5.775   3.469   3.375 -0.5282  0.4754 -0.5221
10572TIP3   OH231651   5.986   4.108   6.453 -0.0177  0.4310  0.1498
10572TIP3    H131652   5.926   4.060   6.396 -0.7476  0.5895  0.7731
10572TIP3    H231653   5.957   4.086   6.541  1.5054 -0.3177  0.4733
10573TIP3   OH231654   1.276   7.815   2.052  0.3240 -0.0261 -0.1787
10573TIP3    H131655   1.332   7.889   2.029  1.2725 -0.5585  0.4098
10573TIP3    H231656   1.270   7.818   2.148  2.0938 -1.9432  0.0248
10574TIP3   OH231657   1.617   7.383   1.834 -0.0091 -0.0954 -0.0634
10574TIP3    H131658   1.560   7.436   1.889 -0.1408 -1.7873  1.4869
10574TIP3    H231659   1.700   7.379   1.883 -1.3683 -4.9779  2.1632
10575TIP3   OH231660   4.608   2.767   4.249 -0.0013  0.6055  0.4022
10575TIP3    H131661   4.523   2.748   4.210  0.7383 -0.0246 -0.9659
10575TIP3    H231662   4.625   2.859   4.227 -0.4330  0.8053  0.8960
10576TIP3   OH231663   4.495   1.531   6.374  0.4705  0.2285  0.2367
10576TIP3    H131664   4.563   1.597   6.367  1.5064 -0.8965 -0.4171
10576TIP3    H231665   4.414   1.581   6.383  1.4384  1.5779  1.7915
10577TIP3   OH231666   4.661   3.647   6.239  0.2532 -0.4752 -0.0424
10577TIP3    H131667   4.609   3.592   6.181  0.0325 -0.8795  0.5319
10577TIP3    H231668   4.596   3.693   6.292  0.4193  0.7002 -0.8349
10578TIP3   OH231669   5.960   4.989   6.095 -0.2504  0.3441 -0.2373
10578TIP3    H131670   5.932   4.960   6.182 -1.8406  1.5446 -0.3196
10578TIP3    H231671   5.994   4.910   6.053 -0.4072 -0.4582  1.1057
10579TIP3   OH231672   6.772   1.818   4.709  0.3792 -0.2349  0.0165
10579TIP3    H131673   6.739   1.756   4.644  0.4659 -1.4273  1.0825
10579TIP3    H231674   6.753   1.904   4.672 -0.3672 -0.8967 -1.1810
10580TIP3   OH231675   7.649   1.062   5.503 -0.1054  0.0636 -0.2597
10580TIP3    H131676   7.680   1.119   5.573 -1.7371 -1.5033  1.8345
10580TIP3    H231677   7.659   1.114   5.423  1.9422  1.8466  1.0992
10581TIP3   OH231678   5.453   0.985   4.142  0.1818 -0.0491 -0.3419
10581TIP3    H131679   5.375   0.948   4.183  0.6869  1.1102  1.7864
10581TIP3    H231680   5.480   0.920   4.077 -2.3017 -0.6310 -0.8202
10582TIP3   OH231681   5.908   3.234   5.517 -0.1311 -0.0592  0.5428
10582TIP3    H131682   5.987   3.213   5.568 -0.4317  0.3423  1.1777
10582TIP3    H231683   5.841   3.252   5.582 -0.5551  0.3378  0.0049
10583TIP3   OH231684   1.144   6.477   0.423  0.5123 -0.3496 -0.1979
10583TIP3    H131685   1.226   6.481   0.472  0.5415 -0.8097 -0.2059
10583TIP3    H231686   1.156   6.403   0.364 -0.2811 -1.0256  0.4792
10584TIP3   OH231687   1.407   4.777   0.341  0.0354 -0.2317  0.1755
10584TIP3    H131688   1.406   4.682   0.345  1.7154 -0.2166  1.5070
10584TIP3    H231689   1.376   4.805   0.428  0.0360  0.4367 -0.0398
10585TIP3   OH231690   3.953   0.599   5.054  0.3619  0.0361 -0.4822
10585TIP3    H131691   4.040   0.637   5.044 -0.2254  1.8215  0.7782
10585TIP3    H231692   3.893   0.672   5.037 -0.8393 -0.6516  0.6968
10586TIP3   OH231693   5.785   0.385   6.924  0.1864 -0.1451  0.0548
10586TIP3    H131694   5.772   0.477   6.900  0.7272  0.2041  1.0455
10586TIP3    H231695   5.876   0.367   6.904 -0.8730 -1.6783 -3.9183
10587TIP3   OH231696   6.357   4.746   2.119 -0.9874 -0.2509 -0.2750
10587TIP3    H131697   6.429   4.698   2.160 -1.3089 -0.9368 -0.5056
10587TIP3    H231698   6.381   4.751   2.026 -0.6728  0.5550 -0.1583
10588TIP3   OH231699   5.509   1.675   6.921  0.0519 -0.0620  0.7002
10588TIP3    H131700   5.481   1.647   6.834  0.5702  0.3934  0.3801
10588TIP3    H231701   5.554   1.598   6.957  0.3681 -0.0550  0.3258
10589TIP3   OH231702   4.035   1.948   4.948 -0.5055  0.6481 -0.4226
10589TIP3    H131703   4.027   1.892   4.871  1.9621  0.7662 -0.8059
10589TIP3    H231704   4.038   1.886   5.022  0.5166  0.3381 -0.7099
10590TIP3   OH231705   5.283   1.431   6.506 -0.4879 -0.4817 -0.0074
10590TIP3    H131706   5.239   1.458   6.425 -0.7194 -0.2301  0.2006
10590TIP3    H231707   5.211   1.410   6.567 -0.3164 -0.4590  0.2050
10591TIP3   OH231708   8.462   6.258   0.464 -0.9039 -0.3961 -0.4632
10591TIP3    H131709   8.418   6.317   0.525  0.2095 -0.0919  0.0716
10591TIP3    H231710   8.555   6.268   0.484 -0.7046 -2.6444 -0.0575
10592TIP3   OH231711   6.915   4.985   0.133 -0.0243  0.2929 -0.0287
10592TIP3    H131712   6.850   5.021   0.193 -1.6469 -0.5625 -1.2173
10592TIP3    H231713   6.939   5.059   0.076  0.6262  0.7977  0.8872
10593TIP3   OH231714   3.934   1.690   6.009  0.2466  0.1213  0.1952
10593TIP3    H131715   3.950   1.625   6.077  1.6584 -1.6074 -1.7193
10593TIP3    H231716   3.839   1.691   5.998 -0.0156  0.5367  2.2454
10594TIP3   OH231717   7.845   4.203   1.123 -0.3098  0.0633 -0.2474
10594TIP3    H131718   7.901   4.281   1.126 -1.9330  1.1994  2.2092
10594TIP3    H231719   7.880   4.151   1.051  2.6733  1.6503 -0.0050
10595TIP3   OH231720   4.124   2.203   4.662 -0.0478 -0.4544  0.3754
10595TIP3    H131721   4.049   2.144   4.670  0.2626 -0.7728  0.9951
10595TIP3    H231722   4.128   2.248   4.746  0.6288 -0.6470  0.4492
10596TIP3   OH231723   3.925   1.689   0.930  0.6492  0.1362  0.1719
10596TIP3    H131724   4.000   1.689   0.989  1.1621  1.2356 -0.4699
10596TIP3    H231725   3.899   1.781   0.924  0.7287  0.0552 -1.4826
10597TIP3   OH231726   1.252   7.156   0.471  0.3179 -0.2912  0.2944
10597TIP3    H131727   1.281   7.081   0.420 -1.8111 -0.2976 -0.9432
10597TIP3    H231728   1.301   7.149   0.554 -0.4322 -3.4696  0.5330
10598TIP3   OH231729   3.537   3.600   5.439 -0.3946 -0.2999  0.4254
10598TIP3    H131730   3.617   3.589   5.387 -0.0297  0.3925  0.8490
10598TIP3    H231731   3.487   3.520   5.421 -0.2366 -0.1118 -0.9329
10599TIP3   OH231732   4.054   2.864   4.720 -0.2175 -0.8574 -0.4064
10599TIP3    H131733   4.128   2.804   4.712  2.3695  2.1697 -0.2789
10599TIP3    H231734   4.023   2.877   4.631  1.7823  0.6446 -0.9138
10600TIP3   OH231735   6.022   2.328   5.593  1.1375  0.0609  0.0759
10600TIP3    H131736   6.067   2.277   5.660 -0.1243  0.1722  1.0291
10600TIP3    H231737   6.051   2.418   5.606  1.9060 -0.1169 -0.3853
10601TIP3   OH231738   6.613   1.664   4.525  0.3102 -0.5825  0.2775
10601TIP3    H131739   6.517   1.665   4.520  0.3467  0.3501 -0.4886
10601TIP3    H231740   6.639   1.597   4.462  0.1792 -0.3821  0.0061
10602TIP3   OH231741   5.400   6.716   6.367 -0.5254  0.4095 -0.1371
10602TIP3    H131742   5.333   6.747   6.428 -0.4149 -0.7873  0.6210
10602TIP3    H231743   5.381   6.762   6.286 -0.4515  2.3145  0.8905
10603TIP3   OH231744   5.732   6.988   0.174 -0.4368  0.0480  0.0299
10603TIP3    H131745   5.801   6.983   0.240 -0.2917 -1.1905 -0.2044
10603TIP3    H231746   5.668   6.921   0.200 -1.1246  0.5865 -0.2414
10604TIP3   OH231747   4.710   2.085   5.593  0.3220 -0.0275 -0.2628
10604TIP3    H131748   4.705   2.007   5.648  2.1225  0.4488  0.6071
10604TIP3    H231749   4.752   2.054   5.512 -1.3803 -0.5083 -0.9742
10605TIP3   OH231750   5.509   2.406   5.387 -0.4721  0.4379  0.3533
10605TIP3    H131751   5.505   2.311   5.385  1.6148  0.2776  1.7998
10605TIP3    H231752   5.418   2.434   5.389 -1.1529 -1.6717  4.6722
10606TIP3   OH231753   0.454   6.182   0.030 -0.0297  0.0911 -0.3488
10606TIP3    H131754   0.518   6.240   0.072 -0.3895  0.2045  0.0513
10606TIP3    H231755   0.464   6.200  -0.064  2.3676 -1.8333 -0.4937
10607TIP3   OH231756   6.248   3.446   5.968  0.4906 -0.1188  0.3037
10607TIP3    H131757   6.295   3.373   6.008 -1.0908 -0.0154  2.4098
10607TIP3    H231758   6.256   3.517   6.031  0.6191  1.0405 -0.9947
10608TIP3   OH231759   8.278   5.832   1.538 -0.3745  0.2845  0.0807
10608TIP3    H131760   8.294   5.741   1.563 -0.8749 -0.6142 -2.6492
10608TIP3    H231761   8.198   5.829   1.485 -0.5657  2.3577  0.2127
10609TIP3   OH231762   7.992   6.784   2.298  0.6013  0.4144 -0.3658
10609TIP3    H131763   7.907   6.741   2.304  1.0294 -0.3122  0.7308
10609TIP3    H231764   8.031   6.748   2.218 -0.1692  0.8542 -0.9442
10610TIP3   OH231765   5.439   0.750   6.081  0.2884 -0.5776  0.3258
10610TIP3    H131766   5.490   0.824   6.114  2.8308 -1.8306 -0.7041
10610TIP3    H231767   5.381   0.788   6.016  0.9062  0.6631  0.4907
10611TIP3   OH231768   7.768   2.421   6.857 -0.1875 -0.1953  0.1151
10611TIP3    H131769   7.835   2.404   6.791 -0.3731 -2.6870  0.4931
10611TIP3    H231770   7.812   2.403   6.940 -0.5768  0.7615  0.5277
10612TIP3   OH231771   4.581   1.522   2.922 -0.2163 -0.4605 -0.0829
10612TIP3    H131772   4.619   1.451   2.869  1.6170  0.7697 -0.4641
10612TIP3    H231773   4.491   1.529   2.890 -0.3713 -2.4605 -0.1869
10613TIP3   OH231774   2.771   0.619   5.745 -0.1246 -0.1174 -0.0443
10613TIP3    H131775   2.834   0.689   5.762  0.7588 -0.8989 -0.0715
10613TIP3    H231776   2.714   0.654   5.677 -0.1690  0.8742  0.4904
10614TIP3   OH231777   6.574   1.472   4.330 -0.2859  0.0571 -0.3005
10614TIP3    H131778   6.646   1.454   4.270  0.4405  0.5546  0.4092
10614TIP3    H231779   6.496   1.473   4.275  0.0182 -2.1756 -0.8456
10615TIP3   OH231780   4.675   0.714   6.256  0.1385  0.8384  0.0472
10615TIP3    H131781   4.607   0.776   6.232  0.2128  0.7136 -0.4982
10615TIP3    H231782   4.727   0.759   6.322  2.2101  2.6664 -2.7375
10616TIP3   OH231783   5.099   1.535   4.862  0.1123 -0.4843 -0.0773
10616TIP3    H131784   5.132   1.571   4.779 -3.5723  0.2852 -1.3207
10616TIP3    H231785   5.134   1.446   4.865  2.7981  0.4820 -0.9184
10617TIP3   OH231786   5.078   4.247   5.140 -0.0078  0.2169 -0.4404
10617TIP3    H131787   5.087   4.189   5.065  0.9325  0.1101 -0.2501
10617TIP3    H231788   4.999   4.298   5.122 -0.1757 -0.3017 -1.1636
10618TIP3   OH231789   4.442   4.099   5.084 -0.2376  0.5073 -0.4469
10618TIP3    H131790   4.430   4.025   5.026  1.3740  0.7645 -1.1211
10618TIP3    H231791   4.524   4.081   5.131 -1.0815  0.6925  1.1485
10619TIP3   OH231792   6.695   4.273   1.168  0.5140 -0.0577 -0.0437
10619TIP3    H131793   6.603   4.292   1.150  0.3417 -0.7519  0.0656
10619TIP3    H231794   6.733   4.356   1.195 -0.1621  0.1657  0.2143
10620TIP3   OH231795   1.866   0.253   0.386 -0.2972  0.3574  1.2332
10620TIP3    H131796   1.839   0.216   0.302 -0.0594 -0.7370  1.6220
10620TIP3    H231797   1.786   0.259   0.437 -0.4759  1.2326  0.8486
10621TIP3   OH231798   4.425   3.373   6.494 -0.4701  0.0406  0.3711
10621TIP3    H131799   4.354   3.350   6.435 -0.5414 -0.0119  0.4770
10621TIP3    H231800   4.388   3.363   6.582 -0.7011  1.2209  0.4061
10622TIP3   OH231801   0.380   5.916   0.030 -0.0996 -0.0286 -0.0704
10622TIP3    H131802   0.382   5.878   0.117 -1.7129 -1.9512 -0.8153
10622TIP3    H231803   0.390   6.010   0.044  0.4552 -0.3859  2.1002
10623TIP3   OH231804   0.082   6.782   1.865 -0.0234  0.2924 -0.1763
10623TIP3    H131805   0.158   6.831   1.895 -0.0413  0.1562  0.0988
10623TIP3    H231806   0.099   6.763   1.773  1.0364 -1.1735  0.3054
10624TIP3   OH231807   5.849   3.503   5.456  0.2488 -0.3728 -0.4526
10624TIP3    H131808   5.899   3.428   5.424  0.3678 -0.7831  0.6363
10624TIP3    H231809   5.777   3.463   5.505  0.5324  0.2243  0.4645
10625TIP3   OH231810   8.032   4.177   6.147  0.0055  0.4950  0.4243
10625TIP3    H131811   7.961   4.152   6.206 -0.5111  2.1728  0.5421
10625TIP3    H231812   8.058   4.265   6.176 -0.1850  1.3062 -1.7454
10626TIP3   OH231813   5.741   1.861   5.958 -0.4479  0.1514  0.3820
10626TIP3    H131814   5.728   1.932   5.895  0.5133 -1.5765 -1.8125
10626TIP3    H231815   5.836   1.847   5.958 -0.7784 -2.2728 -0.5161
10627TIP3   OH231816   6.103   3.023   5.932  0.2931  0.0169  0.2350
10627TIP3    H131817   6.075   2.960   5.865  0.0944  1.4099 -1.0222
10627TIP3    H231818   6.059   2.994   6.012 -1.2977 -0.3441 -0.7449
10628TIP3   OH231819   5.061   3.146   5.073 -0.1495  0.2657  0.3824
10628TIP3    H131820   5.063   3.131   4.979 -0.5066  1.5146  0.1670
10628TIP3    H231821   4.986   3.094   5.104 -2.0275  2.3264 -0.5059
10629TIP3   OH231822   6.198   2.528   5.372  0.3731 -0.0959 -0.3543
10629TIP3    H131823   6.225   2.454   5.425  0.4629 -0.2978 -0.6845
10629TIP3    H231824   6.196   2.495   5.282 -0.0846  0.1586 -0.4422
10630TIP3   OH231825   1.263   5.814   0.901  0.0479 -0.0717 -0.3920
10630TIP3    H131826   1.217   5.746   0.950 -1.5367 -0.5602 -2.4519
10630TIP3    H231827   1.234   5.896   0.942 -0.0185 -0.5385  0.4967
10631TIP3   OH231828   5.760   2.948   5.828 -0.1540 -0.9802  0.2826
10631TIP3    H131829   5.771   2.864   5.872  0.0734 -0.8796  0.4195
10631TIP3    H231830   5.750   3.012   5.899  0.3728 -0.7968  0.1973
10632TIP3   OH231831   5.384  -0.000   1.263  0.1002  0.2585 -0.1238
10632TIP3    H131832   5.335   0.077   1.236 -2.2280 -1.2799 -0.4390
10632TIP3    H231833   5.438   0.030   1.337  1.3893  2.8249 -2.0275
10633TIP3   OH231834   6.953   3.611   5.255 -1.6681 -0.5880 -0.0417
10633TIP3    H131835   6.924   3.684   5.309  0.2130 -0.1320  0.3999
10633TIP3    H231836   7.045   3.600   5.278 -1.2404 -1.3898 -2.0468
10634TIP3   OH231837   5.303   0.640   5.005  0.0097  0.2057 -0.1939
10634TIP3    H131838   5.252   0.576   4.956  0.3123 -0.7402  0.7088
10634TIP3    H231839   5.239   0.705   5.035 -0.3119  0.2660 -1.0186
10635TIP3   OH231840   7.539   3.473   3.986 -0.1962  0.3127  0.4050
10635TIP3    H131841   7.524   3.492   3.893 -0.0156 -2.5539 -0.2467
10635TIP3    H231842   7.621   3.520   4.006 -0.2837  1.0390 -0.8521
10636TIP3   OH231843   4.629   3.561   6.585 -0.4026 -0.5197 -0.0817
10636TIP3    H131844   4.717   3.531   6.563  0.1650  1.0566 -0.0188
10636TIP3    H231845   4.572   3.514   6.524  0.8470  1.2486 -2.7192
10637TIP3   OH231846   4.449   2.479   5.834 -0.2733 -0.5233 -0.4669
10637TIP3    H131847   4.443   2.554   5.893  2.2277 -0.9700  0.4503
10637TIP3    H231848   4.520   2.502   5.773 -0.6994 -1.3996 -1.3135
10638TIP3   OH231849   6.766   3.236   6.667 -0.3023  0.3567 -0.0736
10638TIP3    H131850   6.860   3.229   6.685 -0.1000  1.8776 -0.4381
10638TIP3    H231851   6.761   3.242   6.572 -0.9684 -2.2575 -0.2191
10639TIP3   OH231852   5.023   7.718   0.314 -0.1987 -0.3731  0.4564
10639TIP3    H131853   5.015   7.811   0.332  2.8870  0.1871 -0.7452
10639TIP3    H231854   4.998   7.708   0.223 -1.7153 -0.9244  0.9247
10640TIP3   OH231855   2.653   7.935   0.331  0.2807 -0.5668 -0.0998
10640TIP3    H131856   2.656   7.937   0.426  1.8146 -0.8301 -0.1372
10640TIP3    H231857   2.713   7.865   0.306  1.2687  0.6895 -1.3176
10641TIP3   OH231858   2.057   7.339   0.369 -0.2389  0.2921 -0.3163
10641TIP3    H131859   1.977   7.383   0.398 -0.6103 -0.3661 -0.3404
10641TIP3    H231860   2.072   7.271   0.435 -0.8957 -0.9930 -1.4847
10642TIP3   OH231861   4.355   2.306   5.574  0.2319 -0.1950  0.0618
10642TIP3    H131862   4.439   2.275   5.539 -0.2701 -1.8525  0.2622
10642TIP3    H231863   4.377   2.343   5.659  0.4870 -2.7772  1.1890
10643TIP3   OH231864   0.995   4.247   4.874 -0.2258  0.1015 -0.6505
10643TIP3    H131865   0.940   4.193   4.817 -1.1267 -1.2875  1.4848
10643TIP3    H231866   1.018   4.190   4.947  0.0515  2.1508  0.9226
10644TIP3   OH231867   4.907   0.851   5.863  0.7348  0.1886  0.2504
10644TIP3    H131868   4.940   0.930   5.819 -1.6004  0.5011 -1.0255
10644TIP3    H231869   4.870   0.884   5.945  2.4896  0.0023  1.1193
10645TIP3   OH231870   4.402   4.506   5.555 -0.0397 -0.1727 -0.3976
10645TIP3    H131871   4.338   4.564   5.513 -1.6504 -1.4565  0.2452
10645TIP3    H231872   4.383   4.512   5.648  0.0877 -1.3705 -0.2905
10646TIP3   OH231873   5.382   3.339   4.996  0.4753 -0.0315 -0.0634
10646TIP3    H131874   5.351   3.403   5.060 -1.4575 -1.7848  0.8186
10646TIP3    H231875   5.329   3.355   4.918  0.0930 -0.4665  0.1081
10647TIP3   OH231876   6.398   4.072   5.730 -0.3065  0.1091 -0.2767
10647TIP3    H131877   6.426   4.052   5.641 -0.2801  0.5474 -0.3712
10647TIP3    H231878   6.442   4.007   5.784  0.9966  0.8584 -0.4091
10648TIP3   OH231879   1.646   6.077   0.308 -0.4936  0.4761 -0.0324
10648TIP3    H131880   1.702   6.025   0.250 -0.9877 -0.6825  0.5100
10648TIP3    H231881   1.611   6.013   0.370 -4.6018  0.6220 -2.0029
10649TIP3   OH231882   5.360   3.280   6.288  0.2775  0.3018  0.0493
10649TIP3    H131883   5.427   3.237   6.236  0.0482  0.6007 -0.5032
10649TIP3    H231884   5.297   3.312   6.223 -1.1800 -1.2897  0.6535
10650TIP3   OH231885   6.469   4.483   3.881  0.1610 -0.1384 -0.1759
10650TIP3    H131886   6.551   4.469   3.927  0.7274  0.2894 -1.0372
10650TIP3    H231887   6.403   4.486   3.950  0.6943 -1.7725  0.4319
10651TIP3   OH231888   4.098   8.020   5.949  0.0594 -0.1983  0.0473
10651TIP3    H131889   4.052   7.937   5.943  0.7976 -0.6854  0.9904
10651TIP3    H231890   4.189   7.996   5.966  0.5325  0.7688 -1.0808
10652TIP3   OH231891   5.540   3.667   5.664 -0.4203 -0.3907  0.0410
10652TIP3    H131892   5.541   3.607   5.739  1.1222  0.6714  0.8983
10652TIP3    H231893   5.629   3.663   5.629  0.3596  2.9757  1.4327
10653TIP3   OH231894   6.468   3.425   6.896  0.3802 -0.2093  0.1705
10653TIP3    H131895   6.513   3.350   6.934  0.9805  0.8337  1.5569
10653TIP3    H231896   6.403   3.450   6.961 -0.4820 -0.1226 -0.7084
10654TIP3   OH231897   6.191   2.684   6.609 -0.0557 -0.6061  0.1755
10654TIP3    H131898   6.128   2.756   6.618 -0.9772 -1.4001  0.2222
10654TIP3    H231899   6.230   2.676   6.696 -0.2576 -0.4397  0.2834
10655TIP3   OH231900   7.908   4.411   6.283  0.1197 -0.4081  0.0055
10655TIP3    H131901   7.994   4.427   6.243 -0.0228 -1.3295 -0.6947
10655TIP3    H231902   7.914   4.450   6.370  2.5360 -3.6260  1.3736
10656TIP3   OH231903   6.653   5.825   5.298 -0.5343 -0.0360 -0.0344
10656TIP3    H131904   6.677   5.880   5.223  0.6418 -0.5673 -0.0642
10656TIP3    H231905   6.695   5.867   5.373 -1.3876  0.2779  0.2749
10657TIP3   OH231906   1.275   5.511   0.557  0.5348 -0.4155 -0.2721
10657TIP3    H131907   1.239   5.532   0.471  0.5045  0.6805 -0.0040
10657TIP3    H231908   1.199   5.487   0.609  0.6550 -2.0091 -0.7963
10658TIP3   OH231909   4.850   1.173   5.613  0.2917 -0.0901 -0.1799
10658TIP3    H131910   4.854   1.191   5.519 -1.3347 -0.0176 -0.2388
10658TIP3    H231911   4.881   1.255   5.654  0.5756  0.0302 -0.6325
10659TIP3   OH231912   4.647   3.101   5.602 -0.8406  0.3504  0.1531
10659TIP3    H131913   4.619   3.187   5.634  0.4749  1.8627 -2.5987
10659TIP3    H231914   4.617   3.098   5.512  2.3812 -0.5071 -0.9455
10660TIP3   OH231915   7.677   4.440   6.551 -0.0239 -0.0439 -0.4093
10660TIP3    H131916   7.706   4.528   6.575  1.0775 -0.0415 -1.6837
10660TIP3    H231917   7.751   4.384   6.574 -1.6257 -1.0141  2.6683
10661TIP3   OH231918   1.073   7.818   0.665  0.4040  0.0651  0.3290
10661TIP3    H131919   0.982   7.791   0.653  0.1018  0.6221  1.2764
10661TIP3    H231920   1.117   7.739   0.697 -0.0324  0.1353  1.1237
10662TIP3   OH231921   6.163   3.161   3.566  0.4116  0.0060  0.8621
10662TIP3    H131922   6.149   3.250   3.534 -0.0435 -0.7663 -1.1438
10662TIP3    H231923   6.076   3.122   3.564  0.9042 -1.0686 -0.1076
10663TIP3   OH231924   6.151   1.552   6.519 -0.6275  0.2326 -0.2536
10663TIP3    H131925   6.163   1.503   6.438 -0.0333 -0.6214  0.3482
10663TIP3    H231926   6.223   1.615   6.519 -1.1935  0.8929 -0.8590
10664TIP3   OH231927   7.494   2.553   6.169 -0.1730 -0.2712 -0.1703
10664TIP3    H131928   7.405   2.586   6.178 -1.2305 -2.8927 -0.4860
10664TIP3    H231929   7.504   2.534   6.076  0.7614  0.1323 -0.1558
10665TIP3   OH231930   6.144   4.158   6.818 -0.2427  0.0490  0.2849
10665TIP3    H131931   6.080   4.121   6.758  0.8301 -1.2425 -0.0915
10665TIP3    H231932   6.220   4.177   6.764  1.4861 -2.9922  1.4833
10666TIP3   OH231933   7.007   4.714   4.176 -0.1616 -0.0051 -0.3246
10666TIP3    H131934   6.994   4.687   4.267  0.6419 -1.6235 -0.6836
10666TIP3    H231935   7.073   4.784   4.181  2.1850 -2.1692  0.0914
10667TIP3   OH231936   7.155   3.224   4.721 -0.5678 -0.2171 -0.6815
10667TIP3    H131937   7.173   3.300   4.776 -3.1111  0.7592 -1.0991
10667TIP3    H231938   7.222   3.226   4.654  1.2226 -0.1171  1.0604
10668TIP3   OH231939   6.240   1.022   4.737 -0.2180 -0.0491  0.3103
10668TIP3    H131940   6.174   1.029   4.669 -0.3188  2.1641  0.5856
10668TIP3    H231941   6.267   1.113   4.753  1.9702 -0.8007  1.0784
10669TIP3   OH231942   4.699   0.099   0.144  0.4297  0.5665  0.3884
10669TIP3    H131943   4.633   0.041   0.105  0.3911  1.6917 -1.2904
10669TIP3    H231944   4.684   0.184   0.102  3.6521  0.5819 -0.8923
10670TIP3   OH231945   4.456   0.326   0.195  0.4904 -0.1545  0.4296
10670TIP3    H131946   4.508   0.317   0.115  1.1360 -1.0249  0.9398
10670TIP3    H231947   4.507   0.281   0.262 -0.0156  0.6326  1.3535
10671TIP3   OH231948   8.137   7.122   0.240  0.3084  0.1307 -0.1869
10671TIP3    H131949   8.109   7.203   0.198  1.3531  0.1366 -0.8862
10671TIP3    H231950   8.056   7.073   0.253 -0.2167  0.8677 -0.6488
10672TIP3   OH231951   2.475   7.895   0.687  0.2019 -0.0212 -0.1226
10672TIP3    H131952   2.516   7.963   0.740  0.4162  0.4864 -0.9331
10672TIP3    H231953   2.416   7.849   0.748 -1.6917  2.3488 -0.1051
10673TIP3   OH231954   6.333   3.639   4.236 -0.6871 -0.1079 -0.4927
10673TIP3    H131955   6.375   3.594   4.163  0.4592 -0.0346  0.1141
10673TIP3    H231956   6.405   3.670   4.290 -1.5010  0.9862 -0.0136
10674TIP3   OH231957   6.910   2.048   3.149 -0.6545 -0.2646  0.1348
10674TIP3    H131958   6.896   2.107   3.223  1.5589  0.6967 -0.1582
10674TIP3    H231959   6.828   2.051   3.100 -1.2846  1.0074  1.2333
10675TIP3   OH231960   4.840   2.832   3.627  0.2608 -0.0266 -0.1589
10675TIP3    H131961   4.854   2.832   3.721  0.8128  0.6745 -0.2434
10675TIP3    H231962   4.922   2.799   3.590 -0.8897 -2.9421 -0.2634
10676TIP3   OH231963   1.069   7.153   1.291 -0.2743  0.5210 -0.3169
10676TIP3    H131964   0.992   7.157   1.347 -0.3195  0.2783 -0.3579
10676TIP3    H231965   1.033   7.143   1.202 -0.1908 -0.0083 -0.2923
10677TIP3   OH231966   4.416   2.448   4.417 -0.2156  0.2389 -0.4011
10677TIP3    H131967   4.388   2.520   4.360  0.4331  1.9016  1.3214
10677TIP3    H231968   4.343   2.386   4.413 -0.8516  1.0396 -1.8170
10678TIP3   OH231969   4.632   6.037   4.416  0.9303  0.1456 -0.5858
10678TIP3    H131970   4.675   5.952   4.430  1.1171  0.1867 -0.8874
10678TIP3    H231971   4.538   6.017   4.419  0.9595  0.1579  0.6908
10679TIP3   OH231972   5.532   4.633   5.033 -0.1866 -0.1165  0.0326
10679TIP3    H131973   5.571   4.593   4.955 -1.1821  0.9362 -1.0243
10679TIP3    H231974   5.477   4.565   5.070  0.3638 -0.6535 -0.1228
10680TIP3   OH231975   4.313   7.766   6.876  0.2473 -0.4013 -0.0967
10680TIP3    H131976   4.333   7.696   6.938  2.8053  0.0448 -0.3728
10680TIP3    H231977   4.285   7.719   6.797 -1.5437 -1.0013  0.8637
10681TIP3   OH231978   2.243   7.764   1.490 -0.2430  0.0752  0.6509
10681TIP3    H131979   2.289   7.709   1.553  2.8422  0.4642 -1.1521
10681TIP3    H231980   2.223   7.845   1.538 -0.1825 -0.5918  1.8155
10682TIP3   OH231981   8.205   1.559   5.109  0.1861  0.1960  0.4985
10682TIP3    H131982   8.239   1.648   5.123  2.1215 -0.0496 -2.1940
10682TIP3    H231983   8.280   1.502   5.124 -0.5786 -0.8485  0.3690
10683TIP3   OH231984   6.020   3.207   4.331 -0.5287 -0.1433  0.1848
10683TIP3    H131985   6.037   3.301   4.329 -1.0376 -0.0131  1.5573
10683TIP3    H231986   5.995   3.189   4.422 -0.9916 -1.5030 -0.2026
10684TIP3   OH231987   1.251   7.033   0.828 -0.0565  0.8162  0.0786
10684TIP3    H131988   1.158   7.011   0.820 -0.2336  1.3568  0.6554
10684TIP3    H231989   1.257   7.123   0.795  0.2017  0.8956  0.3401
10685TIP3   OH231990   7.409   2.149   6.153 -0.4309 -0.3651 -0.6100
10685TIP3    H131991   7.481   2.201   6.118 -0.8980 -0.1193 -1.2129
10685TIP3    H231992   7.451   2.069   6.186  0.2279  0.1913 -0.0999
10686TIP3   OH231993   3.792   0.096   0.277  0.9773 -0.0810 -0.1816
10686TIP3    H131994   3.784   0.171   0.336  0.6325  0.2573 -0.6541
10686TIP3    H231995   3.834   0.131   0.198  1.5166 -0.5503 -0.1003
10687TIP3   OH231996   7.213   0.542   4.660 -0.0998  0.1109 -0.0157
10687TIP3    H131997   7.282   0.548   4.726  0.8424 -2.8460 -0.6479
10687TIP3    H231998   7.141   0.498   4.706  0.0983 -0.8179 -0.5764
10688TIP3   OH231999   0.809   6.523   0.987  0.4325 -0.7486  0.3038
10688TIP3    H132000   0.869   6.566   1.048  1.2063 -0.5731 -0.5808
10688TIP3    H232001   0.722   6.538   1.025  0.6766  1.5605  0.0356
10689TIP3   OH232002   2.145   6.766   1.367 -0.2554 -0.1294 -0.0150
10689TIP3    H132003   2.107   6.754   1.455 -1.1856  0.0871 -0.3852
10689TIP3    H232004   2.238   6.745   1.379 -0.0177  1.5962  1.4040
10690TIP3   OH232005   1.271   6.812   1.006 -0.6232  0.0094 -0.4659
10690TIP3    H132006   1.264   6.884   0.944  0.2842  0.8556  0.3893
10690TIP3    H232007   1.306   6.739   0.955 -0.5805  0.4735 -1.1073
10691TIP3   OH232008   7.335   2.546   4.976 -0.5736  0.0560 -0.2425
10691TIP3    H132009   7.303   2.457   4.989  0.8998 -0.4116  0.2506
10691TIP3    H232010   7.256   2.597   4.956 -1.7872 -0.8701  1.9738
10692TIP3   OH232011   5.385   3.341   6.868  0.5134 -0.5183 -0.0175
10692TIP3    H132012   5.321   3.275   6.897 -1.5175  1.3201 -0.1877
10692TIP3    H232013   5.392   3.401   6.943  0.4276  0.4469 -0.7763
10693TIP3   OH232014   4.799   3.455   6.375 -0.0440 -0.1230  0.1360
10693TIP3    H132015   4.754   3.514   6.314 -0.1186  0.2161  0.5153
10693TIP3    H232016   4.890   3.454   6.344 -0.0007  0.3438  0.2383
10694TIP3   OH232017   6.155   2.181   4.544 -0.3181 -0.2961  0.7288
10694TIP3    H132018   6.111   2.219   4.620  0.1670  0.0682  0.8334
10694TIP3    H232019   6.085   2.139   4.494 -0.7400  0.0285  1.0374
10695TIP3   OH232020   5.859   3.152   4.539  0.0617  0.0583  0.9319
10695TIP3    H132021   5.800   3.228   4.535  0.2798  0.2546  1.4609
10695TIP3    H232022   5.805   3.081   4.572 -0.3712 -0.2415 -0.3703
10696TIP3   OH232023   6.189   3.840   4.902  0.4462 -0.1553 -0.5987
10696TIP3    H132024   6.134   3.918   4.890  0.1930 -0.4472 -1.3059
10696TIP3    H232025   6.201   3.805   4.814 -1.2974 -2.1935 -0.0515
10697TIP3   OH232026   5.092   2.297   5.178 -0.0973  0.0880  0.0265
10697TIP3    H132027   5.100   2.359   5.105 -1.7660  0.6870  0.3230
10697TIP3    H232028   4.997   2.289   5.192  0.0731 -2.5644 -0.0351
10698TIP3   OH232029   6.668   1.760   5.901  0.4705 -0.0385  0.3827
10698TIP3    H132030   6.642   1.669   5.886  1.5142 -0.2117 -0.3932
10698TIP3    H232031   6.744   1.774   5.845  1.0848  0.9473  1.4233
10699TIP3   OH232032   6.806   3.097   4.426  0.1767 -0.1550 -0.1250
10699TIP3    H132033   6.742   3.068   4.360  2.1126 -2.4834 -1.0321
10699TIP3    H232034   6.862   3.159   4.378  1.3593 -1.5697 -0.5958
10700TIP3   OH232035   7.528   4.885   4.454  0.4273 -0.1366  0.6685
10700TIP3    H132036   7.620   4.898   4.479  0.1464 -0.2748  1.7774
10700TIP3    H232037   7.491   4.973   4.453  0.2647 -0.2004  1.3935
10701TIP3   OH232038   6.347   3.007   6.653 -0.6520  0.1472 -0.1384
10701TIP3    H132039   6.299   3.008   6.570 -1.7779 -2.7852  0.4353
10701TIP3    H232040   6.342   3.097   6.684 -1.9668  0.8558 -2.2643
10702TIP3   OH232041   5.788   2.440   4.634  0.2019  0.2417  0.2533
10702TIP3    H132042   5.805   2.477   4.548 -0.0917  0.5157  0.3136
10702TIP3    H232043   5.694   2.455   4.649 -0.5442 -2.9116 -0.8867
10703TIP3   OH232044   4.344   3.485   5.000  0.7767  0.0704 -0.2294
10703TIP3    H132045   4.267   3.429   5.001  1.2101 -0.5718 -1.9774
10703TIP3    H232046   4.416   3.427   4.974  1.4804  1.1162 -0.6607
10704TIP3   OH232047   6.840   2.019   5.928  0.4334  0.1841 -0.1004
10704TIP3    H132048   6.746   2.031   5.944  0.2568 -1.4657  0.2260
10704TIP3    H232049   6.864   2.092   5.871 -1.0360  0.6461 -0.1672
10705TIP3   OH232050   5.377   2.808   6.529 -0.1957  0.2759  0.2812
10705TIP3    H132051   5.471   2.806   6.512  0.1056 -0.5888  1.9359
10705TIP3    H232052   5.362   2.889   6.578 -0.1665 -0.0217  0.7871
10706TIP3   OH232053   2.558   7.533   0.113  0.7597 -0.2514  0.4104
10706TIP3    H132054   2.505   7.613   0.109  0.6003 -0.4470 -2.2646
10706TIP3    H232055   2.645   7.564   0.137  0.8707  0.8459 -1.3071
10707TIP3   OH232056   2.255   5.429   0.150  0.0134 -0.4829 -0.2364
10707TIP3    H132057   2.202   5.350   0.141  1.1880 -1.2163 -0.8953
10707TIP3    H232058   2.340   5.405   0.113  0.5540  0.9216  0.0590
10708TIP3   OH232059   6.074   0.853   6.283 -0.1955 -0.0783  0.3757
10708TIP3    H132060   6.065   0.818   6.195 -2.5335 -0.2482  0.6512
10708TIP3    H232061   6.088   0.776   6.338  2.3473  0.1167  0.0485
10709TIP3   OH232062   6.380   2.735   4.739  0.1050  0.7435 -0.3220
10709TIP3    H132063   6.378   2.695   4.652  1.1075 -1.4062  0.6086
10709TIP3    H232064   6.293   2.717   4.776  0.2746  0.1326 -0.2207
10710TIP3   OH232065   8.353   7.096   1.181 -0.4834  0.5050 -0.3476
10710TIP3    H132066   8.275   7.052   1.149  0.0512  0.0380 -1.0267
10710TIP3    H232067   8.412   7.097   1.106  1.1167 -1.3293  0.8433
10711TIP3   OH232068   3.662   3.828   5.102 -0.6731 -0.5326  0.1006
10711TIP3    H132069   3.692   3.855   5.188 -1.2545 -0.2262  0.2138
10711TIP3    H232070   3.741   3.824   5.048 -0.8048  3.8277 -0.5932
10712TIP3   OH232071   0.486   5.290   0.496 -0.3310 -0.0843  0.2166
10712TIP3    H132072   0.496   5.378   0.531 -1.8750  0.1044  0.2156
10712TIP3    H232073   0.557   5.280   0.433  0.6597  0.6605  1.2234
10713TIP3   OH232074   1.328   6.634   0.797  0.2404  0.1311  0.7622
10713TIP3    H132075   1.317   6.639   0.702  1.5657 -1.5109  0.5044
10713TIP3    H232076   1.253   6.582   0.826  0.6055 -0.5761  0.4453
10714TIP3   OH232077   6.267   4.625   5.834  0.3656  0.0450  0.0283
10714TIP3    H132078   6.289   4.635   5.741  0.1807 -1.5607 -0.1954
10714TIP3    H232079   6.304   4.703   5.875  2.1331 -0.1566 -1.1150
10715TIP3   OH232080   6.973   2.722   4.054 -0.3980 -0.3894  0.0868
10715TIP3    H132081   6.932   2.728   4.140 -0.7421 -0.9160 -0.0407
10715TIP3    H232082   6.973   2.812   4.022  0.1111 -0.1263  0.8120
10716TIP3   OH232083   8.045   5.125   5.773 -0.1324 -0.3450  0.5839
10716TIP3    H132084   8.007   5.039   5.792  1.5556 -1.1247  0.4993
10716TIP3    H232085   8.048   5.128   5.677  0.4152 -0.4640  0.5977
10717TIP3   OH232086   7.645   5.383   3.975 -0.1193  0.6866 -0.0454
10717TIP3    H132087   7.681   5.358   4.060 -1.1199 -1.8798 -0.3303
10717TIP3    H232088   7.698   5.457   3.947  1.0555  0.7361  2.2295
10718TIP3   OH232089   2.251   6.821   0.121 -0.0619 -0.3319 -0.5880
10718TIP3    H132090   2.341   6.794   0.137  0.6104  2.3390  0.4112
10718TIP3    H232091   2.253   6.863   0.035  0.3805  2.6775  0.8368
10719TIP3   OH232092   6.107   5.658   6.656  0.0237  0.2806 -0.2931
10719TIP3    H132093   6.101   5.669   6.561 -0.8084 -2.0597 -0.5480
10719TIP3    H232094   6.108   5.563   6.669  0.3799  0.5739  2.0280
10720TIP3   OH232095   5.843   0.899   3.668 -0.2817 -0.6721  0.2279
10720TIP3    H132096   5.845   0.811   3.629 -0.7134 -0.1750 -0.9466
10720TIP3    H232097   5.750   0.915   3.685 -0.2324 -0.3287  0.1757
10721TIP3   OH232098   6.041   3.010   5.465  0.2985  0.8488  0.3274
10721TIP3    H132099   5.979   3.083   5.463  0.7395  1.1895 -0.9681
10721TIP3    H232100   5.998   2.944   5.520 -1.1456  1.1416 -0.4256
10722TIP3   OH232101   5.685   4.736   5.963 -0.6040 -0.0428 -0.4969
10722TIP3    H132102   5.707   4.706   5.875  0.1764  0.1310 -0.3596
10722TIP3    H232103   5.686   4.832   5.956 -1.3521 -0.0303 -0.4975
10723TIP3   OH232104   6.832   6.361   5.815  0.0418  0.1204 -0.0196
10723TIP3    H132105   6.785   6.357   5.899 -0.0315  0.6512 -0.0273
10723TIP3    H232106   6.894   6.289   5.819  0.6311  0.6651  0.8620
10724TIP3   OH232107   2.497   7.479   0.951  0.2717  0.0938 -0.4972
10724TIP3    H132108   2.440   7.464   0.876 -0.3950  0.6840 -0.1185
10724TIP3    H232109   2.497   7.574   0.962 -0.1994 -0.0390  0.6845
10725TIP3   OH232110   7.244   2.477   6.862  0.4402  0.0385  0.4841
10725TIP3    H132111   7.205   2.390   6.853  0.5242 -0.1080  1.4675
10725TIP3    H232112   7.178   2.536   6.827  0.5604 -0.4529 -0.5844
10726TIP3   OH232113   6.806   6.014   5.527  0.0996  0.1025 -0.4158
10726TIP3    H132114   6.873   6.080   5.507  0.2093  0.2834  0.5510
10726TIP3    H232115   6.855   5.941   5.564 -0.1527 -0.1011 -0.4815
10727TIP3   OH232116   6.971   4.010   5.775  0.5690 -0.1458 -0.1697
10727TIP3    H132117   6.992   3.972   5.860 -0.6556 -1.7239 -0.5555
10727TIP3    H232118   7.051   4.000   5.723  0.3376 -2.0548 -0.1999
10728TIP3   OH232119   3.367   0.059   4.344 -0.5834 -0.1482 -0.6326
10728TIP3    H132120   3.431   0.129   4.338 -1.2239  0.7518  2.1574
10728TIP3    H232121   3.347   0.052   4.438 -3.2067 -1.6226 -1.2350
10729TIP3   OH232122   6.566   6.269   4.010 -0.1490 -0.3014 -0.7127
10729TIP3    H132123   6.643   6.214   3.999  2.0357  2.8357 -2.0018
10729TIP3    H232124   6.579   6.310   4.096 -0.4498  0.1299 -0.8737
10730TIP3   OH232125   3.505   4.670   4.884 -0.0608  0.1724  0.4712
10730TIP3    H132126   3.443   4.723   4.935  0.5756  0.9921  0.4071
10730TIP3    H232127   3.511   4.588   4.932  0.4208  0.8794  1.6646
10731TIP3   OH232128   5.395   4.297   4.541  0.4944 -0.3394  0.1920
10731TIP3    H132129   5.331   4.328   4.605  1.2113 -0.2993  0.8877
10731TIP3    H232130   5.404   4.203   4.561 -0.2181 -0.5998 -0.6617
10732TIP3   OH232131   4.145   3.653   4.137  0.0860 -0.0425  0.0968
10732TIP3    H132132   4.158   3.729   4.081  1.0299 -0.5312 -0.3529
10732TIP3    H232133   4.064   3.672   4.184 -1.5166 -0.2505 -2.4834
10733TIP3   OH232134   6.776   3.366   2.721  0.2799 -0.6559  0.1583
10733TIP3    H132135   6.786   3.431   2.651  1.5652 -1.5894 -0.5316
10733TIP3    H232136   6.785   3.282   2.678 -2.3460 -1.3587  0.9063
10734TIP3   OH232137   6.514   1.731   6.366  0.0818 -0.3709 -0.2207
10734TIP3    H132138   6.554   1.786   6.434  0.9610  0.5104 -1.4386
10734TIP3    H232139   6.568   1.745   6.288 -2.2998  0.4535 -1.7696
10735TIP3   OH232140   7.506   3.179   5.878  0.4044 -0.0008 -0.3226
10735TIP3    H132141   7.444   3.165   5.807 -0.1075  0.7024 -0.0296
10735TIP3    H232142   7.482   3.265   5.913  0.0251 -0.7454  1.2997
10736TIP3   OH232143   0.303   5.792   1.044 -0.5473 -0.2952 -0.2475
10736TIP3    H132144   0.259   5.743   1.113 -0.9308  0.0055 -0.2790
10736TIP3    H232145   0.303   5.883   1.075 -0.0996 -0.2671 -0.3232
10737TIP3   OH232146   6.667   3.554   6.115 -0.0060  0.7931 -0.0043
10737TIP3    H132147   6.657   3.528   6.024 -0.9771  0.1950  0.2669
10737TIP3    H232148   6.598   3.507   6.161  0.2706  1.3472  0.9908
10738TIP3   OH232149   6.396   5.790   5.540  0.4124 -0.1251 -0.2432
10738TIP3    H132150   6.367   5.752   5.623 -2.1913  1.6767 -0.2639
10738TIP3    H232151   6.454   5.861   5.565 -2.1041  1.8424  0.1865
10739TIP3   OH232152   8.050   2.314   6.370 -0.1231 -0.3018 -0.2777
10739TIP3    H132153   8.123   2.374   6.354 -0.4741  0.2977  0.3492
10739TIP3    H232154   8.086   2.246   6.427 -0.3273  0.5659  0.8926
10740TIP3   OH232155   5.887   4.497   5.762  0.1827  0.1056 -0.1497
10740TIP3    H132156   5.875   4.547   5.682  1.5072  0.2739 -0.2559
10740TIP3    H232157   5.981   4.479   5.765 -0.0911 -1.3205  0.5099
10741TIP3   OH232158   4.977   2.891   4.654 -0.8157 -0.6438 -0.0802
10741TIP3    H132159   4.940   2.904   4.567  0.4190 -0.9841 -0.6697
10741TIP3    H232160   5.010   2.801   4.653  1.1914  0.0600 -0.0370
10742TIP3   OH232161   2.108   7.948   0.536 -0.4621 -0.1554  0.1120
10742TIP3    H132162   2.070   7.974   0.620 -1.1070  0.7858 -0.4606
10742TIP3    H232163   2.159   8.023   0.508 -0.6542 -0.2822 -0.5796
10743TIP3   OH232164   4.831   2.820   5.530  0.7924  0.3734  0.3637
10743TIP3    H132165   4.851   2.736   5.487  0.2471  0.7308 -0.6027
10743TIP3    H232166   4.739   2.835   5.511  1.0383  1.4853  0.0261
10744TIP3   OH232167   8.269   7.841   1.651 -0.2304  0.4240  0.1442
10744TIP3    H132168   8.364   7.840   1.660 -0.3108  0.1381  1.0298
10744TIP3    H232169   8.238   7.786   1.723 -1.0474  0.2165 -0.3676
10745TIP3   OH232170   6.394   2.054   4.505 -0.0184  0.1597  0.0199
10745TIP3    H132171   6.319   2.114   4.514 -0.1164 -0.1358  1.2667
10745TIP3    H232172   6.424   2.067   4.415 -2.4496 -0.7401 -0.9741
10746TIP3   OH232173   6.609   3.615   6.793 -0.2957  0.2643 -0.0390
10746TIP3    H132174   6.557   3.536   6.785  0.2190  0.0038 -0.8035
10746TIP3    H232175   6.645   3.611   6.882 -1.3637  0.3191  0.3967
10747TIP3   OH232176   7.382   1.654   5.417 -0.0493  0.1491 -0.0157
10747TIP3    H132177   7.408   1.737   5.376 -1.4031  0.1903 -0.8408
10747TIP3    H232178   7.432   1.587   5.369  0.5070  0.4222  0.1762
10748TIP3   OH232179   5.100   2.518   4.989 -0.1728  0.5513  0.4160
10748TIP3    H132180   5.029   2.562   5.036 -2.3882 -1.3405 -1.0346
10748TIP3    H232181   5.095   2.552   4.900  0.4331  0.0636  0.1956
10749TIP3   OH232182   6.810   1.965   6.726 -1.1974 -0.1575 -0.2627
10749TIP3    H132183   6.789   1.955   6.819 -0.1355 -1.4188 -0.1386
10749TIP3    H232184   6.885   2.024   6.725 -1.8462  0.6622 -0.3858
10750TIP3   OH232185   5.853   1.244   6.084  0.2025  0.4743  0.1758
10750TIP3    H132186   5.771   1.247   6.035  0.5299  0.9916 -0.3536
10750TIP3    H232187   5.839   1.177   6.150 -0.3024 -0.1281 -0.5325
10751TIP3   OH232188   0.687   7.294   0.931 -0.2609 -0.0561 -0.0237
10751TIP3    H132189   0.612   7.237   0.919  0.1743 -0.5863 -0.2129
10751TIP3    H232190   0.714   7.318   0.842  0.8734 -1.2802 -0.0306
10752TIP3   OH232191   2.456   7.643   0.494  0.1600  0.0290 -0.5796
10752TIP3    H132192   2.459   7.739   0.491 -1.6393  0.1002 -0.7626
10752TIP3    H232193   2.412   7.618   0.413 -1.1212 -0.8243  0.3448
10753TIP3   OH232194   7.259   3.365   6.032 -0.2965  0.5871  0.1900
10753TIP3    H132195   7.223   3.419   6.103 -1.4962 -0.2579  0.2388
10753TIP3    H232196   7.235   3.413   5.953  0.0731  0.9619  0.3000
10754TIP3   OH232197   3.165   0.195   0.737 -0.2171  0.2847 -0.1607
10754TIP3    H132198   3.116   0.268   0.776 -1.6415 -0.7305 -0.0311
10754TIP3    H232199   3.100   0.127   0.723  0.8718 -0.4905 -1.5100
10755TIP3   OH232200   6.043   5.061   6.630  0.3653 -0.2409  0.4501
10755TIP3    H132201   6.081   4.974   6.617 -0.4260 -0.7592  1.5840
10755TIP3    H232202   6.083   5.115   6.562  0.6400 -1.5609 -0.4442
10756TIP3   OH232203   8.426   6.895   0.571 -0.0059 -0.4584 -0.4603
10756TIP3    H132204   8.407   6.980   0.612 -0.9867  0.3829 -2.5798
10756TIP3    H232205   8.484   6.917   0.498 -0.7557 -1.5335 -1.3903
10757TIP3   OH232206   0.497   2.344   4.636  0.0185 -0.1613  0.3465
10757TIP3    H132207   0.458   2.388   4.561 -0.0306 -0.3026  0.2910
10757TIP3    H232208   0.470   2.253   4.628  0.5317 -0.3008  0.1940
10758TIP3   OH232209   5.710   4.329   6.430  0.1217  0.1261 -0.2257
10758TIP3    H132210   5.696   4.255   6.488  2.6162 -0.0408  0.2198
10758TIP3    H232211   5.622   4.364   6.414 -0.6656 -0.0492  3.3100
10759TIP3   OH232212   8.030   6.866   0.021 -0.1889  0.7709 -0.0195
10759TIP3    H132213   8.056   6.807   0.091 -0.2944  1.9211  0.9981
10759TIP3    H232214   7.997   6.808  -0.048 -1.4326 -0.3086  1.4324
10760TIP3   OH232215   6.508   3.575   5.433 -0.0361  0.0478  0.3055
10760TIP3    H132216   6.510   3.535   5.346 -0.1467  0.5622  0.0664
10760TIP3    H232217   6.504   3.500   5.493 -0.3569 -0.3009 -0.1437
10761TIP3   OH232218   8.399   7.150   1.649  0.5152  0.1737 -0.6947
10761TIP3    H132219   8.384   7.055   1.653 -0.9379  0.3514 -1.6754
10761TIP3    H232220   8.444   7.164   1.566 -0.2735  0.4479 -1.0904
10762TIP3   OH232221   6.061   0.848   4.024  1.0086  0.5793  0.0518
10762TIP3    H132222   6.142   0.820   4.069  0.5501 -1.2189 -0.2091
10762TIP3    H232223   6.001   0.775   4.035 -0.9394  2.2632  1.0273
10763TIP3   OH232224   4.034   7.059   0.978 -0.0709 -0.5761  0.2057
10763TIP3    H132225   4.079   7.030   0.898  0.3632 -0.2079  0.3164
10763TIP3    H232226   4.009   7.149   0.960  0.6607 -0.2623  0.7593
10764TIP3   OH232227   6.628   3.169   4.629 -0.4856 -0.3099 -0.2562
10764TIP3    H132228   6.692   3.147   4.561 -1.0347 -3.0601  0.0238
10764TIP3    H232229   6.679   3.176   4.709 -0.2207 -0.1404 -0.4389
10765TIP3   OH232230   1.008   5.956   1.711  0.2205 -0.2041 -0.5871
10765TIP3    H132231   0.951   5.882   1.732 -0.7798  0.5928 -0.5011
10765TIP3    H232232   0.959   6.007   1.646  1.9237 -0.9075 -2.4919
10766TIP3   OH232233   5.038   3.373   6.489 -0.0077 -0.0717  0.1080
10766TIP3    H132234   5.002   3.455   6.523 -0.8310 -1.0588  1.6443
10766TIP3    H232235   5.133   3.381   6.502  0.0205  1.0633 -0.7216
10767TIP3   OH232236   6.498   1.154   0.651  0.0191 -0.5464  0.0287
10767TIP3    H132237   6.592   1.171   0.653  0.2510 -1.6098 -1.5144
10767TIP3    H232238   6.473   1.151   0.744  1.0797  1.9175  0.4409
10768TIP3   OH232239   2.970   7.494   1.074 -0.2012  0.0984 -0.0216
10768TIP3    H132240   3.039   7.548   1.037 -0.1973  0.4568  0.5011
10768TIP3    H232241   2.968   7.416   1.018  1.7467 -0.6836  0.9594
10769TIP3   OH232242   2.619   6.868   1.658 -0.3865  0.6618  0.7257
10769TIP3    H132243   2.606   6.927   1.584  1.6857  0.5519  0.2406
10769TIP3    H232244   2.633   6.926   1.733  0.2335  0.7854  0.5151
10770TIP3   OH232245   2.402   6.421   0.076  0.2801 -0.1667  0.3765
10770TIP3    H132246   2.457   6.361   0.026  1.1439  0.3481  0.7107
10770TIP3    H232247   2.463   6.470   0.131 -0.5521  0.0852  1.0842
10771TIP3   OH232248   6.176   4.686   6.954  0.3032  0.0060 -0.1130
10771TIP3    H132249   6.098   4.685   6.898  1.4609 -0.7502 -1.7563
10771TIP3    H232250   6.203   4.777   6.957  0.7198 -0.0699 -1.4848
10772TIP3   OH232251   3.228   1.319   4.922 -0.2892 -0.3364  0.0260
10772TIP3    H132252   3.237   1.383   4.993  1.5144  0.2118 -0.6565
10772TIP3    H232253   3.139   1.284   4.932 -0.3557  0.3242  2.0391
10773TIP3   OH232254   6.331   0.749   0.122 -0.0853 -0.0960 -0.0487
10773TIP3    H132255   6.408   0.758   0.179 -1.2167  0.3846  1.4089
10773TIP3    H232256   6.345   0.665   0.078  0.5032 -0.7830  1.4074
10774TIP3   OH232257   7.139   1.728   5.566 -0.1306 -0.0137  0.3202
10774TIP3    H132258   7.170   1.787   5.497  1.4763 -0.5711  0.5453
10774TIP3    H232259   7.152   1.640   5.529 -0.1117 -0.2920  0.9915
10775TIP3   OH232260   5.679   1.332   6.923 -0.4760 -0.3566 -0.8031
10775TIP3    H132261   5.765   1.329   6.882 -0.2433  0.8279 -0.4262
10775TIP3    H232262   5.627   1.388   6.865  0.5612  3.4044  1.7404
10776TIP3   OH232263   1.388   7.609   0.507  0.2636  0.2922 -0.3495
10776TIP3    H132264   1.341   7.675   0.457 -2.8018 -1.0708  0.6185
10776TIP3    H232265   1.391   7.533   0.450  1.9158  0.5688 -0.6531
10777TIP3   OH232266   4.195   0.484   0.106  0.1545  0.2186 -0.4161
10777TIP3    H132267   4.287   0.499   0.083  0.3423  0.9748  0.7524
10777TIP3    H232268   4.197   0.410   0.167  0.2540  1.6465  1.3763
10778TIP3   OH232269   4.602   3.852   3.699  0.2981 -0.0489  0.2528
10778TIP3    H132270   4.522   3.901   3.678  0.7581  0.5249 -0.1745
10778TIP3    H232271   4.668   3.920   3.715  1.3061 -0.4999 -1.7522
10779TIP3   OH232272   4.851   3.615   2.434  0.1582  0.1741  0.6307
10779TIP3    H132273   4.848   3.648   2.524  0.8949 -0.4977  0.9111
10779TIP3    H232274   4.801   3.679   2.383  0.1348  0.8092  1.4405
10780TIP3   OH232275   3.620   2.463   5.600 -0.3201 -0.5991 -0.2266
10780TIP3    H132276   3.709   2.431   5.583 -0.4046 -0.1907 -1.5225
10780TIP3    H232277   3.564   2.408   5.546 -0.7172  0.0265 -0.4581
10781TIP3   OH232278   4.152   3.329   5.772  0.3748  0.1267  0.0542
10781TIP3    H132279   4.117   3.311   5.859 -1.1549 -0.3338 -0.6333
10781TIP3    H232280   4.222   3.265   5.760  0.8522  0.4424  1.0845
10782TIP3   OH232281   7.389   4.671   6.818  0.2822  0.1934  0.7158
10782TIP3    H132282   7.335   4.736   6.772  2.7072  1.3761 -0.6210
10782TIP3    H232283   7.423   4.718   6.894  1.3339  0.2323  0.2302
10783TIP3   OH232284   6.441   5.120   5.884 -0.1415 -0.0070  0.8978
10783TIP3    H132285   6.524   5.089   5.847  0.7504  3.1688  0.0690
10783TIP3    H232286   6.391   5.040   5.901  1.3721 -1.7962 -2.5975
10784TIP3   OH232287   6.029   7.192   4.132 -0.1516 -0.2528 -0.7016
10784TIP3    H132288   6.085   7.146   4.195 -0.1061 -2.0488 -2.0198
10784TIP3    H232289   5.941   7.161   4.150 -0.1389 -0.7767 -1.4952
10785TIP3   OH232290   7.884   4.344   4.486 -0.2483  0.0031 -0.1339
10785TIP3    H132291   7.956   4.316   4.431  0.3864  1.1560  0.1017
10785TIP3    H232292   7.806   4.304   4.446  0.3861 -0.3978 -0.9793
10786TIP3   OH232293   7.125   4.804   3.174  0.4018  0.5744  0.6494
10786TIP3    H132294   7.205   4.754   3.192  0.5934  0.6915  0.1527
10786TIP3    H232295   7.074   4.747   3.116  0.7161  1.0304 -0.0925
10787TIP3   OH232296   6.561   4.816   6.155  0.0763  0.3538 -0.3081
10787TIP3    H132297   6.525   4.731   6.180 -0.2636  0.1616 -1.4342
10787TIP3    H232298   6.605   4.847   6.234  1.0163 -1.2984 -0.1579
10788TIP3   OH232299   7.589   0.664   5.890  0.5392 -0.1726 -0.4088
10788TIP3    H132300   7.575   0.578   5.849 -1.7426  0.1617 -0.3819
10788TIP3    H232301   7.588   0.726   5.817 -0.4495  0.1106 -0.1523
10789TIP3   OH232302   0.101   3.681   5.709 -0.1663 -0.4034 -0.0899
10789TIP3    H132303   0.087   3.737   5.633  1.3580  1.7659  1.1799
10789TIP3    H232304   0.049   3.603   5.692  0.4320 -0.0967 -3.5086
10790TIP3   OH232305   8.381   3.163   4.180  0.1916  0.4084  0.0601
10790TIP3    H132306   8.314   3.098   4.159  2.6069 -2.2416  0.2647
10790TIP3    H232307   8.402   3.146   4.272  1.1585  1.1642 -0.0151
10791TIP3   OH232308   6.565   5.537   5.709 -0.2423  0.4846 -0.0647
10791TIP3    H132309   6.654   5.507   5.694 -0.8388 -0.6626 -1.3758
10791TIP3    H232310   6.516   5.509   5.632 -1.5649  1.8397  0.2514
10792TIP3   OH232311   2.901   0.162   1.697  0.1889 -0.8424  0.1023
10792TIP3    H132312   2.853   0.116   1.765 -1.0043  0.3244  0.0817
10792TIP3    H232313   2.936   0.240   1.740 -1.4119  0.4136 -0.8284
10793TIP3   OH232314   5.411   0.277   0.381  0.2479 -0.1917  0.0039
10793TIP3    H132315   5.412   0.193   0.426 -0.3727 -0.6580 -0.8278
10793TIP3    H232316   5.404   0.343   0.450 -0.0459 -0.8608  0.6072
10794TIP3   OH232317   7.333   4.205   6.733  0.6998 -0.5519  0.4257
10794TIP3    H132318   7.278   4.283   6.723  1.1873 -0.1406  0.9341
10794TIP3    H232319   7.339   4.168   6.645 -0.0226 -0.3461  0.2885
10795TIP3   OH232320   6.486   3.500   5.168  0.2830  0.6737  0.1853
10795TIP3    H132321   6.391   3.489   5.177 -0.2294  4.6983  0.6491
10795TIP3    H232322   6.503   3.493   5.074 -0.3058 -1.0673  0.1961
10796TIP3   OH232323   3.397   5.511   0.288  0.5341  0.5689  0.3129
10796TIP3    H132324   3.340   5.521   0.212  0.8022 -0.3016 -0.0097
10796TIP3    H232325   3.389   5.594   0.335  0.2201  1.0441 -0.5629
10797TIP3   OH232326   0.834   7.302   1.489  1.1367  0.3500  0.3990
10797TIP3    H132327   0.779   7.251   1.548  1.5694  0.5083  0.9462
10797TIP3    H232328   0.780   7.376   1.464  0.8174  0.0844  0.3043
10798TIP3   OH232329   6.620   5.178   6.118 -0.2323  0.7239 -1.0123
10798TIP3    H132330   6.559   5.186   6.045  0.5532 -0.0558 -1.7694
10798TIP3    H232331   6.566   5.184   6.196 -1.0724  1.6720 -1.6521
10799TIP3   OH232332   0.394   6.918   0.123  0.2864  0.4788 -0.0101
10799TIP3    H132333   0.423   6.999   0.164 -0.2627  0.9848 -0.6280
10799TIP3    H232334   0.410   6.851   0.190  1.1086  1.0279  0.3533
10800TIP3   OH232335   0.795   7.740   1.126 -0.3957 -0.1180 -0.5458
10800TIP3    H132336   0.817   7.649   1.106  0.6610 -0.2225  1.0071
10800TIP3    H232337   0.762   7.737   1.216 -0.8556  0.9666 -0.6714
10801TIP3   OH232338   0.454   1.960   6.114  0.0993  0.0060 -0.0897
10801TIP3    H132339   0.492   1.878   6.146  1.4814 -0.0284 -1.7674
10801TIP3    H232340   0.504   2.028   6.159  0.1089 -0.0630  0.0040
10802TIP3   OH232341   1.353   7.397   0.348 -0.6330 -0.1354 -0.7132
10802TIP3    H132342   1.314   7.324   0.398 -0.0589  0.4799  0.6602
10802TIP3    H232343   1.446   7.375   0.342  0.1167  1.9267  2.3627
10803TIP3   OH232344   5.516   3.121   5.634 -0.0847  0.0369 -0.5310
10803TIP3    H132345   5.455   3.131   5.707  0.6460  0.9073 -0.0410
10803TIP3    H232346   5.561   3.038   5.650  2.2981  1.6972  1.6701
10804TIP3   OH232347   7.019   2.420   6.160  0.3405  0.4114 -0.1492
10804TIP3    H132348   7.059   2.499   6.198 -0.3503  0.7043 -0.0135
10804TIP3    H232349   7.009   2.361   6.234 -2.0663  1.4223  0.3769
10805TIP3   OH232350   3.444   0.347   0.611  0.4166  0.7213 -0.6923
10805TIP3    H132351   3.493   0.306   0.539 -2.3712 -1.0861 -1.6662
10805TIP3    H232352   3.397   0.274   0.652 -0.3509  2.1805  1.0971
10806TIP3   OH232353   7.893   1.995   4.444  0.0947  0.1230  0.3558
10806TIP3    H132354   7.878   2.032   4.357  0.0389 -1.2202 -0.2183
10806TIP3    H232355   7.958   2.053   4.484  1.3321 -0.1561 -1.1851
10807TIP3   OH232356   5.669   3.344   5.631 -0.2979  0.7651  0.1711
10807TIP3    H132357   5.617   3.372   5.707  0.8252 -0.6979  1.5116
10807TIP3    H232358   5.635   3.257   5.610  1.6855 -0.2861  1.1877
10808TIP3   OH232359   0.091   7.135   5.957  0.1469 -0.0298  0.1739
10808TIP3    H132360   0.096   7.223   5.994  0.5372 -0.8969  2.2643
10808TIP3    H232361   0.165   7.131   5.897  1.2889  0.4392  1.5102
10809TIP3   OH232362   3.012   3.591   5.217  0.5609  0.5304  0.1304
10809TIP3    H132363   2.953   3.636   5.278 -0.3442  0.0442 -0.3704
10809TIP3    H232364   3.003   3.638   5.135 -0.0224 -0.2527 -0.2642
10810TIP3   OH232365   5.505   5.011   5.364  0.1005  0.5869  0.2505
10810TIP3    H132366   5.591   4.971   5.379 -1.1888 -1.5145  2.3352
10810TIP3    H232367   5.483   4.987   5.274  1.1595  0.0942  0.1142
10811TIP3   OH232368   7.749   4.749   6.285 -0.0263 -0.7614 -0.3347
10811TIP3    H132369   7.772   4.763   6.193  2.2609 -1.0364  0.1680
10811TIP3    H232370   7.832   4.726   6.327 -0.7715  0.8385  2.0915
10812TIP3   OH232371   8.439   7.602   0.282  0.0078 -0.3862  0.1092
10812TIP3    H132372   8.529   7.570   0.276  0.1203  0.0088 -0.3031
10812TIP3    H232373   8.435   7.648   0.366 -0.2472 -1.7685  0.8718
10813TIP3   OH232374   5.343   3.317   6.588  0.6083 -0.2268  0.1713
10813TIP3    H132375   5.323   3.331   6.680  1.4154 -0.9129  0.4567
10813TIP3    H232376   5.435   3.341   6.579  0.9943 -1.7550 -0.0974
10814TIP3   OH232377   5.796   3.164   6.674  0.1443  0.2612 -0.2581
10814TIP3    H132378   5.734   3.216   6.623  1.9525  0.7514 -1.9994
10814TIP3    H232379   5.791   3.200   6.763 -3.0408 -0.6053 -0.0131
10815TIP3   OH232380   5.809   3.600   4.453  0.4543  0.2342  0.4381
10815TIP3    H132381   5.769   3.675   4.409 -1.1858 -0.5944  0.4864
10815TIP3    H232382   5.828   3.631   4.541  2.7064  1.5517 -0.4608
10816TIP3   OH232383   7.032   6.977  -0.000  1.0441 -0.5156  0.5506
10816TIP3    H132384   6.956   7.023   0.035 -0.1915 -1.5451 -0.7204
10816TIP3    H232385   7.022   6.887   0.030  2.6513 -0.3163  1.7493
10817TIP3   OH232386   5.744   3.114   6.346  0.1433 -0.0056  0.1290
10817TIP3    H132387   5.812   3.180   6.350 -0.2067  0.2716  1.4960
10817TIP3    H232388   5.662   3.163   6.353 -0.1419 -0.5242  0.4401
10818TIP3   OH232389   5.845   1.249  -0.005  0.1231  0.3508  0.1817
10818TIP3    H132390   5.879   1.254   0.084  0.1068 -0.7163  0.2512
10818TIP3    H232391   5.894   1.316  -0.053  1.7056 -0.5480  0.4894
10819TIP3   OH232392   6.200   2.713   5.978  0.1822  0.3960 -0.0434
10819TIP3    H132393   6.178   2.764   5.899  0.2511 -0.2878 -0.5073
10819TIP3    H232394   6.291   2.689   5.966  0.1114  0.0523  0.1206
10820TIP3   OH232395   4.088   1.026   4.933  0.0129 -0.5034  0.2942
10820TIP3    H132396   4.025   0.984   4.875  0.7361  0.7133 -1.4174
10820TIP3    H232397   4.105   0.961   5.002 -1.1712 -1.7978 -0.6127
10821TIP3   OH232398   4.795   5.521   5.697 -0.1069 -0.3298 -0.0199
10821TIP3    H132399   4.771   5.606   5.661  0.5079 -0.5078 -0.8500
10821TIP3    H232400   4.889   5.527   5.713  0.2690 -1.4256 -1.6777
10822TIP3   OH232401   0.080   3.826   5.450 -1.0337  0.0069  0.5220
10822TIP3    H132402   0.127   3.903   5.416  1.3983 -1.3745  0.6553
10822TIP3    H232403   0.041   3.786   5.373 -1.3217  0.7071  0.2938
10823TIP3   OH232404   1.059   6.736   0.399 -0.5706 -0.2458 -0.0742
10823TIP3    H132405   1.054   6.642   0.417 -2.2852 -0.9291 -3.5501
10823TIP3    H232406   1.151   6.758   0.415 -0.1663 -2.4910  0.9161
10824TIP3   OH232407   6.847   2.709   2.949  0.4170  0.6317 -0.1947
10824TIP3    H132408   6.904   2.651   2.998 -0.0221  0.0330 -0.3900
10824TIP3    H232409   6.873   2.697   2.857  0.4582  0.8855 -0.2163
10825TIP3   OH232410   5.331   2.292   3.522 -0.1325 -0.8615  0.0017
10825TIP3    H132411   5.317   2.245   3.604 -1.3344  2.4745  1.8394
10825TIP3    H232412   5.416   2.335   3.532 -0.9849  0.8259  0.1974
10826TIP3   OH232413   5.641   2.046   6.568 -0.3053 -0.2992 -0.5904
10826TIP3    H132414   5.560   2.097   6.558  0.5833  1.2308 -0.1472
10826TIP3    H232415   5.642   2.020   6.660 -0.4330 -0.5780 -0.6662
10827TIP3   OH232416   0.455   6.447   0.863 -0.2805  0.1937  0.5433
10827TIP3    H132417   0.459   6.464   0.957  2.3754  0.3821  0.4330
10827TIP3    H232418   0.482   6.356   0.854 -0.7354  0.1130 -0.0360
10828TIP3   OH232419   2.900   6.805   0.122  0.6198  0.7053 -0.9857
10828TIP3    H132420   2.987   6.777   0.093  0.6688 -0.6408  0.4248
10828TIP3    H232421   2.915   6.846   0.207  0.0625  1.9072 -1.4509
10829TIP3   OH232422   1.343   4.616   6.793  0.0104 -0.7241  0.2423
10829TIP3    H132423   1.423   4.572   6.823  1.1801  0.0174 -1.7075
10829TIP3    H232424   1.273   4.554   6.815  1.5140 -3.1050 -1.4305
10830TIP3   OH232425   4.143   1.293   4.719 -0.0715  0.2136  0.0518
10830TIP3    H132426   4.090   1.235   4.774  0.2711  0.7963  1.0148
10830TIP3    H232427   4.083   1.322   4.650 -1.3157  1.6549  1.6939
10831TIP3   OH232428   3.658   2.662   6.750  0.2103  0.4250 -0.0058
10831TIP3    H132429   3.753   2.676   6.745  0.2647 -0.1178 -0.5491
10831TIP3    H232430   3.647   2.570   6.726 -0.4060  0.3371  0.6174
10832TIP3   OH232431   6.467   1.356   4.980  0.2873  0.0644 -0.2791
10832TIP3    H132432   6.451   1.331   5.071 -1.2265 -2.2382 -1.1478
10832TIP3    H232433   6.519   1.284   4.945 -0.7312  0.0343 -1.7492
10833TIP3   OH232434   6.293   3.907   6.472 -0.1828  0.2425  0.2119
10833TIP3    H132435   6.347   3.847   6.524  0.3347  1.5038  1.1847
10833TIP3    H232436   6.206   3.868   6.473  0.3108 -0.8810  0.1718
10834TIP3   OH232437   6.211   3.507   6.780  0.0158  0.4695 -0.2708
10834TIP3    H132438   6.231   3.414   6.777 -2.7039 -0.1702  0.1917
10834TIP3    H232439   6.241   3.536   6.866  1.5858  0.2280 -0.7158
10835TIP3   OH232440   7.953   6.748   0.451  0.3666  0.3443 -0.3102
10835TIP3    H132441   8.013   6.822   0.451  1.7456 -0.7401 -1.4332
10835TIP3    H232442   7.866   6.787   0.445  1.0122  1.8973  0.3409
10836TIP3   OH232443   3.408   7.575   5.449  0.5181  0.2041 -0.7737
10836TIP3    H132444   3.372   7.521   5.378 -0.8176  1.8127 -1.3701
10836TIP3    H232445   3.338   7.579   5.514  1.1252  0.0836 -0.1123
10837TIP3   OH232446   5.165   3.721   5.332 -0.0188  0.5009  0.1803
10837TIP3    H132447   5.193   3.732   5.423 -1.5162 -0.4447  0.7600
10837TIP3    H232448   5.232   3.664   5.294  0.8884  1.3021  0.5346
10838TIP3   OH232449   2.762   7.109   0.075  0.1547 -0.0530 -0.1593
10838TIP3    H132450   2.695   7.069   0.130  0.1700 -1.0116 -0.8217
10838TIP3    H232451   2.784   7.191   0.119  0.1463 -0.7939  1.2452
10839TIP3   OH232452   7.577   2.892   6.243  0.1373 -0.3909 -0.1559
10839TIP3    H132453   7.647   2.955   6.256  0.7777 -1.5946  2.4606
10839TIP3    H232454   7.576   2.877   6.148  3.8677 -0.8819 -0.1738
10840TIP3   OH232455   0.110   7.975   0.072  0.1123  0.3074 -0.1524
10840TIP3    H132456   0.030   8.020   0.099 -0.2641 -0.2288 -0.3732
10840TIP3    H232457   0.080   7.890   0.038  0.5271  1.0854 -2.5620
10841TIP3   OH232458   0.425   5.158   5.770  0.4099 -0.1584 -0.8433
10841TIP3    H132459   0.400   5.070   5.741 -1.2978  0.1756 -0.4353
10841TIP3    H232460   0.462   5.145   5.857  0.9305 -0.5608 -1.1175
10842TIP3   OH232461   1.430   7.763   1.201  0.0940  0.2293  0.1507
10842TIP3    H132462   1.514   7.805   1.182 -0.4650  1.6717  0.7678
10842TIP3    H232463   1.453   7.675   1.231  1.3345  0.3224 -0.5322
10843TIP3   OH232464   8.335   6.073   4.563  0.0514  0.7719 -0.0905
10843TIP3    H132465   8.303   5.989   4.597  2.2680  1.5266  4.1129
10843TIP3    H232466   8.430   6.064   4.563  0.2377  2.5238 -1.8353
10844TIP3   OH232467   4.561   5.039   4.975 -0.7633 -0.4415 -0.1544
10844TIP3    H132468   4.574   4.951   5.010 -0.6799 -0.6673 -0.7445
10844TIP3    H232469   4.494   5.029   4.908 -1.7536  0.1898  0.7203
10845TIP3   OH232470   2.732   4.214   6.668 -0.0850 -0.6430  0.0763
10845TIP3    H132471   2.817   4.181   6.699  0.0381 -1.2550 -0.8758
10845TIP3    H232472   2.733   4.196   6.574 -0.0268  2.1007 -0.4862
10846TIP3   OH232473   8.380   4.812   2.650  0.3254  0.2453 -0.5387
10846TIP3    H132474   8.413   4.782   2.734  3.6399  1.0259 -1.4816
10846TIP3    H232475   8.356   4.904   2.664 -2.0763 -0.4799  0.2905
10847TIP3   OH232476   1.112   7.339   1.758  0.2214 -0.1542  0.0324
10847TIP3    H132477   1.133   7.287   1.680 -0.5216  2.7656 -2.1994
10847TIP3    H232478   1.187   7.396   1.770 -1.0255  1.6508 -0.5132
10848TIP3   OH232479   4.419   8.006   0.499  0.2434 -0.0049  0.4327
10848TIP3    H132480   4.490   7.941   0.501  0.6344  0.3810 -0.5944
10848TIP3    H232481   4.391   8.013   0.590  1.0830 -0.6509  0.7488
10849TIP3   OH232482   8.223   4.519   6.534 -0.6015 -0.3826  0.0607
10849TIP3    H132483   8.286   4.583   6.566  0.1413 -1.4157  0.6891
10849TIP3    H232484   8.192   4.475   6.613 -0.3192 -1.5267 -0.4677
10850TIP3   OH232485   4.580   4.467   4.404 -0.3569 -0.0738  0.4263
10850TIP3    H132486   4.486   4.453   4.412 -0.4747 -0.2388 -1.0207
10850TIP3    H232487   4.619   4.382   4.426 -0.6351 -0.4136 -0.3686
10851TIP3   OH232488   8.330   3.349   5.905  0.8552  0.4338  0.1645
10851TIP3    H132489   8.314   3.419   5.967  0.8807  1.7468 -1.2806
10851TIP3    H232490   8.350   3.394   5.823  1.6100 -1.2541 -0.6033
10852TIP3   OH232491   4.425   0.138   0.410 -0.2441  0.0978  0.1970
10852TIP3    H132492   4.355   0.073   0.419  0.4290 -0.4882  1.2462
10852TIP3    H232493   4.505   0.091   0.435  0.6525  0.5275 -1.7921
10853TIP3   OH232494   6.882   4.232   4.271  0.1325  0.5865  0.7003
10853TIP3    H132495   6.967   4.244   4.313  0.2958  0.8589  0.2924
10853TIP3    H232496   6.903   4.204   4.182 -0.2177 -1.6051  1.2760
10854TIP3   OH232497   8.054   4.157   5.133 -0.2465 -0.1904 -0.1857
10854TIP3    H132498   8.064   4.213   5.210  0.3074  1.3706 -1.3621
10854TIP3    H232499   7.980   4.100   5.154 -1.8369  2.0362  0.4161
10855TIP3   OH232500   0.750   2.747   4.390  0.0647  0.6159  0.4425
10855TIP3    H132501   0.800   2.748   4.472 -2.1251 -0.5967  1.8338
10855TIP3    H232502   0.660   2.729   4.416 -0.4268 -1.4476 -2.3442
10856TIP3   OH232503   8.407   6.902   5.067 -0.6437  0.2280  0.0825
10856TIP3    H132504   8.491   6.862   5.089 -0.5428  1.3879  1.9348
10856TIP3    H232505   8.347   6.828   5.061  0.4127 -0.5776 -0.8823
10857TIP3   OH232506   8.409   7.520   5.556  0.5442  0.5728 -0.2842
10857TIP3    H132507   8.403   7.430   5.587 -0.3399  0.1887 -1.5189
10857TIP3    H232508   8.317   7.548   5.547  0.8113  1.6812  0.3229
10858TIP3   OH232509   0.940   4.004   6.170 -0.2667  0.4439  0.0925
10858TIP3    H132510   0.914   4.076   6.227  1.0007  0.6031  0.4718
10858TIP3    H232511   0.978   3.939   6.229 -0.9968 -0.3503 -0.3006
10859TIP3   OH232512   7.248   3.354   2.821 -0.6289 -0.3921 -0.5830
10859TIP3    H132513   7.188   3.382   2.890 -0.7799  0.5880 -1.1042
10859TIP3    H232514   7.263   3.433   2.769  0.8162 -0.7239 -0.6777
10860TIP3   OH232515   0.855   5.426   6.241 -0.7753  0.0325  0.3382
10860TIP3    H132516   0.873   5.474   6.322 -2.3370  0.6379  0.3461
10860TIP3    H232517   0.782   5.473   6.201  0.0388 -0.2052 -1.4782
10861TIP3   OH232518   8.020   3.821   6.522  0.2061  0.3333  0.0564
10861TIP3    H132519   8.013   3.845   6.429  0.3059 -0.0634 -0.0547
10861TIP3    H232520   8.091   3.757   6.524 -1.0102 -1.0186  0.1585
10862TIP3   OH232521   7.371   2.320   6.612 -0.0667  0.7081 -0.2928
10862TIP3    H132522   7.425   2.249   6.576 -2.7620 -1.4583 -0.1801
10862TIP3    H232523   7.379   2.310   6.707  1.2282  1.9162 -0.2508
10863TIP3   OH232524   6.283   5.627   6.187 -0.4665 -0.2228  0.4093
10863TIP3    H132525   6.285   5.721   6.204 -1.4379  0.0868 -1.1096
10863TIP3    H232526   6.310   5.618   6.096 -0.7000 -1.3869  0.4442
10864TIP3   OH232527   0.133   5.414   3.792 -0.3129  0.4944  0.0183
10864TIP3    H132528   0.137   5.344   3.857  0.5481  0.9956  0.5176
10864TIP3    H232529   0.138   5.495   3.843  1.7949  0.8795 -0.7536
10865TIP3   OH232530   7.243   4.005   3.246 -0.2606  0.0878 -0.7756
10865TIP3    H132531   7.309   3.994   3.315  0.2130  1.1886 -1.0384
10865TIP3    H232532   7.293   4.039   3.172 -0.9232 -0.2442 -1.3716
10866TIP3   OH232533   7.055   3.838   4.701 -0.4483  0.0051  0.0644
10866TIP3    H132534   7.080   3.844   4.609 -0.9368 -1.4277 -0.1786
10866TIP3    H232535   6.969   3.878   4.705 -0.0176  0.9296  0.0729
10867TIP3   OH232536   8.427   3.277   3.670 -0.3246  0.0667  0.1818
10867TIP3    H132537   8.370   3.272   3.594  0.1305 -0.1390 -0.1479
10867TIP3    H232538   8.511   3.307   3.636  0.1630 -0.9629  0.4424
10868TIP3   OH232539   6.618   1.756   1.417 -0.0556  0.3375 -0.1273
10868TIP3    H132540   6.626   1.754   1.513 -0.4847 -2.0174 -0.1118
10868TIP3    H232541   6.707   1.742   1.386 -0.3230 -1.7939 -0.0286
10869TIP3   OH232542   6.367   7.832   6.465 -0.5470 -0.1427 -0.3351
10869TIP3    H132543   6.369   7.769   6.537 -0.5076  0.4464  0.1919
10869TIP3    H232544   6.459   7.848   6.444 -0.4385  1.7721  1.3724
10870TIP3   OH232545   6.504   4.502   5.895 -0.6695  0.6696  0.5041
10870TIP3    H132546   6.416   4.539   5.891 -0.9259 -0.0066 -0.4177
10870TIP3    H232547   6.557   4.558   5.839 -0.7716  0.3934  0.1324
10871TIP3   OH232548   0.972   2.951   4.200 -0.0895 -0.1862 -0.1077
10871TIP3    H132549   0.960   2.857   4.190 -0.6283 -0.0550 -0.7151
10871TIP3    H232550   0.891   2.982   4.239 -0.2480  0.1434 -0.6870
10872TIP3   OH232551   7.407   2.900   4.705 -0.1239  0.2430 -0.1781
10872TIP3    H132552   7.318   2.892   4.737  0.5777 -0.0972  1.7766
10872TIP3    H232553   7.444   2.972   4.756  0.6044  0.6421 -1.2509
10873TIP3   OH232554   7.510   3.416   5.277 -0.8392  0.4832  0.3496
10873TIP3    H132555   7.450   3.454   5.342 -2.0189 -0.2269 -0.3001
10873TIP3    H232556   7.456   3.353   5.229  0.5550 -0.4812  0.0247
10874TIP3   OH232557   0.177   2.440   5.663 -0.6449  0.2951 -0.2323
10874TIP3    H132558   0.211   2.361   5.704  2.7395  1.3076 -0.9716
10874TIP3    H232559   0.103   2.410   5.610  0.5808 -2.3786 -0.4795
10875TIP3   OH232560   7.628   3.298   4.214 -0.5286 -0.0091  0.3636
10875TIP3    H132561   7.614   3.353   4.137 -0.5223 -0.3183  0.1445
10875TIP3    H232562   7.677   3.223   4.182 -0.0047  0.1536  0.7847
10876TIP3   OH232563   7.531   3.925   5.341  0.3679  0.0498  0.1394
10876TIP3    H132564   7.583   3.933   5.260 -0.0008 -2.4049 -0.3694
10876TIP3    H232565   7.453   3.978   5.325  0.6968  0.2660 -0.7723
10877TIP3   OH232566   6.898   4.078   6.792  0.0599 -0.5947  0.0118
10877TIP3    H132567   6.871   4.013   6.726 -2.1028 -0.0199  0.3173
10877TIP3    H232568   6.948   4.027   6.856  2.4471 -1.1263 -2.1499
10878TIP3   OH232569   0.008   0.443   5.322  0.7008 -0.1576  0.1394
10878TIP3    H132570   0.078   0.433   5.386 -1.2185 -0.5839  2.2428
10878TIP3    H232571  -0.004   0.355   5.286  0.4343 -0.3569  0.6965
10879TIP3   OH232572   6.385   3.670   6.599 -0.4772  0.2762  0.2306
10879TIP3    H132573   6.447   3.702   6.664 -1.2799  3.3521 -0.4311
10879TIP3    H232574   6.323   3.616   6.649 -0.6648  2.0053  1.9357
10880TIP3   OH232575   5.321   0.346   0.105  0.3421 -0.6580  0.1713
10880TIP3    H132576   5.353   0.327   0.193  1.1427 -1.1770 -0.2189
10880TIP3    H232577   5.382   0.300   0.047  0.7544  0.9568 -0.7058
10881TIP3   OH232578   1.233   7.939   0.873 -0.5409 -0.0609  0.4585
10881TIP3    H132579   1.166   7.902   0.816  0.9623 -1.6263 -0.3712
10881TIP3    H232580   1.275   8.007   0.821 -0.6830  0.0787  0.5287
10882TIP3   OH232581   0.380   5.474   6.869  0.2317  0.0216 -0.1996
10882TIP3    H132582   0.455   5.522   6.834 -0.0750 -0.4235 -1.4748
10882TIP3    H232583   0.401   5.461   6.961  1.5039  0.3167 -0.4413
10883TIP3   OH232584   0.862   4.052   4.674 -0.0661  0.3237  0.2958
10883TIP3    H132585   0.770   4.054   4.647 -0.0345  1.2937  0.2389
10883TIP3    H232586   0.910   4.044   4.591 -0.0412  1.5227  0.1792
10884TIP3   OH232587   0.085   2.606   5.855 -0.2991 -0.4506  0.4470
10884TIP3    H132588   0.055   2.687   5.815  0.7820  0.1414  0.8188
10884TIP3    H232589   0.128   2.559   5.784 -0.1868 -0.3254  0.4328
10885TIP3   OH232590   6.840   4.100   3.837 -0.3309  0.2118  0.4799
10885TIP3    H132591   6.792   4.042   3.896 -0.3581 -0.7832 -0.4851
10885TIP3    H232592   6.873   4.041   3.769  0.8056  1.1421  0.2168
10886TIP3   OH232593   7.308   3.191   5.591  0.2292 -0.9760  0.4384
10886TIP3    H132594   7.238   3.256   5.588  0.4468 -0.6905  1.4226
10886TIP3    H232595   7.386   3.238   5.562  0.4823 -0.6552  1.5982
10887TIP3   OH232596   1.196   5.423   6.855 -0.4298 -0.8472  0.4503
10887TIP3    H132597   1.256   5.420   6.929  1.7259 -0.6430 -1.2337
10887TIP3    H232598   1.177   5.331   6.837  0.8844 -1.0114 -0.1675
10888TIP3   OH232599   7.213   0.520   0.058 -0.5505 -0.1427  0.2453
10888TIP3    H132600   7.139   0.463   0.077 -0.0370 -0.4354  1.4084
10888TIP3    H232601   7.284   0.460   0.035 -0.9528  0.1785 -1.9140
10889TIP3   OH232602   5.102   0.067   0.933 -0.1324 -0.7608  0.0939
10889TIP3    H132603   5.010   0.062   0.961  0.8004  1.3408  3.8923
10889TIP3    H232604   5.128  -0.024   0.919 -2.3044 -1.4965  0.5838
10890TIP3   OH232605   8.457   3.065   4.972 -0.6209  0.0330  0.6270
10890TIP3    H132606   8.437   2.997   5.037  0.9846 -0.4066  0.6968
10890TIP3    H232607   8.535   3.108   5.007 -0.6911  0.8540 -0.2232
10891TIP3   OH232608   7.774   4.458   5.396 -0.0307  0.0657 -0.1016
10891TIP3    H132609   7.815   4.426   5.477 -0.3194  0.0547  0.0426
10891TIP3    H232610   7.740   4.544   5.419 -0.8823 -0.2996  0.0437
10892TIP3   OH232611   8.416   3.170   6.435  0.2608  0.1386 -0.0325
10892TIP3    H132612   8.418   3.129   6.522  0.2523 -1.1975 -0.6392
10892TIP3    H232613   8.506   3.198   6.420  0.1327  0.9462  0.6619
10893TIP3   OH232614   8.255   4.005   5.383  0.0383 -0.2280 -0.4231
10893TIP3    H132615   8.268   3.932   5.442  0.3189  1.0389  1.1065
10893TIP3    H232616   8.280   3.971   5.297  1.1600 -1.6115  0.4272
10894TIP3   OH232617   7.253   4.439   5.114 -0.8270 -0.2269  0.4875
10894TIP3    H132618   7.290   4.460   5.200 -0.5199 -0.5041  0.4217
10894TIP3    H232619   7.292   4.504   5.055 -0.8506 -0.1905  0.5117
10895TIP3   OH232620   6.020   5.212   5.593  0.6238 -0.1983  0.3401
10895TIP3    H132621   6.103   5.244   5.629 -0.0811  0.5386  1.3293
10895TIP3    H232622   5.968   5.291   5.579  0.0350 -0.6692 -0.1431
10896TIP3   OH232623   1.034   3.665   3.559 -0.0709 -0.1483  0.3704
10896TIP3    H132624   0.984   3.584   3.547  1.3607 -1.2080  1.3574
10896TIP3    H232625   0.970   3.727   3.593 -0.9522 -1.2140  0.7226
10897TIP3   OH232626   7.036   2.974   5.902  0.1475  0.0076 -0.1477
10897TIP3    H132627   7.099   2.975   5.830  1.1122 -2.5011  0.6312
10897TIP3    H232628   7.089   2.969   5.981 -0.9083  2.4440  0.7743
10898TIP3   OH232629   0.318   6.603   4.023 -0.6133  0.6627  0.1538
10898TIP3    H132630   0.366   6.643   3.951 -1.7282  1.8843  0.0854
10898TIP3    H232631   0.335   6.509   4.013  1.1746  1.0239 -0.2796
10899TIP3   OH232632   7.451   3.943   4.520  0.7019 -0.9496 -0.2243
10899TIP3    H132633   7.383   3.992   4.474  0.9576  1.2117  1.6203
10899TIP3    H232634   7.417   3.853   4.524 -0.7002 -0.5180 -1.8978
10900TIP3   OH232635   7.314   1.787   4.755 -0.4332 -0.1935 -0.0127
10900TIP3    H132636   7.222   1.773   4.734 -0.5755  0.0773  0.4333
10900TIP3    H232637   7.323   1.881   4.768 -0.0234 -0.1770 -0.3839
10901TIP3   OH232638   2.637   0.099   0.433 -0.1235  1.0909  0.2916
10901TIP3    H132639   2.726   0.135   0.423  0.3365 -0.1524 -0.2225
10901TIP3    H232640   2.628   0.084   0.527  0.6098  0.2793  0.2455
10902TIP3   OH232641   6.849   2.753   4.303 -0.0604 -0.3253  0.2085
10902TIP3    H132642   6.790   2.825   4.284 -0.9101 -1.3653 -1.0988
10902TIP3    H232643   6.803   2.701   4.368  0.2092 -0.1634  0.5366
10903TIP3   OH232644   7.661   3.017   6.843 -0.2198  0.1740  0.1187
10903TIP3    H132645   7.677   3.024   6.937 -0.7214  2.1401  0.0931
10903TIP3    H232646   7.568   3.038   6.834 -0.4164 -1.0061 -0.7266
10904TIP3   OH232647   6.380   3.723   6.145 -0.2939  0.3951 -0.3009
10904TIP3    H132648   6.443   3.663   6.185  1.0340  0.2232 -2.5953
10904TIP3    H232649   6.428   3.805   6.134 -1.7204  1.5232  1.6568
10905TIP3   OH232650   0.489   7.170   0.553 -0.1475 -0.0371  0.0796
10905TIP3    H132651   0.409   7.117   0.552 -0.4665  0.3064  3.1133
10905TIP3    H232652   0.479   7.230   0.478 -2.1850 -0.7715 -0.2726
10906TIP3   OH232653   8.380   3.395   4.009  0.2762  0.3702  0.3265
10906TIP3    H132654   8.370   3.335   4.083 -0.6691  0.4099  0.2325
10906TIP3    H232655   8.410   3.477   4.049  2.8062 -0.5161  0.3164
10907TIP3   OH232656   2.382   7.135   0.095  0.0095 -0.1351  0.3118
10907TIP3    H132657   2.302   7.184   0.077  0.0983  0.3757  1.2502
10907TIP3    H232658   2.422   7.121   0.009  0.2217  1.8819  0.0535
10908TIP3   OH232659   2.236   7.563   0.337  0.0323 -0.2136 -0.1128
10908TIP3    H132660   2.180   7.487   0.352 -0.5558  0.4029  0.8719
10908TIP3    H232661   2.225   7.582   0.244  0.0541 -1.2250 -0.3342
10909TIP3   OH232662   7.595   3.946   5.622  0.1656  0.1307  0.2665
10909TIP3    H132663   7.613   4.039   5.637  0.5529  0.3136 -1.2688
10909TIP3    H232664   7.564   3.942   5.531 -0.5637 -1.1412  0.5661
10910TIP3   OH232665   7.404   4.547   5.306 -0.1889  0.3291  0.2744
10910TIP3    H132666   7.379   4.623   5.358  0.0780  0.7025 -0.1400
10910TIP3    H232667   7.469   4.581   5.244 -1.4607  0.1716 -1.1713
10911TIP3   OH232668   2.631   2.868   2.873  0.2812 -0.0489  0.2037
10911TIP3    H132669   2.701   2.803   2.872  0.2813 -0.0756  1.4781
10911TIP3    H232670   2.668   2.942   2.921  0.1291  0.7351 -0.8646
10912TIP3   OH232671   7.135   4.275   6.055  0.2670  0.4529  0.4474
10912TIP3    H132672   7.060   4.267   5.996  1.3253 -2.6746 -0.5977
10912TIP3    H232673   7.105   4.236   6.137  0.0501  1.2477  0.7505
10913TIP3   OH232674   6.762   0.158   6.131 -0.3541 -0.4789  0.1429
10913TIP3    H132675   6.746   0.243   6.171  0.7228  0.5901 -1.6356
10913TIP3    H232676   6.842   0.169   6.080 -1.5039 -1.8396 -2.0617
10914TIP3   OH232677   1.751   7.389   0.046 -0.4255 -0.1226 -0.0723
10914TIP3    H132678   1.773   7.477   0.014 -1.4745  0.5587  1.0347
10914TIP3    H232679   1.657   7.380   0.026 -0.6119 -0.4897  0.9488
10915TIP3   OH232680   8.475   1.898   5.460  0.3630 -0.2081 -0.2662
10915TIP3    H132681   8.493   1.839   5.386  1.6954 -2.0307  1.4257
10915TIP3    H232682   8.381   1.893   5.473  0.3178 -1.1086 -0.8771
10916TIP3   OH232683   7.855   5.651   5.543 -0.1729 -0.0696  0.6114
10916TIP3    H132684   7.924   5.667   5.478 -1.0674  0.1075 -0.3033
10916TIP3    H232685   7.892   5.684   5.625  0.5137  0.8157 -0.0331
10917TIP3   OH232686   8.188   4.581   5.177  0.1092 -0.4121 -0.6513
10917TIP3    H132687   8.263   4.613   5.127 -0.2455 -0.1807 -1.0376
10917TIP3    H232688   8.113   4.631   5.143 -0.3595 -1.2531 -0.8679
10918TIP3   OH232689   0.038   4.834   6.372  0.4593 -0.5116  0.0407
10918TIP3    H132690   0.044   4.780   6.293  1.0267  0.5856 -0.6946
10918TIP3    H232691  -0.055   4.835   6.394  0.0469  0.5267 -1.6154
10919TIP3   OH232692   6.372   3.000   3.426  0.0137  0.5028 -0.1665
10919TIP3    H132693   6.363   3.031   3.336 -0.4246  0.3515 -0.1780
10919TIP3    H232694   6.317   3.059   3.477 -1.3543 -0.6296 -0.2757
10920TIP3   OH232695   7.970   3.907   6.267 -0.4149 -0.5295 -0.2581
10920TIP3    H132696   8.048   3.952   6.234 -1.0190  1.6561  1.1948
10920TIP3    H232697   7.958   3.833   6.207  0.0996  1.7330 -3.2536
10921TIP3   OH232698   5.380   5.636   6.442 -0.2630 -0.3758  0.2505
10921TIP3    H132699   5.376   5.544   6.467  2.0838 -0.6522 -0.3139
10921TIP3    H232700   5.471   5.662   6.457  0.0560  0.7990 -3.1628
10922TIP3   OH232701   1.267   7.425   0.093  0.0725  0.7192  0.1567
10922TIP3    H132702   1.284   7.418   0.187  0.5000  1.5733  0.1440
10922TIP3    H232703   1.216   7.505   0.083  0.6661  1.0283 -0.4283
10923TIP3   OH232704   0.698   6.516   4.034 -0.0660  0.1587 -0.2567
10923TIP3    H132705   0.615   6.559   4.015  0.8685  1.0965 -2.5015
10923TIP3    H232706   0.698   6.437   3.980 -0.1598 -0.6807  0.9511
10924TIP3   OH232707   7.876   2.116   6.388 -0.0375  0.3126 -0.6997
10924TIP3    H132708   7.783   2.134   6.376 -0.1704 -0.3238 -0.6649
10924TIP3    H232709   7.920   2.195   6.357 -0.5114 -0.0199 -2.2817
10925TIP3   OH232710   1.560   2.676   6.656  0.1456 -0.4797  0.2235
10925TIP3    H132711   1.580   2.756   6.705 -1.3530  0.3190 -0.4382
10925TIP3    H232712   1.643   2.652   6.613  0.7633  0.3340  0.9496
10926TIP3   OH232713   6.819   2.552   5.229 -0.4842  0.1933  0.1349
10926TIP3    H132714   6.869   2.478   5.196 -0.0774  1.1038 -1.3448
10926TIP3    H232715   6.732   2.517   5.246  0.3622 -1.1707  1.7867
10927TIP3   OH232716   6.402   3.925   4.071 -0.0554  0.0559  0.2022
10927TIP3    H132717   6.339   3.861   4.104 -0.5455  2.0819  3.5097
10927TIP3    H232718   6.348   3.992   4.028  0.0029  0.6835  1.0900
10928TIP3   OH232719   3.156   6.533   0.018  0.1497 -0.3717 -0.1766
10928TIP3    H132720   3.230   6.490   0.060  0.0027 -0.5625 -0.1125
10928TIP3    H232721   3.172   6.626   0.031  1.1671 -0.3482 -1.4766
10929TIP3   OH232722   1.079   2.424   6.615 -0.5290 -0.1188 -0.2267
10929TIP3    H132723   1.111   2.370   6.543 -0.2315 -1.2609  0.7581
10929TIP3    H232724   1.156   2.472   6.645 -0.3470 -0.7132  0.2610
10930TIP3   OH232725   1.002   2.891   6.088  0.5598  0.1163  0.3554
10930TIP3    H132726   0.921   2.938   6.109  0.2606 -0.4068  0.3874
10930TIP3    H232727   1.048   2.885   6.171 -0.6563 -2.0141  0.9065
10931TIP3   OH232728   2.411   5.789   2.971 -0.9383  0.3859 -0.3710
10931TIP3    H132729   2.462   5.812   3.049  1.5118 -0.0301 -1.7891
10931TIP3    H232730   2.342   5.856   2.967 -1.3461  0.2047  2.3261
10932TIP3   OH232731   1.829   6.201   6.568 -0.1241  0.2958 -0.0656
10932TIP3    H132732   1.912   6.181   6.524 -0.7233 -1.8248 -0.2621
10932TIP3    H232733   1.774   6.240   6.500  0.3646  0.8065 -0.1699
10933TIP3   OH232734   0.288   6.590   0.696  0.0702  0.1575 -0.0908
10933TIP3    H132735   0.355   6.555   0.755  0.4343 -0.4190 -0.8292
10933TIP3    H232736   0.338   6.638   0.630 -0.3263  0.7037  0.0084
10934TIP3   OH232737   8.358   5.226   4.614  0.1970  0.4097 -0.1675
10934TIP3    H132738   8.296   5.281   4.566 -0.5320 -1.4980 -1.4602
10934TIP3    H232739   8.352   5.140   4.572  1.6899 -0.5367  1.4780
10935TIP3   OH232740   6.601   7.409   2.004 -0.0216  0.5036  0.0033
10935TIP3    H132741   6.523   7.415   1.950 -0.5396  0.9164  0.7975
10935TIP3    H232742   6.663   7.360   1.951 -0.7792  0.2788 -0.6756
10936TIP3   OH232743   1.064   3.485   6.175 -0.6904  0.1064 -0.3848
10936TIP3    H132744   1.098   3.491   6.086  0.4734  0.1265  0.0491
10936TIP3    H232745   1.139   3.506   6.231 -1.4200  0.1511  0.5995
10937TIP3   OH232746   7.199   3.816   5.340 -0.5461 -0.4669  0.0501
10937TIP3    H132747   7.282   3.863   5.341  0.2541 -1.8587 -0.7550
10937TIP3    H232748   7.133   3.885   5.339  0.5988  0.6421  0.0562
10938TIP3   OH232749   7.472   3.775   5.811  0.3959 -0.3873  0.0662
10938TIP3    H132750   7.438   3.829   5.882  0.8323 -0.0022 -0.0197
10938TIP3    H232751   7.526   3.834   5.759  0.5908 -0.8203 -0.2285
10939TIP3   OH232752   5.840   0.971   0.472  0.0985 -0.3718  0.1250
10939TIP3    H132753   5.831   0.953   0.378  1.1230  0.6634 -0.1755
10939TIP3    H232754   5.906   0.909   0.502 -0.7948 -1.2394  0.3339
10940TIP3   OH232755   7.274   2.319   6.323 -0.3166  0.0734  0.0342
10940TIP3    H132756   7.307   2.302   6.411  0.3512  1.9593  0.1608
10940TIP3    H232757   7.334   2.272   6.265 -0.1258 -0.2853  0.5272
10941TIP3   OH232758   7.925   2.595   5.892 -0.0992 -0.0759  0.0025
10941TIP3    H132759   7.985   2.617   5.821 -0.2860  0.1413 -0.0884
10941TIP3    H232760   7.982   2.582   5.968  0.0250  0.6402  0.0391
10942TIP3   OH232761   7.868   3.984   5.223  0.0417  0.5265 -0.2461
10942TIP3    H132762   7.878   3.905   5.170 -0.7015  1.4845 -1.8203
10942TIP3    H232763   7.802   4.036   5.178 -1.5273  0.8214  2.2753
10943TIP3   OH232764   8.436   2.306   5.551 -0.0820 -0.1741 -0.6094
10943TIP3    H132765   8.377   2.381   5.554 -0.0224 -0.1276 -0.5806
10943TIP3    H232766   8.384   2.233   5.584  0.6759  0.4042  2.0412
10944TIP3   OH232767   7.176   6.267   3.954 -0.1681 -0.0125  0.6748
10944TIP3    H132768   7.237   6.283   4.026  0.7067  0.3525 -0.1414
10944TIP3    H232769   7.157   6.173   3.959  0.4242 -0.1180  0.9704
10945TIP3   OH232770   5.713   2.929   5.554  0.2689  0.8708  0.0765
10945TIP3    H132771   5.734   2.936   5.648 -0.4854 -1.7896  0.4587
10945TIP3    H232772   5.682   2.840   5.543  1.2665  0.8584 -2.9207
10946TIP3   OH232773   0.926   7.369   0.280  0.2525  0.1785 -0.3095
10946TIP3    H132774   0.942   7.318   0.201  1.2144  0.7872 -0.5067
10946TIP3    H232775   0.884   7.307   0.340  2.9181 -1.3494  0.0655
10947TIP3   OH232776   6.123   1.242   0.680  0.1574  0.2068  0.2251
10947TIP3    H132777   6.192   1.240   0.614 -0.2633 -0.8027 -0.1901
10947TIP3    H232778   6.042   1.223   0.631 -0.0529 -1.3474  1.1478
10948TIP3   OH232779   7.396   4.883   5.670 -0.3243  0.2832  0.0886
10948TIP3    H132780   7.491   4.896   5.663 -0.1622 -0.3308  1.0627
10948TIP3    H232781   7.361   4.972   5.676  0.2811  0.4789  0.8341
10949TIP3   OH232782   6.605   1.206   0.053  0.0357  0.8675  0.3742
10949TIP3    H132783   6.628   1.259  -0.023 -0.5258  1.3440  0.5362
10949TIP3    H232784   6.685   1.202   0.104  0.2170  1.1459  0.1140
10950TIP3   OH232785   4.188   6.885   1.116 -0.1490  0.2086  0.4347
10950TIP3    H132786   4.166   6.933   1.036 -1.4014  0.3854  0.8776
10950TIP3    H232787   4.130   6.922   1.183 -0.2250 -1.0331  1.0674
10951TIP3   OH232788   7.647   2.542   0.456  0.2332 -0.0288 -0.0255
10951TIP3    H132789   7.667   2.538   0.362 -0.4191  1.5550 -0.2489
10951TIP3    H232790   7.721   2.497   0.498  1.5765  1.0500 -1.1829
10952TIP3   OH232791   0.311   3.318   5.392 -0.0730 -0.0144 -0.0392
10952TIP3    H132792   0.226   3.288   5.426 -1.5205  1.9592 -1.7331
10952TIP3    H232793   0.341   3.382   5.457 -1.1071  1.1268 -0.6667
10953TIP3   OH232794   6.106   3.279   0.258  0.2148 -0.7901  0.2506
10953TIP3    H132795   6.049   3.242   0.191 -0.4293  2.4947 -1.1383
10953TIP3    H232796   6.173   3.326   0.208 -1.5107  3.5595  1.7407
10954TIP3   OH232797   1.779   4.968   4.735 -0.2851 -0.6027 -0.0439
10954TIP3    H132798   1.788   4.963   4.830 -0.0394 -1.2591 -0.1037
10954TIP3    H232799   1.852   4.918   4.700 -0.9773 -1.2652 -0.5710
10955TIP3   OH232800   2.006   5.278   6.874  0.1943 -0.0886  0.0657
10955TIP3    H132801   1.977   5.369   6.884 -1.4755 -0.3772 -1.7906
10955TIP3    H232802   1.933   5.235   6.831  1.1020 -2.2586  0.6597
10956TIP3   OH232803   1.055   2.633   6.224  0.1155  0.5206 -0.3903
10956TIP3    H132804   1.050   2.678   6.140 -1.8730 -0.0850 -0.6287
10956TIP3    H232805   1.018   2.696   6.286  0.2991  0.4352 -0.1939
10957TIP3   OH232806   2.255   4.278   6.645  0.1594 -0.3365 -0.0648
10957TIP3    H132807   2.297   4.216   6.586 -0.4160 -1.0567  0.2677
10957TIP3    H232808   2.217   4.223   6.714 -1.4021  0.2786 -0.4077
10958TIP3   OH232809   1.335   5.074   5.524 -0.3529  0.3456  0.2306
10958TIP3    H132810   1.394   5.118   5.585 -0.3426  0.3189  0.2403
10958TIP3    H232811   1.307   5.143   5.463 -1.9465  0.8132  1.4692
10959TIP3   OH232812   5.104   0.746   1.669  0.0107 -0.1720  0.3391
10959TIP3    H132813   5.085   0.718   1.759  1.6499 -1.5770  0.2765
10959TIP3    H232814   5.191   0.787   1.675 -0.6900  1.4678 -0.2861
10960TIP3   OH232815   7.819   6.015   5.582  0.1977 -0.1246  0.6854
10960TIP3    H132816   7.781   6.095   5.544 -0.6773 -2.0586 -2.6731
10960TIP3    H232817   7.756   5.947   5.562  1.6790 -1.9551  2.1300
10961TIP3   OH232818   1.304   4.224   6.873 -0.4972 -0.2776  0.3001
10961TIP3    H132819   1.268   4.277   6.802 -1.6766 -0.5454  0.7000
10961TIP3    H232820   1.267   4.137   6.860  1.1671 -0.9543 -0.1548
10962TIP3   OH232821   2.611   4.693   6.570 -0.9387  0.0333 -0.2967
10962TIP3    H132822   2.588   4.612   6.525 -1.1731 -0.1124  0.0831
10962TIP3    H232823   2.529   4.721   6.611 -0.6667  0.0335  0.2480
10963TIP3   OH232824   2.002   5.250   5.489  0.0702  0.7340  0.2590
10963TIP3    H132825   2.076   5.308   5.507  2.4291 -1.3505 -2.0690
10963TIP3    H232826   2.043   5.166   5.468 -3.0187 -0.6548 -0.4978
10964TIP3   OH232827   3.132   5.731   6.852 -0.5995 -0.0333  0.4724
10964TIP3    H132828   3.147   5.813   6.900  1.4494  0.2388 -0.5586
10964TIP3    H232829   3.158   5.662   6.913 -1.2778  0.1320  0.9534
10965TIP3   OH232830   6.081   6.132   0.052  0.0409 -0.1275  0.0602
10965TIP3    H132831   6.034   6.105   0.131 -0.0374 -1.4619 -0.4232
10965TIP3    H232832   6.173   6.133   0.078  0.0734 -1.1615  0.0289
10966TIP3   OH232833   3.475   7.771   3.348  0.4236  0.2726  0.8140
10966TIP3    H132834   3.486   7.776   3.253 -1.6161 -0.0879  0.5418
10966TIP3    H232835   3.543   7.828   3.383  1.5796 -0.0554 -0.8429
10967TIP3   OH232836   0.680   5.452   5.950  0.3469 -1.0699  0.6099
10967TIP3    H132837   0.610   5.462   6.014 -0.7653 -1.9051 -0.4582
10967TIP3    H232838   0.735   5.530   5.962 -0.7675 -0.3992  1.4215
10968TIP3   OH232839   4.129   5.060   6.363 -0.3191  0.2684  0.4489
10968TIP3    H132840   4.039   5.091   6.374  0.1764  1.2971  1.8295
10968TIP3    H232841   4.140   4.994   6.432  0.0506  0.3201  0.4397
10969TIP3   OH232842   7.484   0.070   1.909  0.5483  0.2993 -0.4033
10969TIP3    H132843   7.537   0.024   1.844  2.6677  0.7478  0.9569
10969TIP3    H232844   7.539   0.072   1.988 -1.0894  1.6842  0.7408
10970TIP3   OH232845   1.066   3.656   6.813  0.0395  0.6303  0.4886
10970TIP3    H132846   0.974   3.676   6.830  0.6005  1.3342  2.9318
10970TIP3    H232847   1.080   3.570   6.853  0.0415 -0.2683 -1.3943
10971TIP3   OH232848   0.499   5.974   6.225  0.7287 -1.0049 -0.5743
10971TIP3    H132849   0.538   6.021   6.299 -2.0743 -0.2387  0.4721
10971TIP3    H232850   0.482   6.042   6.160  0.5127 -1.2199 -0.7420
10972TIP3   OH232851   6.807   3.235   5.644  0.3378  0.3901  0.4555
10972TIP3    H132852   6.787   3.322   5.677 -1.2857  0.3774 -0.4412
10972TIP3    H232853   6.837   3.187   5.720 -1.4943  0.9279  1.5548
10973TIP3   OH232854   3.974   4.816   6.841  0.8673 -0.3122  0.0608
10973TIP3    H132855   3.972   4.903   6.882  0.3935 -0.0885 -0.4352
10973TIP3    H232856   3.933   4.829   6.756  0.6001 -1.0728  0.0765
10974TIP3   OH232857   0.627   5.588   6.806  0.4761 -0.5735  0.0612
10974TIP3    H132858   0.644   5.527   6.735  1.6694  3.5191 -3.3292
10974TIP3    H232859   0.711   5.598   6.851  0.3131 -1.2111  0.5281
10975TIP3   OH232860   7.803   4.731   4.152  0.3721 -0.2568 -0.2270
10975TIP3    H132861   7.724   4.685   4.183  0.7434 -0.9319 -0.2864
10975TIP3    H232862   7.769   4.799   4.094 -0.2555  0.2520  0.7193
10976TIP3   OH232863   1.289   1.511   0.510  0.0220 -0.0713 -0.7288
10976TIP3    H132864   1.326   1.423   0.511 -3.0347 -1.4636 -2.8051
10976TIP3    H232865   1.327   1.553   0.433  3.5818  1.5015  1.7280
10977TIP3   OH232866   5.268   2.055   0.754  0.2511  0.4110  0.3893
10977TIP3    H132867   5.266   2.120   0.825 -1.0347 -1.5391  2.2142
10977TIP3    H232868   5.223   2.098   0.681  2.2738  2.7505  0.4725
10978TIP3   OH232869   0.872   3.287   5.545  0.2429 -0.1311  0.1260
10978TIP3    H132870   0.793   3.233   5.559  1.4496 -1.7926  0.7703
10978TIP3    H232871   0.925   3.270   5.623  0.9219  1.5456  0.0325
10979TIP3   OH232872   6.169   1.124   0.136  0.0727 -0.2214  0.1621
10979TIP3    H132873   6.262   1.127   0.160  0.1753  2.0038 -0.4391
10979TIP3    H232874   6.129   1.195   0.185 -0.8390  0.4327 -1.4857
10980TIP3   OH232875   5.891   0.374   1.307 -0.0386 -0.1326  0.6873
10980TIP3    H132876   5.822   0.358   1.242 -0.1123  1.1991  0.4158
10980TIP3    H232877   5.846   0.373   1.391 -0.4916  1.2005  0.4763
10981TIP3   OH232878   5.849   1.337   1.859 -0.8204  0.7283 -0.4731
10981TIP3    H132879   5.849   1.322   1.954 -1.8902  0.2322 -0.5438
10981TIP3    H232880   5.762   1.372   1.840 -1.0194 -0.2764 -1.4434
10982TIP3   OH232881   5.746   0.645   1.048  0.2012 -0.3541 -0.4594
10982TIP3    H132882   5.758   0.550   1.042 -1.0772 -0.5443 -0.1160
10982TIP3    H232883   5.709   0.659   1.135  0.8714  0.5149 -0.3106
10983TIP3   OH232884   4.066   0.705   0.166 -0.4021 -0.5029  0.1933
10983TIP3    H132885   4.044   0.754   0.087  1.0386  1.7145  1.1162
10983TIP3    H232886   4.101   0.622   0.133  0.7570  0.6387 -1.5333
10984TIP3   OH232887   6.175   6.249   0.912  0.0348  0.6532  0.1474
10984TIP3    H132888   6.082   6.267   0.927 -0.1188 -0.0287 -0.0019
10984TIP3    H232889   6.186   6.157   0.934  0.2775  0.2108 -1.7553
10985TIP3   OH232890   7.427   5.986   5.176 -0.2800 -0.2465  0.0778
10985TIP3    H132891   7.421   6.062   5.234  1.3678  0.4531 -0.6229
10985TIP3    H232892   7.509   5.999   5.129  0.2821 -2.7364  0.3156
10986TIP3   OH232893   1.239   3.596   6.383 -0.3679  0.1913 -0.1408
10986TIP3    H132894   1.229   3.576   6.476 -2.5319 -0.4710 -0.4929
10986TIP3    H232895   1.313   3.542   6.354 -0.1987 -0.1849  1.0002
10987TIP3   OH232896   2.187   2.149   6.363  0.0161  0.2402  0.0615
10987TIP3    H132897   2.177   2.116   6.452 -0.3985 -1.7944 -0.7230
10987TIP3    H232898   2.229   2.078   6.315  0.1072  1.2648 -1.4075
10988TIP3   OH232899   6.015   2.385   0.230 -0.3550 -0.3694 -0.1741
10988TIP3    H132900   5.981   2.429   0.308  0.2172  0.9723 -0.6469
10988TIP3    H232901   6.106   2.365   0.251  0.2280  1.2795 -0.9688
10989TIP3   OH232902   0.537   3.013   6.282 -0.0267 -0.3886 -0.1345
10989TIP3    H132903   0.554   2.923   6.309 -1.5719 -0.9352 -0.9466
10989TIP3    H232904   0.498   3.054   6.360  0.3509 -0.5073  0.1206
10990TIP3   OH232905   2.712   5.301   6.502 -0.1921 -0.2357  0.2462
10990TIP3    H132906   2.650   5.361   6.543 -0.6476 -0.7170  0.2707
10990TIP3    H232907   2.778   5.358   6.462  0.8413  0.2437  2.5345
10991TIP3   OH232908   8.507   1.337   0.300 -0.5524  0.0074 -0.6867
10991TIP3    H132909   8.501   1.315   0.207  0.2402 -0.6757 -0.5850
10991TIP3    H232910   8.417   1.331   0.332 -0.6549 -1.0095 -1.1381
10992TIP3   OH232911   1.381   6.313   5.335 -0.3783  0.2278 -0.6216
10992TIP3    H132912   1.357   6.329   5.426 -0.8941 -0.7284 -0.5873
10992TIP3    H232913   1.476   6.299   5.338 -0.4093  0.0810 -0.2113
10993TIP3   OH232914   0.218   5.417   5.288  0.1435 -0.0892 -0.3022
10993TIP3    H132915   0.274   5.412   5.365 -0.7600  1.6545  0.5088
10993TIP3    H232916   0.213   5.327   5.256  0.1000 -0.9475  1.9929
10994TIP3   OH232917   6.252   2.376   0.993 -0.6072  0.0056 -0.2171
10994TIP3    H132918   6.260   2.290   1.035 -0.5143 -0.2584 -0.7700
10994TIP3    H232919   6.313   2.432   1.040 -1.0700 -0.0883  0.5092
10995TIP3   OH232920   7.628   4.688   5.533 -0.3686 -0.0399  0.2214
10995TIP3    H132921   7.552   4.647   5.574 -1.5354  4.0516  2.4191
10995TIP3    H232922   7.597   4.718   5.448 -0.5638 -0.3680  0.1766
10996TIP3   OH232923   1.007   0.357   2.434  0.0509  0.1777 -0.7530
10996TIP3    H132924   0.934   0.323   2.382  0.2172 -2.2561  0.5321
10996TIP3    H232925   1.086   0.329   2.387  0.1715  1.7387 -1.4889
10997TIP3   OH232926   1.229   5.497   6.522  0.0757 -1.0389 -0.6131
10997TIP3    H132927   1.245   5.402   6.515  1.1722 -0.7928 -1.4731
10997TIP3    H232928   1.283   5.525   6.595 -1.3203 -1.3052  0.5505
10998TIP3   OH232929   2.091   6.113   6.556  0.0711  0.0908  0.1635
10998TIP3    H132930   2.111   6.101   6.463 -0.1663  0.2531  0.0920
10998TIP3    H232931   2.171   6.086   6.601  0.0471 -0.3659 -0.0686
10999TIP3   OH232932   1.125   4.466   6.854  0.3145  0.0570 -0.0985
10999TIP3    H132933   1.093   4.418   6.930  1.4124  1.8937  1.5624
10999TIP3    H232934   1.057   4.532   6.837  0.7216  0.5451  0.1590
11000TIP3   OH232935   3.812   0.653   2.978  0.1804  0.9289  0.4454
11000TIP3    H132936   3.832   0.646   3.071  0.0769  3.0589  0.6589
11000TIP3    H232937   3.802   0.563   2.949 -0.8848  0.2557  2.7357
11001TIP3   OH232938   7.469   4.326   6.925  0.0559  0.0330 -0.3558
11001TIP3    H132939   7.424   4.268   6.864 -0.9416 -0.0005  0.3879
11001TIP3    H232940   7.489   4.405   6.874 -0.6864 -0.0319 -0.7500
11002TIP3   OH232941   5.298   7.485   1.011  0.4548  0.3620  0.1849
11002TIP3    H132942   5.305   7.425   0.938  1.7582  0.6256  0.0725
11002TIP3    H232943   5.241   7.556   0.979  1.3449  0.6810 -0.7244
11003TIP3   OH232944   6.656   0.726   0.113 -0.5381  0.1826  0.4242
11003TIP3    H132945   6.603   0.647   0.097 -0.6335  0.6872 -1.8806
11003TIP3    H232946   6.728   0.695   0.169 -0.8357 -1.4382 -0.0503
11004TIP3   OH232947   1.140   3.980   6.824  0.2218 -0.3318  0.0866
11004TIP3    H132948   1.116   3.888   6.817 -1.3333  0.1824 -1.8597
11004TIP3    H232949   1.179   3.988   6.911 -1.4333 -2.4427  1.0763
11005TIP3   OH232950   6.259   7.625   1.544  0.1150 -0.5633 -0.2970
11005TIP3    H132951   6.319   7.551   1.542  1.5961  0.5738  0.6535
11005TIP3    H232952   6.311   7.698   1.578 -2.1351  0.1697  1.7483
11006TIP3   OH232953   1.316   4.195   6.559  0.4002  0.2166 -0.0901
11006TIP3    H132954   1.354   4.157   6.480  1.5541 -0.4722  0.7824
11006TIP3    H232955   1.390   4.233   6.606 -0.1859  0.0743  0.9685
11007TIP3   OH232956   2.064   3.696   5.147 -0.0677 -0.0493  0.5181
11007TIP3    H132957   2.055   3.788   5.122 -1.4697 -0.5076 -0.7191
11007TIP3    H232958   2.129   3.661   5.086  1.6185  0.4578  1.9697
11008TIP3   OH232959   4.275   7.550   0.604 -0.8178 -0.2290 -0.2195
11008TIP3    H132960   4.335   7.527   0.675 -1.7471 -0.6056  0.4458
11008TIP3    H232961   4.331   7.556   0.527  0.1253 -0.2793  0.4559
11009TIP3   OH232962   2.772   5.737   5.183 -0.5499  0.4134  0.0723
11009TIP3    H132963   2.683   5.766   5.202  0.1706  3.1596 -0.5968
11009TIP3    H232964   2.805   5.800   5.119  1.5175 -1.1973 -0.5110
11010TIP3   OH232965   0.482   3.191   5.179  0.5967  0.0469 -0.2059
11010TIP3    H132966   0.438   3.201   5.095  0.2559  0.1638 -0.0157
11010TIP3    H232967   0.433   3.248   5.239  0.7510 -0.1412  0.1030
11011TIP3   OH232968   7.016   2.146   0.373 -0.7966 -0.0013 -0.1066
11011TIP3    H132969   7.036   2.055   0.353  0.0457  0.5399 -1.8604
11011TIP3    H232970   7.059   2.163   0.457  1.4136 -0.4383 -1.1294
11012TIP3   OH232971   0.398   5.283   6.539 -0.1516 -0.4319  0.2593
11012TIP3    H132972   0.414   5.252   6.629 -2.4065 -0.6350  0.6246
11012TIP3    H232973   0.368   5.206   6.492  1.3997 -0.4103 -0.8085
11013TIP3   OH232974   1.129   4.357   6.046 -0.2195 -0.4719  0.7667
11013TIP3    H132975   1.161   4.437   6.087  2.2531 -0.4616 -1.0040
11013TIP3    H232976   1.208   4.303   6.035 -1.5364 -2.3526  0.2139
11014TIP3   OH232977   8.056   2.553   0.694 -0.8431  0.7976  0.0451
11014TIP3    H132978   8.093   2.507   0.770 -2.3270 -2.3242 -1.0077
11014TIP3    H232979   8.130   2.569   0.636 -0.0714  1.0435  1.0957
11015TIP3   OH232980   8.398   3.132   1.429  0.3330  0.3561 -0.5023
11015TIP3    H132981   8.326   3.074   1.450  0.6614  0.8511  2.1429
11015TIP3    H232982   8.468   3.074   1.399  0.1271 -0.4605  0.6069
11016TIP3   OH232983   6.343   2.058   0.396 -0.1624 -0.3386 -0.0790
11016TIP3    H132984   6.335   2.153   0.401  0.2541 -0.3704  1.1407
11016TIP3    H232985   6.260   2.025   0.432 -0.1829 -0.4473 -0.2243
11017TIP3   OH232986   8.075   4.953   6.053  0.1492  0.5352  0.5959
11017TIP3    H132987   8.069   4.864   6.089  0.5420  1.3881  2.8626
11017TIP3    H232988   7.985   4.979   6.036 -0.0384  0.0666  0.8789
11018TIP3   OH232989   5.927   0.329   0.735 -0.4878 -0.2807  0.1246
11018TIP3    H132990   5.928   0.251   0.679 -0.1292  0.1438 -0.4651
11018TIP3    H232991   5.876   0.393   0.687  1.2671  0.6671 -0.5399
11019TIP3   OH232992   7.835   5.094   5.216  0.5405  0.0847  0.1641
11019TIP3    H132993   7.845   5.135   5.130 -0.5477  0.8602  0.4065
11019TIP3    H232994   7.758   5.135   5.254  1.1670 -0.0521  1.6354
11020TIP3   OH232995   0.852   5.625   5.464 -0.3097  0.3658  0.1249
11020TIP3    H132996   0.886   5.560   5.525  1.5445  1.1496 -0.0266
11020TIP3    H232997   0.868   5.588   5.378 -1.3581  0.0207  0.0697
11021TIP3   OH232998   0.420   4.931   5.992  0.4432 -0.1661  0.2569
11021TIP3    H132999   0.339   4.880   5.990 -1.0689  2.0285  1.9542
11021TIP3    H233000   0.485   4.870   6.026 -0.8319 -1.5784  0.2430
11022TIP3   OH233001   3.327   1.817   0.796  0.1130 -0.3638  0.0253
11022TIP3    H133002   3.250   1.774   0.759  0.8246 -1.6105 -0.0322
11022TIP3    H233003   3.294   1.864   0.872 -0.4225 -2.4186  1.1088
11023TIP3   OH233004   6.165   1.542   0.176 -0.2263  0.1052 -0.0598
11023TIP3    H133005   6.148   1.634   0.195 -0.7160  0.5823 -2.6403
11023TIP3    H233006   6.246   1.522   0.224  0.1149  1.9882  0.1956
11024TIP3   OH233007   1.766   5.132   6.105  0.3539  0.2341 -0.2290
11024TIP3    H133008   1.713   5.196   6.153  0.5356  0.1110  0.1405
11024TIP3    H233009   1.815   5.086   6.173  0.5447 -0.0068 -0.5283
11025TIP3   OH233010   6.148   1.820   0.938  0.7205  0.7155 -0.2860
11025TIP3    H133011   6.231   1.833   0.894  1.1167  0.9436  0.5179
11025TIP3    H233012   6.167   1.758   1.009  0.3381  1.2254  0.2688
11026TIP3   OH233013   0.155   6.919   5.755 -0.0905  0.4902 -0.2480
11026TIP3    H133014   0.093   6.893   5.687  0.6718  1.7114 -1.4339
11026TIP3    H233015   0.158   7.015   5.749 -0.4008  0.6667  1.8525
11027TIP3   OH233016   1.143   5.881   6.719  0.1174  0.3176  0.0510
11027TIP3    H133017   1.193   5.863   6.640  1.1056  0.1553  0.7001
11027TIP3    H233018   1.109   5.796   6.746 -0.2797  0.3848 -0.2433
11028TIP3   OH233019   6.375   1.763   2.723 -0.3379 -0.0904  0.2098
11028TIP3    H133020   6.390   1.840   2.668 -2.2253  0.8292  0.9276
11028TIP3    H233021   6.454   1.710   2.713  0.2827  1.1276 -1.6275
11029TIP3   OH233022   5.281   0.739   0.564 -0.6610  0.6698  0.1260
11029TIP3    H133023   5.291   0.833   0.581 -1.0135  0.6111  0.6934
11029TIP3    H233024   5.205   0.733   0.507 -0.3189  0.7673 -0.3427
11030TIP3   OH233025   4.015   7.772   0.315  0.1638 -0.0436 -0.2141
11030TIP3    H133026   3.999   7.678   0.305 -1.0175  0.1037  0.2378
11030TIP3    H233027   4.016   7.786   0.410  0.2459  0.4254 -0.2813
11031TIP3   OH233028   0.540   3.867   5.568 -0.3463  0.0061  0.0804
11031TIP3    H133029   0.544   3.827   5.481  2.0742  0.9714 -0.2844
11031TIP3    H233030   0.631   3.883   5.591 -0.8058 -2.2004  3.7453
11032TIP3   OH233031   1.908   5.848   5.329 -0.3136 -0.1569 -0.3931
11032TIP3    H133032   1.858   5.928   5.348 -0.6712 -0.3550 -0.4949
11032TIP3    H233033   1.940   5.820   5.415 -1.4170 -0.7077 -0.1463
11033TIP3   OH233034   0.061   3.800   5.163  0.1864  0.0543 -0.3873
11033TIP3    H133035   0.119   3.725   5.155  0.1874  0.1059 -0.8698
11033TIP3    H233036   0.036   3.822   5.073 -1.9723 -1.0578 -0.1007
11034TIP3   OH233037   6.209   4.728   6.319 -0.3301  0.3773 -0.3576
11034TIP3    H133038   6.161   4.736   6.236  1.0726 -0.2809 -1.2471
11034TIP3    H233039   6.274   4.660   6.302 -1.1990 -1.0349  1.8484
11035TIP3   OH233040   0.359   6.567   5.911 -0.3111 -0.0803 -0.7828
11035TIP3    H133041   0.265   6.570   5.926 -0.3711 -2.8224 -0.3087
11035TIP3    H233042   0.371   6.501   5.843  1.2382  0.5539 -1.1502
11036TIP3   OH233043   6.916   5.312   5.875 -0.5075 -0.8312  0.4299
11036TIP3    H133044   6.946   5.224   5.902 -2.2907 -1.1047  1.6233
11036TIP3    H233045   6.912   5.361   5.957  0.5677  0.4153 -0.2519
11037TIP3   OH233046   0.005   1.639   0.064  0.0567  0.3714  0.2367
11037TIP3    H133047  -0.044   1.567   0.024  1.6523 -0.0302 -1.0290
11037TIP3    H233048   0.078   1.655   0.004  1.0982  1.4160  1.7448
11038TIP3   OH233049   5.171   7.379   0.391 -0.5243 -0.4505  0.3499
11038TIP3    H133050   5.212   7.331   0.462 -0.2135 -1.2930 -0.3925
11038TIP3    H233051   5.213   7.465   0.392  0.1655 -0.7930  0.5587
11039TIP3   OH233052   7.042   4.354   5.749  0.5037 -0.5507  0.0485
11039TIP3    H133053   7.118   4.297   5.757 -0.5057 -1.7812  0.9669
11039TIP3    H233054   6.982   4.326   5.818 -0.6595  0.6151 -0.4476
11040TIP3   OH233055   1.738   5.946   6.449 -0.0394 -0.2602  0.3265
11040TIP3    H133056   1.789   5.905   6.519 -0.7349 -2.6973 -0.5421
11040TIP3    H233057   1.647   5.936   6.476 -0.2913 -0.7789 -0.6912
11041TIP3   OH233058   1.627   6.578   5.755 -0.5248  0.5477 -0.1940
11041TIP3    H133059   1.649   6.584   5.848 -1.0104 -0.1457 -0.0362
11041TIP3    H233060   1.588   6.492   5.744  2.1193 -0.5137 -1.6098
11042TIP3   OH233061   6.575   2.080   0.539 -0.1063  0.1069  0.3012
11042TIP3    H133062   6.643   2.115   0.482  0.7328 -0.3560  1.0004
11042TIP3    H233063   6.498   2.071   0.483  0.8284 -0.7509 -0.8571
11043TIP3   OH233064   8.105   3.222   5.974 -0.1261 -0.5445  0.0188
11043TIP3    H133065   8.058   3.304   5.960 -0.4364 -0.6698  0.3380
11043TIP3    H233066   8.190   3.236   5.932 -0.7394 -0.6129 -1.2422
11044TIP3   OH233067   0.873   7.638   5.270  0.4944  0.4701  0.4464
11044TIP3    H133068   0.893   7.726   5.301 -0.1107  0.7570  0.0405
11044TIP3    H233069   0.910   7.579   5.336  1.2478  1.0197  0.5151
11045TIP3   OH233070   0.621   5.650   6.447  0.4481  0.2695 -0.3147
11045TIP3    H133071   0.708   5.610   6.449  0.2068 -0.2331  0.1764
11045TIP3    H233072   0.638   5.744   6.440  1.0359  0.1833 -0.0913
11046TIP3   OH233073   0.498   6.086   6.819 -0.4401  0.5296 -0.2152
11046TIP3    H133074   0.468   6.002   6.784 -2.1213 -0.0407  2.4748
11046TIP3    H233075   0.506   6.142   6.742  2.3618 -2.5336 -2.2796
11047TIP3   OH233076   3.240   5.821   5.929  0.3879  0.1601  0.4579
11047TIP3    H133077   3.223   5.914   5.939 -1.1072 -0.0049 -0.3602
11047TIP3    H233078   3.207   5.799   5.842  0.9549 -1.0825  0.5327
11048TIP3   OH233079   4.769   1.077   0.820 -0.0467 -0.1636 -0.1723
11048TIP3    H133080   4.840   1.139   0.838 -0.6493  0.2495  0.8428
11048TIP3    H233081   4.809   0.991   0.830  0.0308  0.0634  1.6550
11049TIP3   OH233082   6.603   1.352   2.035  0.6231  0.3879 -0.1119
11049TIP3    H133083   6.675   1.416   2.034  1.4194 -0.5063 -0.5421
11049TIP3    H233084   6.544   1.383   2.103  0.3947  2.2712 -1.1261
11050TIP3   OH233085   4.514   7.883   0.043 -0.5383 -0.2458  0.2727
11050TIP3    H133086   4.451   7.927   0.099 -1.5518 -1.3912  0.0441
11050TIP3    H233087   4.501   7.923  -0.043  1.7217  2.2465  0.9950
11051TIP3   OH233088   0.565   3.350   5.745  0.3420  0.0822 -0.1394
11051TIP3    H133089   0.516   3.317   5.820  0.5733  0.0166 -0.0180
11051TIP3    H233090   0.643   3.294   5.741 -0.2284 -0.6676 -1.1117
11052TIP3   OH233091   6.781   5.200   5.666 -0.2135  0.1507 -0.1709
11052TIP3    H133092   6.798   5.243   5.750 -1.9539  0.1116  0.2050
11052TIP3    H233093   6.863   5.155   5.646 -0.5408 -1.8472  2.6987
11053TIP3   OH233094   5.138   7.265   1.243  0.1832  0.4177  0.0616
11053TIP3    H133095   5.189   7.203   1.192  0.0692  1.3812 -1.2491
11053TIP3    H233096   5.195   7.341   1.253 -0.3932  0.8663 -0.0081
11054TIP3   OH233097   4.809   5.919   1.289  0.2014 -0.5159  0.5650
11054TIP3    H133098   4.759   5.864   1.229  0.9293  0.6116 -1.0925
11054TIP3    H233099   4.754   5.995   1.304 -1.0012 -1.8352  3.2156
11055TIP3   OH233100   8.377   0.608   0.338  0.1699 -0.4015 -0.7326
11055TIP3    H133101   8.387   0.513   0.345  1.5108 -0.5124 -3.5958
11055TIP3    H233102   8.298   0.620   0.285 -0.4535  0.1416  0.2799
11056TIP3   OH233103   6.650   5.349   6.422  0.0760  0.2758  0.3436
11056TIP3    H133104   6.679   5.293   6.494  2.0722 -0.4326 -0.9692
11056TIP3    H233105   6.578   5.300   6.381  1.8027 -1.3395 -0.7914
11057TIP3   OH233106   0.987   3.652   5.627  0.1409  0.0798 -0.2895
11057TIP3    H133107   0.994   3.665   5.533 -2.1318  0.7353 -0.4065
11057TIP3    H233108   0.917   3.711   5.654  0.1494 -0.7581  1.6762
11058TIP3   OH233109   1.800   6.659   4.609  0.2130  0.0519 -0.3171
11058TIP3    H133110   1.884   6.621   4.634 -0.2935 -1.7789 -1.3152
11058TIP3    H233111   1.737   6.619   4.669 -0.4009 -1.1033 -1.7160
11059TIP3   OH233112   1.586   7.971   1.667 -0.0755  0.2394 -0.2780
11059TIP3    H133113   1.635   7.910   1.612 -0.1424  0.2778 -0.3809
11059TIP3    H233114   1.582   8.052   1.615  0.5421  0.5248  0.1155
11060TIP3   OH233115   5.264   2.280   1.018  0.4016 -0.1500  0.5420
11060TIP3    H133116   5.245   2.373   1.009 -1.5253 -0.5221  0.4455
11060TIP3    H233117   5.320   2.274   1.095 -1.9954  0.8166  2.4349
11061TIP3   OH233118   1.055   2.450   3.380 -0.2948 -1.0061 -0.4592
11061TIP3    H133119   0.999   2.469   3.304 -0.9486 -0.2332  0.2045
11061TIP3    H233120   1.000   2.470   3.456  0.7062 -0.7408  0.2063
11062TIP3   OH233121   5.510   1.388   0.765 -0.1859  0.1156 -0.5474
11062TIP3    H133122   5.453   1.350   0.699  0.6001  0.2404 -1.3025
11062TIP3    H233123   5.597   1.388   0.725  0.1812  0.7943  0.2295
11063TIP3   OH233124   1.869   4.744   6.768 -0.5221 -0.0084 -0.2027
11063TIP3    H133125   1.922   4.790   6.702 -0.5400  0.4598  0.1062
11063TIP3    H233126   1.784   4.788   6.765 -0.9688 -0.9037 -0.8523
11064TIP3   OH233127   0.093   4.993   5.989 -0.0415  0.1996  0.6317
11064TIP3    H133128   0.130   4.910   5.961 -1.0958  0.3079 -1.1345
11064TIP3    H233129   0.071   5.039   5.908  1.4269  2.6388  1.5591
11065TIP3   OH233130   6.375   1.919   1.308  0.3519  0.0680 -0.1231
11065TIP3    H133131   6.355   1.829   1.283 -1.4770 -0.3868  2.7223
11065TIP3    H233132   6.469   1.918   1.328  0.6023 -0.9066 -1.3140
11066TIP3   OH233133   0.878   6.805   5.486 -0.2299  0.8498 -0.0022
11066TIP3    H133134   0.969   6.828   5.469  1.3985 -2.9303  2.6622
11066TIP3    H233135   0.851   6.865   5.555  1.5655 -0.3788  1.8481
11067TIP3   OH233136   7.157   0.059   0.250 -0.0071 -0.1459  0.0164
11067TIP3    H133137   7.189   0.045   0.339 -0.5329 -0.1590  0.1999
11067TIP3    H233138   7.136   0.152   0.245  0.0295 -0.1425 -0.1012
11068TIP3   OH233139   1.410   5.820   5.497  0.0207 -0.0555 -0.2492
11068TIP3    H133140   1.500   5.789   5.494  0.6960  1.8496 -0.6142
11068TIP3    H233141   1.381   5.822   5.406 -0.2793 -0.3329 -0.1620
11069TIP3   OH233142   0.950   6.405   6.249 -0.2262 -0.4041  0.1533
11069TIP3    H133143   0.951   6.501   6.246  0.6366 -0.3775  1.0948
11069TIP3    H233144   0.870   6.381   6.202 -0.3230  0.7673 -0.3060
11070TIP3   OH233145   4.082   7.959   0.126  0.7545  0.2733  0.2063
11070TIP3    H133146   4.074   7.899   0.200  0.3285 -1.6873 -1.4222
11070TIP3    H233147   4.171   7.995   0.134  0.9034 -0.3259  1.3580
11071TIP3   OH233148   1.466   5.215   6.915 -0.1597  0.8434 -0.1913
11071TIP3    H133149   1.539   5.178   6.866 -0.2474 -0.1605  0.4116
11071TIP3    H233150   1.493   5.305   6.935  2.0080 -0.2744  2.1681
11072TIP3   OH233151   8.454   4.661   5.532 -0.0027  0.2397 -0.1397
11072TIP3    H133152   8.397   4.596   5.574  0.5021  0.6140  1.1359
11072TIP3    H233153   8.415   4.745   5.554  0.0343  0.4182 -0.7635
11073TIP3   OH233154   6.164   0.880   1.284  0.4512  0.0498  0.2605
11073TIP3    H133155   6.149   0.932   1.205  0.2200  0.2063  0.4083
11073TIP3    H233156   6.230   0.816   1.258  0.2066 -0.0486 -0.1303
11074TIP3   OH233157   0.107   6.280   6.178 -0.2104 -0.0523  0.0709
11074TIP3    H133158   0.077   6.189   6.180 -1.4854  0.3596  0.2029
11074TIP3    H233159   0.202   6.274   6.176 -0.2943 -1.4165 -0.9091
11075TIP3   OH233160   0.925   0.910   2.078 -0.2892  0.1879  0.2718
11075TIP3    H133161   1.016   0.938   2.078 -0.7824  1.8578 -0.5174
11075TIP3    H233162   0.909   0.881   2.168  1.0401 -0.2176  0.3908
11076TIP3   OH233163   6.602   0.825   1.679  0.1608  0.0165  0.0641
11076TIP3    H133164   6.563   0.738   1.685  0.6305 -0.1449  0.9044
11076TIP3    H233165   6.654   0.833   1.760  2.0840  0.0992 -1.1375
11077TIP3   OH233166   0.466   0.412   0.693  0.0827 -0.1160  0.1609
11077TIP3    H133167   0.504   0.345   0.635  2.6314  1.1782  0.2584
11077TIP3    H233168   0.490   0.495   0.652 -0.6898  0.7812  1.4914
11078TIP3   OH233169   0.850   0.548   2.275 -0.0789  0.8110  0.4582
11078TIP3    H133170   0.846   0.467   2.327  0.6899  0.6951  0.3374
11078TIP3    H233171   0.818   0.522   2.188  0.3808  0.5792  0.3553
11079TIP3   OH233172   5.620   0.455   0.808  0.1758 -0.2459  0.4549
11079TIP3    H133173   5.672   0.443   0.729 -1.6173 -0.6370 -0.7060
11079TIP3    H233174   5.591   0.546   0.805  0.6403 -0.0731  1.0147
11080TIP3   OH233175   5.908   7.094   1.469  0.4535  0.4196 -0.3708
11080TIP3    H133176   5.980   7.148   1.435 -0.3708  1.2632 -0.7842
11080TIP3    H233177   5.888   7.033   1.399  1.5003 -0.5564  0.1591
11081TIP3   OH233178   4.870   7.146   2.894 -0.6425 -0.3684  0.6754
11081TIP3    H133179   4.868   7.185   2.806 -2.2054 -1.7346  0.0742
11081TIP3    H233180   4.947   7.089   2.893 -1.6227 -1.7234 -0.4434
11082TIP3   OH233181   4.804   7.408   1.441  0.6343 -0.2195 -0.0713
11082TIP3    H133182   4.873   7.413   1.507  1.2207 -2.5968 -0.4506
11082TIP3    H233183   4.722   7.410   1.491  1.0658 -1.3197  0.6941
11083TIP3   OH233184   8.341   6.433   6.696 -0.3587 -0.3763 -0.1014
11083TIP3    H133185   8.364   6.344   6.669 -0.4449 -0.0827 -1.1916
11083TIP3    H233186   8.329   6.480   6.613  0.7810  0.9345  0.4624
11084TIP3   OH233187   2.707   4.130   6.411  0.5393 -1.2008  0.3364
11084TIP3    H133188   2.776   4.068   6.387  0.9069 -1.2686  1.5654
11084TIP3    H233189   2.735   4.213   6.370  0.2251 -1.7356 -1.0039
11085TIP3   OH233190   7.788   1.863   0.142 -0.3597  0.1397  0.6192
11085TIP3    H133191   7.767   1.803   0.070  1.2207 -0.1968  0.4158
11085TIP3    H233192   7.845   1.929   0.102  0.3496  0.0729  1.5060
11086TIP3   OH233193   6.182   1.139   1.877 -0.3669  0.0680 -0.1793
11086TIP3    H133194   6.221   1.117   1.962  0.2137  2.1096  0.1134
11086TIP3    H233195   6.088   1.124   1.889 -0.0475 -1.7894  0.1136
11087TIP3   OH233196   1.099   4.952   6.332 -0.1457  0.1248  0.1063
11087TIP3    H133197   1.014   4.953   6.375  0.0210  0.2326  0.4379
11087TIP3    H233198   1.080   4.926   6.242 -0.7151  1.5472 -0.2037
11088TIP3   OH233199   0.498   4.416   5.373  0.2937 -0.3347 -0.0778
11088TIP3    H133200   0.543   4.353   5.430  0.9286  0.9841  0.8864
11088TIP3    H233201   0.564   4.483   5.355 -0.3146 -0.0502 -1.2915
11089TIP3   OH233202   7.406   1.199   1.372  0.4154  0.3500 -0.1547
11089TIP3    H133203   7.370   1.111   1.371  0.5781  0.2380  1.9273
11089TIP3    H233204   7.481   1.195   1.312 -0.5115 -0.4917 -1.2870
11090TIP3   OH233205   4.622   7.835   0.880 -0.1327 -0.4476 -0.0635
11090TIP3    H133206   4.683   7.825   0.953 -1.3605  1.6313  1.2966
11090TIP3    H233207   4.672   7.879   0.812  0.8059 -1.7092 -0.2034
11091TIP3   OH233208   3.251   4.896   6.379  0.3027 -0.7144  0.0106
11091TIP3    H133209   3.209   4.897   6.293 -0.7411  2.5748  0.4715
11091TIP3    H233210   3.344   4.908   6.360 -0.0934  1.6191 -0.6722
11092TIP3   OH233211   0.736   4.619   5.727 -0.0624 -0.3853  0.0013
11092TIP3    H133212   0.820   4.636   5.685 -0.0290 -1.3918 -0.3541
11092TIP3    H233213   0.673   4.673   5.678  0.3378  0.2054  0.1361
11093TIP3   OH233214   0.318   1.744   0.189  0.4804 -0.0493  0.1915
11093TIP3    H133215   0.340   1.817   0.248  0.5704 -0.0626  0.1746
11093TIP3    H233216   0.281   1.677   0.247  1.5404 -0.4777  0.3845
11094TIP3   OH233217   0.944   0.173   1.013 -0.2308  0.3228  0.2029
11094TIP3    H133218   0.939   0.206   0.923 -2.4028 -1.5261 -0.4275
11094TIP3    H233219   0.864   0.205   1.054 -0.6085 -1.1197  0.6295
11095TIP3   OH233220   7.460   0.135   0.743  0.3537  0.4198  0.2969
11095TIP3    H133221   7.554   0.119   0.728  0.3605  0.9118 -0.1687
11095TIP3    H233222   7.454   0.150   0.838  0.8071  0.7729  0.2746
11096TIP3   OH233223   7.399   0.649   0.273  0.0435 -0.1007  0.5758
11096TIP3    H133224   7.460   0.621   0.205  0.0483  0.0151  0.5325
11096TIP3    H233225   7.326   0.689   0.226  0.1962  0.2697  0.6519
11097TIP3   OH233226   0.229   3.021   5.686 -0.4459 -0.2751 -0.0197
11097TIP3    H133227   0.143   3.062   5.699 -0.5296 -0.3946 -0.1947
11097TIP3    H233228   0.279   3.047   5.763 -0.3889  0.4348 -0.2893
11098TIP3   OH233229   3.119   1.792   6.391 -0.0821 -0.0349 -0.3346
11098TIP3    H133230   3.209   1.810   6.362  0.1292  0.6538  0.7295
11098TIP3    H233231   3.128   1.764   6.482 -0.9572  0.2219 -0.1604
11099TIP3   OH233232   1.963   5.780   5.087  0.1248 -0.2480 -0.0352
11099TIP3    H133233   1.938   5.804   5.177 -1.1990 -2.6415  0.2641
11099TIP3    H233234   1.899   5.826   5.033 -1.7194 -2.1295  0.4860
11100TIP3   OH233235   4.322   4.472   6.968 -0.5562  0.1954 -0.1192
11100TIP3    H133236   4.264   4.397   6.957 -1.7591  1.3509 -1.8482
11100TIP3    H233237   4.342   4.500   6.879  0.9036  1.1542  0.4905
11101TIP3   OH233238   2.770   4.666   6.807  0.1007 -0.0096  0.5469
11101TIP3    H133239   2.741   4.656   6.716  1.8470 -1.0628  0.0717
11101TIP3    H233240   2.692   4.692   6.855 -1.3332 -1.5333 -0.9006
11102TIP3   OH233241   3.738   7.979   0.679 -0.7757 -0.3148  0.3235
11102TIP3    H133242   3.688   8.059   0.694  1.1025  1.0848 -0.7070
11102TIP3    H233243   3.749   7.941   0.767 -1.2450  0.8385  0.8952
11103TIP3   OH233244   2.053   3.327   6.880  0.6632 -0.6664  0.1433
11103TIP3    H133245   1.984   3.342   6.815 -1.0034 -3.5794  1.1618
11103TIP3    H233246   2.040   3.396   6.945 -0.3132 -0.2539 -0.4820
11104TIP3   OH233247   8.164   4.228   6.431 -0.0076 -0.4608 -0.1766
11104TIP3    H133248   8.242   4.269   6.393  0.3411  0.4960  1.5407
11104TIP3    H233249   8.198   4.156   6.484 -0.1006  1.1739  2.1714
11105TIP3   OH233250   8.130   2.632   5.714 -0.0803 -0.1362 -0.1528
11105TIP3    H133251   8.143   2.562   5.650  0.3657  0.3178 -0.5664
11105TIP3    H233252   8.201   2.619   5.778 -0.0802 -0.1392 -0.1539
11106TIP3   OH233253   6.987   1.980   0.669  0.2022  0.4176  0.0911
11106TIP3    H133254   7.015   1.890   0.686  0.7467  0.5270 -0.2377
11106TIP3    H233255   7.060   2.034   0.698  0.3254  0.7012 -0.7625
11107TIP3   OH233256   7.124   3.185   0.110 -0.0023 -0.6335 -0.1461
11107TIP3    H133257   7.043   3.229   0.136 -0.2600 -1.7906  1.0390
11107TIP3    H233258   7.106   3.092   0.123  0.5383 -1.1276 -2.6119
11108TIP3   OH233259   1.608   7.335   0.311  0.2343 -0.0247 -0.3109
11108TIP3    H133260   1.654   7.412   0.345  0.0525 -0.2155  0.3693
11108TIP3    H233261   1.662   7.306   0.237  0.8693  0.1252  0.0893
11109TIP3   OH233262   2.653   6.855   5.264  0.6404 -0.3687  0.1338
11109TIP3    H133263   2.700   6.772   5.264 -0.5897 -1.1514  3.1093
11109TIP3    H233264   2.720   6.921   5.279  1.0419 -1.3604  3.0982
11110TIP3   OH233265   4.011   7.212   1.811  0.3120 -0.3241 -0.0388
11110TIP3    H133266   4.103   7.192   1.794  0.8331 -1.0686  3.3749
11110TIP3    H233267   3.969   7.127   1.823 -0.7570  0.0347 -1.1014
11111TIP3   OH233268   6.679   5.629   6.525 -0.0287 -0.1510  0.1857
11111TIP3    H133269   6.753   5.629   6.585  0.2370 -2.2077 -0.1016
11111TIP3    H233270   6.673   5.538   6.494 -0.8883  0.6081 -1.9844
11112TIP3   OH233271   1.325   6.600   5.344  0.2064 -0.2501  0.5230
11112TIP3    H133272   1.314   6.690   5.313  3.4252  0.0955  0.2033
11112TIP3    H233273   1.267   6.593   5.420 -0.2987  2.0041  0.3686
11113TIP3   OH233274   6.294   2.989   0.750 -0.2115  0.2172 -0.1321
11113TIP3    H133275   6.323   3.080   0.737  1.4671 -0.0159  1.7058
11113TIP3    H233276   6.201   2.997   0.772  0.0873  1.5616  0.7043
11114TIP3   OH233277   1.893   3.883   5.857  0.4523  0.0460 -0.1955
11114TIP3    H133278   1.828   3.815   5.873  0.9948 -0.6045 -0.7002
11114TIP3    H233279   1.945   3.849   5.784 -0.7301  2.0326 -2.0243
11115TIP3   OH233280   7.278   2.053   1.440  0.4595 -0.7272 -0.2654
11115TIP3    H133281   7.297   2.039   1.533  2.4276 -1.9152 -0.7964
11115TIP3    H233282   7.300   2.145   1.425 -0.7048 -0.2924  0.6253
11116TIP3   OH233283   1.684   6.287   5.355 -0.5376 -0.5235  0.0506
11116TIP3    H133284   1.683   6.383   5.363 -1.2473 -0.5357  0.1179
11116TIP3    H233285   1.726   6.271   5.270  1.0843 -0.2021  0.7667
11117TIP3   OH233286   1.504   4.633   5.140  0.6028  0.3273 -0.1079
11117TIP3    H133287   1.411   4.656   5.146  1.0723  1.9905  0.9990
11117TIP3    H233288   1.548   4.715   5.119  1.9942 -0.1400  0.9049
11118TIP3   OH233289   5.074   7.139   0.907 -0.0924  0.3483  0.2222
11118TIP3    H133290   4.988   7.155   0.945 -0.9947 -0.4272 -1.4081
11118TIP3    H233291   5.083   7.043   0.910  0.6868  0.4281  0.3555
11119TIP3   OH233292   5.718   6.376   0.050 -0.0228  0.1405  0.2575
11119TIP3    H133293   5.637   6.373  -0.001  0.1941  1.6036 -0.1793
11119TIP3    H233294   5.736   6.284   0.070  0.9621 -0.6874 -3.9478
11120TIP3   OH233295   6.279   1.509   0.783  0.3469 -0.3118 -0.3006
11120TIP3    H133296   6.313   1.505   0.872  0.1038  0.7826 -0.1577
11120TIP3    H233297   6.283   1.418   0.752  0.9129 -0.6128  0.6367
11121TIP3   OH233298   0.811   4.441   4.572 -0.3498 -0.1263  0.4702
11121TIP3    H133299   0.759   4.415   4.496 -0.7935 -0.4859  0.9036
11121TIP3    H233300   0.890   4.386   4.567  0.4575  1.1082 -0.7388
11122TIP3   OH233301   8.035   0.420   0.749 -0.0860 -0.1079 -0.4161
11122TIP3    H133302   8.035   0.350   0.814  0.0509  0.1494 -0.1413
11122TIP3    H233303   7.947   0.457   0.754  0.6580  1.5161  1.3434
11123TIP3   OH233304   8.119   2.291   1.750 -0.2080  0.2653 -0.0461
11123TIP3    H133305   8.118   2.386   1.757  1.7502  0.3043 -0.0809
11123TIP3    H233306   8.121   2.260   1.841 -2.9298  0.1686  0.0456
11124TIP3   OH233307   0.142   4.663   5.327 -0.2806  0.2716 -0.7242
11124TIP3    H133308   0.074   4.677   5.393 -0.3756  1.9545 -1.1425
11124TIP3    H233309   0.208   4.608   5.370 -1.1349 -0.0308  0.2087
11125TIP3   OH233310   8.500   4.633   6.947  0.0617  0.1428  0.1980
11125TIP3    H133311   8.508   4.542   6.978  1.3118 -0.0249 -0.5858
11125TIP3    H233312   8.471   4.624   6.856 -0.5247  0.5497  0.3467
11126TIP3   OH233313   7.813   2.428   0.652 -0.1929 -0.5063 -0.4084
11126TIP3    H133314   7.892   2.479   0.668  0.8715 -1.5795 -2.1131
11126TIP3    H233315   7.838   2.337   0.670 -1.1132 -0.8203 -0.6618
11127TIP3   OH233316   0.293   5.862   6.525  0.4323  0.0248 -0.0765
11127TIP3    H133317   0.330   5.774   6.515  0.6871  0.1832 -0.5298
11127TIP3    H233318   0.204   5.847   6.558  0.7405 -0.3716  0.5658
11128TIP3   OH233319   6.424   6.163   0.430  0.6582 -0.1138  0.0273
11128TIP3    H133320   6.371   6.243   0.432 -0.2291 -0.6436 -1.3614
11128TIP3    H233321   6.405   6.118   0.512  0.0394  0.3902  0.1613
11129TIP3   OH233322   5.948   1.942   0.801  0.2357  0.2832 -0.0892
11129TIP3    H133323   5.969   1.928   0.708  0.6669  1.0753 -0.1213
11129TIP3    H233324   6.028   1.917   0.847  0.3102  0.6963  0.0044
11130TIP3   OH233325   2.156   5.305   6.386 -0.1582 -0.2878  0.8597
11130TIP3    H133326   2.149   5.353   6.468 -0.3281 -2.0335  1.8868
11130TIP3    H233327   2.249   5.314   6.361  0.0258 -0.2632  1.5462
11131TIP3   OH233328   4.106   3.708   6.530 -0.0837  0.2314  0.5728
11131TIP3    H133329   4.081   3.666   6.611 -0.0342  1.2121  1.1068
11131TIP3    H233330   4.200   3.723   6.538  0.1651 -0.8364 -0.2138
11132TIP3   OH233331   7.220   7.717   0.186  0.2513 -0.6666 -0.0061
11132TIP3    H133332   7.184   7.745   0.270  0.3610  0.1404 -0.2201
11132TIP3    H233333   7.156   7.748   0.121  0.9386  0.0892 -0.3295
11133TIP3   OH233334   5.093   4.325   5.994 -0.1846  0.3479  0.0622
11133TIP3    H133335   5.109   4.386   6.066  1.4043  0.5611 -0.4556
11133TIP3    H233336   5.140   4.362   5.920  0.3204 -1.2011 -0.4079
11134TIP3   OH233337   1.341   4.315   5.358  0.1352  0.2886 -0.1607
11134TIP3    H133338   1.378   4.336   5.273  0.2506 -0.2362 -0.2422
11134TIP3    H233339   1.362   4.391   5.413  1.5691 -0.1124 -0.1319
11135TIP3   OH233340   6.401   0.177   0.739  0.3422  0.4961  0.3867
11135TIP3    H133341   6.377   0.246   0.676  2.0578 -0.1154 -0.9939
11135TIP3    H233342   6.395   0.220   0.824  0.3670  2.0706 -0.3686
11136TIP3   OH233343   5.663   7.325   0.195  0.1476  0.0876 -0.3966
11136TIP3    H133344   5.754   7.309   0.170  0.2193  0.1958 -0.2040
11136TIP3    H233345   5.612   7.280   0.128  0.3509 -1.1324  0.2681
11137TIP3   OH233346   0.354   0.599   0.076 -0.2209 -0.2187  0.5691
11137TIP3    H133347   0.345   0.693   0.057  0.0106 -0.2725  0.1772
11137TIP3    H233348   0.265   0.567   0.082 -0.3012 -0.1404 -0.1484
11138TIP3   OH233349   0.970   0.868   0.195  0.8675 -0.3703  0.2355
11138TIP3    H133350   0.999   0.796   0.252  0.2566 -0.6358  0.2111
11138TIP3    H233351   0.875   0.870   0.205  1.1242  2.4280  2.6129
11139TIP3   OH233352   3.137   2.727   6.934  0.1669  0.1597  0.0574
11139TIP3    H133353   3.165   2.637   6.952  2.2137  0.9107  0.8328
11139TIP3    H233354   3.063   2.718   6.874 -0.2762 -2.0671  0.8936
11140TIP3   OH233355   3.058   3.845   5.933  0.0803 -0.0072 -0.1890
11140TIP3    H133356   3.085   3.767   5.883 -0.9310  0.7141 -1.9062
11140TIP3    H233357   2.994   3.811   5.996  1.3838 -0.9359  0.6653
11141TIP3   OH233358   0.621   4.508   6.285 -0.0024 -0.0757  0.6520
11141TIP3    H133359   0.653   4.457   6.359  1.7383  0.4575  0.2999
11141TIP3    H233360   0.611   4.444   6.215  0.9346 -0.1637  0.5847
11142TIP3   OH233361   2.631   4.425   5.319  0.0517 -0.4055  0.0518
11142TIP3    H133362   2.562   4.441   5.254  1.4335  1.5147 -0.9721
11142TIP3    H233363   2.622   4.497   5.381  0.7512 -0.4915  0.2531
11143TIP3   OH233364   2.300   3.207   6.317 -0.2261 -0.2307 -0.2587
11143TIP3    H133365   2.310   3.124   6.271  0.1237 -0.1862 -0.2633
11143TIP3    H233366   2.386   3.249   6.311 -0.5797  0.4324 -0.8442
11144TIP3   OH233367   2.465   4.132   6.945 -0.7082  0.2134  0.0699
11144TIP3    H133368   2.488   4.049   6.902 -1.0322  0.1197  0.0744
11144TIP3    H233369   2.500   4.199   6.887  0.7411  0.0584  0.7408
11145TIP3   OH233370   0.343   0.092   0.271 -0.1916 -0.2114  0.0274
11145TIP3    H133371   0.308   0.147   0.200  0.6929 -2.2736 -2.1074
11145TIP3    H233372   0.280   0.020   0.278  0.8610 -1.1680 -0.1985
11146TIP3   OH233373   2.150   3.433   6.358 -0.6237 -0.0504  0.0138
11146TIP3    H133374   2.147   3.479   6.274  2.3142  0.7217  0.2715
11146TIP3    H233375   2.192   3.349   6.337  0.6358  0.3764  0.7979
11147TIP3   OH233376   2.780   3.204   4.622 -0.2787  0.4187 -0.3435
11147TIP3    H133377   2.688   3.229   4.606 -0.2683  1.2137  0.8081
11147TIP3    H233378   2.802   3.246   4.704  1.9512  2.4251 -1.9215
11148TIP3   OH233379   2.009   4.472   5.819  0.4978  0.1357  0.1447
11148TIP3    H133380   2.104   4.480   5.833  0.5883 -0.2264 -0.2466
11148TIP3    H233381   1.988   4.384   5.850  0.9603 -1.2546 -3.2700
11149TIP3   OH233382   3.688   3.083   5.106 -0.4406 -0.1141 -0.1599
11149TIP3    H133383   3.716   3.006   5.056  0.8466  1.3210 -1.6977
11149TIP3    H233384   3.597   3.097   5.080 -0.3422 -0.4610 -0.6996
11150TIP3   OH233385   2.646   3.452   5.296 -0.4412  0.1144 -0.3715
11150TIP3    H133386   2.560   3.409   5.296 -0.3727 -0.0244 -0.7939
11150TIP3    H233387   2.684   3.428   5.381 -0.9167  0.3777 -0.0780
11151TIP3   OH233388   4.992   7.639   1.754  0.5682  0.1956  0.9703
11151TIP3    H133389   5.051   7.652   1.828  0.6206  0.6371  0.8521
11151TIP3    H233390   5.022   7.701   1.687  1.4222 -1.2127  0.0229
11152TIP3   OH233391   2.381   2.677   6.803 -0.3669 -0.2114  0.2467
11152TIP3    H133392   2.465   2.722   6.812 -0.6493  0.0374  1.8203
11152TIP3    H233393   2.371   2.628   6.884 -1.0784 -1.4020 -0.5460
11153TIP3   OH233394   3.748   5.455   4.357 -0.1893  0.3383 -0.8740
11153TIP3    H133395   3.696   5.435   4.279  0.1546  0.3812 -1.1169
11153TIP3    H233396   3.818   5.390   4.356 -1.3357 -0.9303  0.5077
11154TIP3   OH233397   2.483   3.329   6.141  0.4515  0.0621 -0.3569
11154TIP3    H133398   2.504   3.267   6.071 -2.1420 -0.4233 -0.7425
11154TIP3    H233399   2.450   3.406   6.094 -0.7117 -0.0314  0.3059
11155TIP3   OH233400   6.221   7.995   1.391 -0.6831  0.0902  0.4859
11155TIP3    H133401   6.130   7.971   1.372 -0.8308  1.3759 -0.4631
11155TIP3    H233402   6.255   8.029   1.308  1.5676 -3.0875  0.0228
11156TIP3   OH233403   3.300   4.387   6.863 -0.2615 -0.1161 -0.6918
11156TIP3    H133404   3.250   4.455   6.909 -2.2967 -0.2110 -2.6846
11156TIP3    H233405   3.382   4.430   6.839 -0.2594  0.7114  0.7287
11157TIP3   OH233406   8.349   0.174   0.795  0.1015 -0.1176 -0.3937
11157TIP3    H133407   8.410   0.190   0.867  0.4736  1.8091 -1.1221
11157TIP3    H233408   8.402   0.184   0.716 -0.6969 -0.4975 -0.9872
11158TIP3   OH233409   0.578   3.164   1.968 -0.4633  0.4424 -0.3546
11158TIP3    H133410   0.551   3.072   1.974 -0.9204  0.5643 -0.5035
11158TIP3    H233411   0.639   3.177   2.041  0.9101 -0.4274 -1.3270
11159TIP3   OH233412   0.984   1.260   1.153 -0.0783 -0.9238 -0.0738
11159TIP3    H133413   0.958   1.169   1.168 -0.0851 -0.8624  0.2739
11159TIP3    H233414   1.077   1.255   1.132  0.4220 -0.7878  2.0754
11160TIP3   OH233415   1.468   3.820   6.460 -0.4746 -0.3519  0.7044
11160TIP3    H133416   1.557   3.801   6.432  0.2189  1.1066  1.8588
11160TIP3    H233417   1.426   3.734   6.465  0.9367 -1.0721  0.4150
11161TIP3   OH233418   5.101   4.609   4.855  0.0624 -0.7073 -0.8834
11161TIP3    H133419   5.087   4.653   4.772 -0.7986  0.1997 -0.2773
11161TIP3    H233420   5.031   4.642   4.912  1.7245  0.1189  0.7593
11162TIP3   OH233421   2.599   5.837   3.889  0.4553  0.0380 -0.1629
11162TIP3    H133422   2.654   5.912   3.867 -0.1366  0.7363  0.6821
11162TIP3    H233423   2.645   5.793   3.961 -0.0481  0.5910  0.5079
11163TIP3   OH233424   6.833   6.959   0.958 -0.4351 -0.0654 -0.0266
11163TIP3    H133425   6.847   6.944   0.865  0.2531 -1.4497  0.2784
11163TIP3    H233426   6.846   6.873   0.998  0.1630  0.6895  1.4477
11164TIP3   OH233427   1.946   4.671   5.218 -0.0417 -0.5271 -0.3952
11164TIP3    H133428   1.981   4.600   5.164 -0.8321 -0.4188 -1.0623
11164TIP3    H233429   1.862   4.638   5.250 -0.1211 -0.1375 -0.1989
11165TIP3   OH233430   7.634   3.358   0.870  0.2198  1.3420  0.0815
11165TIP3    H133431   7.609   3.273   0.905 -0.0204  0.9245 -1.0943
11165TIP3    H233432   7.557   3.413   0.884  0.8572  1.7599  2.0941
11166TIP3   OH233433   3.036   4.547   6.493 -0.1427  0.2793 -0.2745
11166TIP3    H133434   3.104   4.525   6.429 -0.1280  1.8283 -0.8372
11166TIP3    H233435   3.053   4.639   6.514 -2.5850  0.9496 -1.0931
11167TIP3   OH233436   8.114   2.353   1.475 -0.5332 -0.0530 -0.3673
11167TIP3    H133437   8.132   2.264   1.446  0.2196  0.0143 -0.1425
11167TIP3    H233438   8.092   2.344   1.568  3.4330  0.3573  0.7153
11168TIP3   OH233439   4.641   7.556   2.132 -0.1377 -0.7686  0.0958
11168TIP3    H133440   4.596   7.610   2.067  1.4600  1.0258  0.4407
11168TIP3    H233441   4.572   7.531   2.194 -0.7948  1.5660  0.3657
11169TIP3   OH233442   0.733   1.268   0.176  0.0518  0.6834  0.5032
11169TIP3    H133443   0.716   1.200   0.111  0.4477  1.1625 -0.1037
11169TIP3    H233444   0.823   1.253   0.204  0.6694  1.8739 -0.7506
11170TIP3   OH233445   4.776   4.998   6.723  0.7707  0.3081 -0.4406
11170TIP3    H133446   4.713   5.066   6.746 -1.5393 -2.2456  1.2180
11170TIP3    H233447   4.750   4.971   6.634  1.3213  1.1830 -0.8700
11171TIP3   OH233448   0.524   0.708   0.677 -0.0783  0.0248  0.2937
11171TIP3    H133449   0.475   0.789   0.687 -2.6947 -1.4332 -0.4178
11171TIP3    H233450   0.603   0.734   0.629 -1.9290  1.8023 -1.8878
11172TIP3   OH233451   6.524   1.486   1.794  0.4868 -0.0170 -0.1394
11172TIP3    H133452   6.468   1.425   1.747 -1.7671  1.0393  1.1249
11172TIP3    H233453   6.539   1.443   1.879  1.5518 -0.2546 -0.4368
11173TIP3   OH233454   4.155   7.565   0.927  0.4872  0.0165 -0.0050
11173TIP3    H133455   4.234   7.584   0.875 -1.0090  0.9987 -1.9880
11173TIP3    H233456   4.123   7.651   0.954 -0.5096 -0.3156 -0.1184
11174TIP3   OH233457   2.233   4.337   5.339 -0.4729 -0.0367 -0.8674
11174TIP3    H133458   2.199   4.423   5.362  0.3902  0.2738 -0.7406
11174TIP3    H233459   2.231   4.287   5.421 -0.3384  0.0771 -0.7948
11175TIP3   OH233460   8.369   1.621   1.735  0.6474 -0.3561  0.0122
11175TIP3    H133461   8.345   1.633   1.643  1.4932 -0.8165 -0.2808
11175TIP3    H233462   8.384   1.709   1.768 -3.0438  0.0911  0.6834
11176TIP3   OH233463   6.587   7.191   1.638 -0.0955 -0.8218 -0.1075
11176TIP3    H133464   6.584   7.145   1.555  0.5908 -0.1237 -0.5298
11176TIP3    H233465   6.637   7.133   1.696  1.8577 -0.0857 -0.9906
11177TIP3   OH233466   0.428   4.116   5.672 -0.4858  0.1061  0.1755
11177TIP3    H133467   0.519   4.145   5.672 -0.8506  1.2749 -0.7388
11177TIP3    H233468   0.433   4.020   5.670  0.7255  0.1018  2.1976
11178TIP3   OH233469   2.312   0.595   2.478 -0.3738  0.3811  0.3851
11178TIP3    H133470   2.320   0.523   2.415  1.2611  0.4768  0.4612
11178TIP3    H233471   2.293   0.552   2.561  0.4970  0.0340  0.4114
11179TIP3   OH233472   0.789   1.804   0.903 -0.7951  0.8913  0.6170
11179TIP3    H133473   0.852   1.824   0.834 -0.3080  1.4030  1.2070
11179TIP3    H233474   0.838   1.753   0.967 -2.1015 -2.6285 -1.0274
11180TIP3   OH233475   1.870   6.035   6.792 -0.0629 -0.3118  0.2312
11180TIP3    H133476   1.866   6.100   6.722 -1.0582  1.0864  1.5542
11180TIP3    H233477   1.915   6.080   6.864  0.3903 -1.5219  0.7154
11181TIP3   OH233478   6.323   0.604   0.432 -0.3309  0.0888 -0.0427
11181TIP3    H133479   6.403   0.649   0.459 -0.6016 -0.4607  1.7676
11181TIP3    H233480   6.259   0.674   0.421 -0.2878  0.3223  1.0922
11182TIP3   OH233481   0.254   0.870   0.422  0.2471 -0.4691  0.1472
11182TIP3    H133482   0.331   0.914   0.458  0.3036 -0.6156  0.2055
11182TIP3    H233483   0.191   0.870   0.494 -0.2511  0.7320 -0.2765
11183TIP3   OH233484   5.002   0.255   4.365 -0.6896  0.5088  0.1337
11183TIP3    H133485   5.010   0.161   4.381  1.5465  0.5404 -0.5938
11183TIP3    H233486   4.998   0.295   4.452  1.2591 -0.0627  0.5112
11184TIP3   OH233487   0.204   0.983   1.008 -0.3413  0.2836 -0.0914
11184TIP3    H133488   0.191   1.048   1.077 -0.2334  0.1635  0.0434
11184TIP3    H233489   0.298   0.987   0.989 -0.5181  0.9582 -0.8688
11185TIP3   OH233490   3.940   5.705   6.518 -0.0695 -0.7163 -0.4624
11185TIP3    H133491   4.033   5.724   6.506 -0.9415  3.4974 -1.0036
11185TIP3    H233492   3.911   5.673   6.432  0.0851  1.5521 -1.3847
11186TIP3   OH233493   2.614   5.157   5.457  0.3453  0.3887  0.0417
11186TIP3    H133494   2.669   5.179   5.381  0.5412  2.0077  0.6395
11186TIP3    H233495   2.658   5.198   5.531 -0.2110 -0.6245  0.9425
11187TIP3   OH233496   7.027   7.108   1.984 -0.2989 -0.1871 -0.0606
11187TIP3    H133497   7.064   7.172   1.922 -0.9035  0.0501 -0.1811
11187TIP3    H233498   7.103   7.075   2.032 -0.0664  1.2380  0.5845
11188TIP3   OH233499   3.594   1.612   1.352  0.4153 -0.5640 -0.3933
11188TIP3    H133500   3.532   1.613   1.280  0.6088  0.2803 -0.5528
11188TIP3    H233501   3.675   1.577   1.314  0.2580 -0.9615 -0.3652
11189TIP3   OH233502   4.481   4.184   3.470  0.2901  0.4760 -0.0187
11189TIP3    H133503   4.549   4.249   3.454 -1.0329  1.6845 -0.7992
11189TIP3    H233504   4.399   4.230   3.452 -0.6593 -1.4013 -0.5493
11190TIP3   OH233505   1.827   5.403   6.577 -0.0790  0.3684  0.5840
11190TIP3    H133506   1.735   5.427   6.571 -0.5716 -1.8022 -1.7334
11190TIP3    H233507   1.828   5.326   6.634  0.3094  0.3855  0.6018
11191TIP3   OH233508   1.701   1.553   2.155 -0.0500 -0.0447  0.9982
11191TIP3    H133509   1.658   1.613   2.094 -1.6200 -1.2727  0.8609
11191TIP3    H233510   1.629   1.514   2.205  0.7558 -2.9709  0.0208
11192TIP3   OH233511   2.356   7.079   5.865 -0.2275  0.4636 -0.1446
11192TIP3    H133512   2.295   7.114   5.930  1.3148  1.9240  0.5320
11192TIP3    H233513   2.311   7.090   5.781 -0.8070  1.7190  0.3267
11193TIP3   OH233514   2.663   5.868   5.467  0.2031 -0.1310  0.4074
11193TIP3    H133515   2.724   5.795   5.479  0.0279  0.0160  2.2983
11193TIP3    H233516   2.707   5.943   5.508 -1.0557  0.0580  1.4517
11194TIP3   OH233517   7.944   2.818   0.792  0.2232  0.8520  0.1415
11194TIP3    H133518   8.000   2.752   0.752  0.0749  0.1768  1.0352
11194TIP3    H233519   7.880   2.840   0.724  1.1178  1.0817 -0.6183
11195TIP3   OH233520   3.586   2.573   6.205  0.1069  0.7472  0.6103
11195TIP3    H133521   3.517   2.510   6.227  0.4527  0.7119  1.6174
11195TIP3    H233522   3.646   2.570   6.280  0.9801  1.0856 -0.0734
11196TIP3   OH233523   0.700   0.869   0.922  0.5490  0.3387 -0.7534
11196TIP3    H133524   0.740   0.832   0.844  1.0337 -0.0324 -0.3363
11196TIP3    H233525   0.773   0.905   0.972  0.4608 -0.8559  0.2877
11197TIP3   OH233526   2.263   5.330   6.690  0.6044  0.0805  0.3177
11197TIP3    H133527   2.253   5.245   6.648 -0.9511  0.3248  0.1485
11197TIP3    H233528   2.252   5.312   6.784 -1.0969  0.2874  0.1648
11198TIP3   OH233529   2.282   2.040   5.204 -0.3952  0.6066 -0.2436
11198TIP3    H133530   2.312   1.965   5.256  0.1570  1.6497  0.9802
11198TIP3    H233531   2.341   2.041   5.128  0.8975  0.9699  0.7401
11199TIP3   OH233532   3.247   2.244   5.989 -0.3492 -1.0572  0.2467
11199TIP3    H133533   3.216   2.318   6.042 -0.2297 -0.4963 -0.4607
11199TIP3    H233534   3.326   2.214   6.034 -0.6328 -1.0260  0.7715
11200TIP3   OH233535   2.248   4.167   5.881  0.1382  0.1936 -0.0655
11200TIP3    H133536   2.224   4.075   5.888 -1.5946  0.7822  2.4409
11200TIP3    H233537   2.294   4.186   5.963  1.2935  1.3365 -0.9638
11201TIP3   OH233538   4.324   2.597   6.272 -0.0021  0.0037  0.1966
11201TIP3    H133539   4.260   2.589   6.202  2.7618  2.0833 -2.7020
11201TIP3    H233540   4.375   2.516   6.268  0.4274  0.3078 -0.4815
11202TIP3   OH233541   2.821   2.030   6.827 -0.7843 -0.1986  0.3696
11202TIP3    H133542   2.880   2.047   6.901 -1.5810  1.1107  0.7175
11202TIP3    H233543   2.841   1.941   6.801  1.3101  0.1978  0.5400
11203TIP3   OH233544   2.180   5.036   5.453 -0.1695 -0.1622  0.2444
11203TIP3    H133545   2.250   5.060   5.392 -0.4718  1.2228  0.4086
11203TIP3    H233546   2.164   4.943   5.437  1.5073 -0.4178  0.0015
11204TIP3   OH233547   1.225   1.228   1.004  0.5352 -0.0773 -0.4625
11204TIP3    H133548   1.318   1.239   0.985  0.0693  2.7676 -1.3185
11204TIP3    H233549   1.192   1.176   0.932  1.5892 -1.8497  0.2865
11205TIP3   OH233550   4.747   7.825   0.169 -0.5470 -0.8934  1.0850
11205TIP3    H133551   4.792   7.902   0.134 -0.0163 -1.3640  0.7374
11205TIP3    H233552   4.669   7.816   0.115  0.5546 -1.9555 -0.3585
11206TIP3   OH233553   1.095   2.001   1.020  0.3627  0.4523 -0.2286
11206TIP3    H133554   1.078   1.939   0.950  0.8188 -1.0708  0.9905
11206TIP3    H233555   1.069   2.086   0.984 -0.2424 -0.4343 -1.9087
11207TIP3   OH233556   1.034   1.393   0.580 -0.1568 -0.2828  0.4408
11207TIP3    H133557   1.008   1.456   0.648 -1.0330  0.0629 -0.2046
11207TIP3    H233558   1.115   1.430   0.544  0.4570 -0.6077  1.4746
11208TIP3   OH233559   2.911   4.272   6.239 -0.1401  0.0022 -0.4572
11208TIP3    H133560   2.930   4.357   6.198  0.5433 -0.1284 -0.4250
11208TIP3    H233561   2.931   4.208   6.171 -1.8480 -0.0810 -0.8931
11209TIP3   OH233562   1.609   6.297   6.151  0.0390  0.4382  0.2876
11209TIP3    H133563   1.674   6.232   6.123  0.9979  1.5240 -0.0203
11209TIP3    H233564   1.653   6.349   6.218 -0.0076  2.1122 -0.9535
11210TIP3   OH233565   3.270   1.548   4.750  0.8007  0.2473  0.5408
11210TIP3    H133566   3.324   1.469   4.743  0.1224 -0.0561 -1.5519
11210TIP3    H233567   3.180   1.514   4.750  0.5236  0.9810  0.3333
11211TIP3   OH233568   1.809   3.514   5.463  0.1855 -0.0679 -0.2332
11211TIP3    H133569   1.719   3.483   5.473  0.0746  0.7135  1.4532
11211TIP3    H233570   1.807   3.569   5.385 -0.2779 -1.8375 -1.5119
11212TIP3   OH233571   0.922   3.505   4.602  0.2203  0.0324  0.4118
11212TIP3    H133572   0.852   3.522   4.664 -0.0811  1.2281 -0.2450
11212TIP3    H233573   0.986   3.574   4.618  0.0768  0.4313 -0.6886
11213TIP3   OH233574   4.685   1.933   6.568  0.2998  0.1229 -0.1878
11213TIP3    H133575   4.679   1.980   6.651 -0.7591 -0.9180  0.3373
11213TIP3    H233576   4.708   1.843   6.592 -1.2493 -0.4871 -0.9249
11214TIP3   OH233577   0.215   0.165   1.121 -0.9500 -0.0355  0.2584
11214TIP3    H133578   0.283   0.162   1.054 -0.3990 -3.6520  0.8997
11214TIP3    H233579   0.253   0.218   1.192  1.1795 -1.9499  0.5733
11215TIP3   OH233580   3.198   4.538   6.253  0.0027 -0.0155  0.4486
11215TIP3    H133581   3.213   4.471   6.187 -1.3164  0.4646 -0.3564
11215TIP3    H233582   3.285   4.573   6.272  0.6329 -1.5800  0.4930
11216TIP3   OH233583   4.813   2.397   6.178 -0.4611  0.0518  0.0777
11216TIP3    H133584   4.762   2.346   6.241 -0.5706 -1.2170 -1.0324
11216TIP3    H233585   4.790   2.488   6.198 -0.2906 -0.3061  2.0489
11217TIP3   OH233586   2.515   5.056   6.774  0.0271 -0.2428  0.0112
11217TIP3    H133587   2.597   5.064   6.724  0.0394 -1.5342 -0.1738
11217TIP3    H233588   2.468   4.984   6.733 -2.8093  2.7103 -2.0969
11218TIP3   OH233589   7.489   0.113   1.413 -0.2963  0.1039 -0.2429
11218TIP3    H133590   7.421   0.120   1.480 -0.1731 -1.5263  0.0724
11218TIP3    H233591   7.549   0.046   1.445  0.9285  0.8123 -0.9946
11219TIP3   OH233592   1.277   2.537   1.125  0.5888 -0.3821 -0.0011
11219TIP3    H133593   1.200   2.584   1.156  0.8413 -0.4809  0.7903
11219TIP3    H233594   1.350   2.596   1.143  0.7366 -0.4361 -0.4221
11220TIP3   OH233595   2.033   0.427   0.783  0.2277 -0.1979  0.5344
11220TIP3    H133596   2.005   0.351   0.835  0.5151 -0.9039 -0.3343
11220TIP3    H233597   2.111   0.398   0.737  1.0312  1.0194  1.1119
11221TIP3   OH233598   5.675   4.335   5.965 -0.0602 -0.3333  0.9521
11221TIP3    H133599   5.720   4.315   6.048  1.0435 -1.7873  0.0264
11221TIP3    H233600   5.724   4.409   5.929  0.3333 -0.5938  0.9404
11222TIP3   OH233601   2.187   3.774   6.337 -0.3107 -0.1481 -0.6082
11222TIP3    H133602   2.280   3.784   6.320 -0.2755  0.6084 -0.0133
11222TIP3    H233603   2.145   3.828   6.270 -0.1921  2.3179  1.2277
11223TIP3   OH233604   4.619   5.553   6.754  0.0683  0.6775 -0.1381
11223TIP3    H133605   4.661   5.528   6.671 -0.3345  0.3824 -0.2539
11223TIP3    H233606   4.541   5.601   6.728 -0.0104  0.6637  0.0739
11224TIP3   OH233607   3.508   5.001   6.354  0.3340  0.5034 -0.6377
11224TIP3    H133608   3.464   5.086   6.346 -0.5735  0.2549  1.3883
11224TIP3    H233609   3.599   5.023   6.374 -0.1822  1.0131  1.2270
11225TIP3   OH233610   2.283   3.534   5.032  0.4800  0.0176 -0.5165
11225TIP3    H133611   2.263   3.446   5.002 -1.2931  0.6579 -1.2942
11225TIP3    H233612   2.303   3.583   4.951 -1.4110  1.0244 -0.4012
11226TIP3   OH233613   1.685   0.508   1.437 -0.2181  0.1504  0.2628
11226TIP3    H133614   1.704   0.526   1.345 -1.8698 -0.5291 -0.2329
11226TIP3    H233615   1.626   0.432   1.435  1.0360 -0.9078  1.9572
11227TIP3   OH233616   4.996   6.488   5.692 -1.1444  0.0558 -0.3841
11227TIP3    H133617   5.066   6.521   5.749 -0.5544  1.0073 -1.6230
11227TIP3    H233618   4.946   6.428   5.748 -0.3941  0.7078  1.0338
11228TIP3   OH233619   1.675   2.915   0.067 -0.6252  0.4706  0.7564
11228TIP3    H133620   1.756   2.890   0.111 -1.5416 -0.7228  1.8032
11228TIP3    H233621   1.607   2.864   0.111 -1.5547 -1.0220 -2.2808
11229TIP3   OH233622   4.167   3.005   6.269  0.1909  0.1569 -0.6315
11229TIP3    H133623   4.144   2.987   6.360  0.0309  0.5430 -0.5934
11229TIP3    H233624   4.123   2.936   6.219  2.0869 -1.3679 -0.2284
11230TIP3   OH233625   0.935   1.900   0.696  0.6800 -0.5139  0.2641
11230TIP3    H133626   0.928   1.994   0.678  0.9300 -0.2443  1.5145
11230TIP3    H233627   0.968   1.862   0.614 -1.3031  0.2029 -0.9131
11231TIP3   OH233628   2.889   5.025   4.260 -0.1757  0.1045  0.0720
11231TIP3    H133629   2.952   4.968   4.305 -1.4187 -1.2398  0.1724
11231TIP3    H233630   2.869   4.978   4.179  1.1942  1.9688 -1.3701
11232TIP3   OH233631   7.320   7.905   0.468 -0.1157 -0.0891 -0.3747
11232TIP3    H133632   7.249   7.898   0.404 -0.1908 -1.1281 -0.1874
11232TIP3    H233633   7.307   7.991   0.508  1.0509  1.3844 -3.0427
11233TIP3   OH233634   4.121   3.335   5.024 -0.1253 -0.0813  0.6707
11233TIP3    H133635   4.058   3.404   5.048 -0.2724 -0.4732  1.3891
11233TIP3    H233636   4.067   3.257   5.010  0.1406 -0.2637  0.6674
11234TIP3   OH233637   2.321   5.811   5.436  0.2621 -0.3354  0.1223
11234TIP3    H133638   2.229   5.815   5.464  0.7788 -0.7392  1.8765
11234TIP3    H233639   2.352   5.726   5.466  0.7931 -0.8602 -1.8396
11235TIP3   OH233640   2.588   4.685   5.415 -0.3071  0.0289 -0.2207
11235TIP3    H133641   2.512   4.705   5.469  0.1399 -0.1591  0.4704
11235TIP3    H233642   2.659   4.669   5.477 -0.2844 -2.2820 -0.7935
11236TIP3   OH233643   1.101   5.000   6.674  0.6501  0.1798 -0.5350
11236TIP3    H133644   1.110   5.008   6.769  0.0312 -2.5670 -0.1892
11236TIP3    H233645   1.191   4.986   6.643  0.9269  1.6786 -0.4437
11237TIP3   OH233646   1.783   5.251   5.116  0.0360 -0.2671  0.1083
11237TIP3    H133647   1.822   5.320   5.170 -1.4383 -0.3482  1.3173
11237TIP3    H233648   1.776   5.290   5.029  0.0382  0.7996  0.5798
11238TIP3   OH233649   6.054   6.206   0.625  0.1584 -0.1834 -0.8406
11238TIP3    H133650   6.012   6.215   0.710  0.9638  1.6128 -0.6033
11238TIP3    H233651   6.147   6.218   0.643  0.5458 -1.7170 -1.7083
11239TIP3   OH233652   2.344   4.752   5.937 -0.0506 -0.0143 -0.4507
11239TIP3    H133653   2.279   4.818   5.961  2.4027  2.2221  0.2674
11239TIP3    H233654   2.293   4.671   5.927 -2.6997  1.3294  1.5319
11240TIP3   OH233655   7.840   1.928   2.302 -0.1365  0.0629 -0.0936
11240TIP3    H133656   7.870   1.838   2.299 -0.4268 -0.0193 -0.4840
11240TIP3    H233657   7.749   1.923   2.331  1.0739  0.4954  4.2994
11241TIP3   OH233658   3.734   4.691   6.113  0.3051 -0.3542 -0.3015
11241TIP3    H133659   3.702   4.634   6.043  1.0821  0.8744 -1.6696
11241TIP3    H233660   3.768   4.768   6.068  1.1102  0.3135  1.4064
11242TIP3   OH233661   7.569   7.297   0.415 -0.4738  0.2742  0.2624
11242TIP3    H133662   7.616   7.321   0.335 -0.6973 -1.9759 -0.5763
11242TIP3    H233663   7.477   7.312   0.394 -0.6197 -1.2823 -0.2866
11243TIP3   OH233664   2.093   3.764   5.711  0.2207 -0.3938  0.5127
11243TIP3    H133665   2.095   3.753   5.616  1.9999 -0.9773  0.5895
11243TIP3    H233666   2.078   3.676   5.746  0.4746 -0.3273  0.7943
11244TIP3   OH233667   1.140   7.666   0.058  0.6727 -0.6285  0.4287
11244TIP3    H133668   1.086   7.728   0.107  0.2159  0.6378 -1.6361
11244TIP3    H233669   1.216   7.717   0.030  0.4844 -1.0927 -0.9535
11245TIP3   OH233670   3.487   4.510   5.221  0.0799 -0.5804 -0.1076
11245TIP3    H133671   3.535   4.484   5.142  0.2579  0.8085 -0.4721
11245TIP3    H233672   3.555   4.526   5.286 -0.0705 -1.7923  0.3574
11246TIP3   OH233673   6.698   6.893   0.139  0.7640 -0.2412  0.0773
11246TIP3    H133674   6.699   6.800   0.161  1.5779 -0.7022 -1.8338
11246TIP3    H233675   6.627   6.930   0.192  1.1739 -1.7301  1.6945
11247TIP3   OH233676   2.784   3.763   6.742 -0.0606  0.6501  0.0650
11247TIP3    H133677   2.759   3.680   6.701 -0.6798  1.7880 -1.9203
11247TIP3    H233678   2.797   3.741   6.834  0.7935 -1.8653 -0.6016
11248TIP3   OH233679   0.799   3.924   5.683 -0.4425 -0.2060 -0.0949
11248TIP3    H133680   0.869   3.990   5.679 -1.0386  0.4815  0.5172
11248TIP3    H233681   0.787   3.907   5.776  0.7596 -2.3500 -0.3024
11249TIP3   OH233682   3.488   4.613   5.676 -0.0543 -0.2725  0.1967
11249TIP3    H133683   3.425   4.638   5.744 -1.1150 -2.2872  0.0040
11249TIP3    H233684   3.441   4.628   5.594  0.3120 -0.2223 -0.0047
11250TIP3   OH233685   1.483   0.961   1.657  0.4272  0.1531 -0.0337
11250TIP3    H133686   1.421   0.915   1.599 -0.2745  1.9055 -0.7218
11250TIP3    H233687   1.476   1.053   1.631  1.2066  0.7747  1.8473
11251TIP3   OH233688   1.823   3.077   5.947  0.6141  0.0768 -0.2810
11251TIP3    H133689   1.770   3.021   5.890  2.4902 -1.3247 -0.7012
11251TIP3    H233690   1.899   3.023   5.970  1.5215  1.7890  0.8652
11252TIP3   OH233691   1.769   6.058   6.164 -0.6303  0.2677  0.1600
11252TIP3    H133692   1.841   5.994   6.154  0.4257  1.5878 -0.9893
11252TIP3    H233693   1.727   6.034   6.247 -0.1267 -1.7831 -0.1382
11253TIP3   OH233694   8.365   5.690   6.395 -0.2192  0.1886 -0.1335
11253TIP3    H133695   8.428   5.696   6.467 -0.0948  1.1696 -0.3156
11253TIP3    H233696   8.286   5.653   6.435 -0.0883  0.5529  0.4603
11254TIP3   OH233697   3.950   2.296   0.440  0.2169  0.7493  0.1218
11254TIP3    H133698   3.903   2.347   0.505 -2.2750  2.6135 -2.9663
11254TIP3    H233699   3.896   2.217   0.427  1.2431 -0.1175  1.0179
11255TIP3   OH233700   3.923   4.376   4.060  0.3099 -0.5524  0.0927
11255TIP3    H133701   3.926   4.420   4.145  1.1910  0.0844 -0.2572
11255TIP3    H233702   3.836   4.396   4.025 -0.2259 -1.1993  1.0380
11256TIP3   OH233703   1.201   0.547   2.299 -0.5899  0.5471 -0.0903
11256TIP3    H133704   1.235   0.458   2.294 -0.9180  0.4674 -1.2613
11256TIP3    H233705   1.278   0.602   2.305 -0.3558  0.2234 -0.0963
11257TIP3   OH233706   1.087   1.002   1.452  0.1979 -0.8421  0.4690
11257TIP3    H133707   1.014   0.965   1.401  0.2191 -2.8116  1.7999
11257TIP3    H233708   1.056   0.998   1.543  0.5072  1.8165  0.7186
11258TIP3   OH233709   3.370   2.337   1.745  0.1998  0.1616  0.4929
11258TIP3    H133710   3.442   2.382   1.700  0.1448  0.9078  1.1426
11258TIP3    H233711   3.318   2.299   1.674  0.7582  0.3503 -0.0239
11259TIP3   OH233712   7.619   4.017   5.087 -0.3258  0.3123 -0.2789
11259TIP3    H133713   7.567   4.097   5.084  3.0131  2.5737 -0.3414
11259TIP3    H233714   7.666   4.016   5.004 -0.0864 -1.6033 -0.1448
11260TIP3   OH233715   0.971   1.449   1.806 -0.6284 -0.6461 -0.0167
11260TIP3    H133716   1.025   1.426   1.731  1.6871  1.3003  0.9727
11260TIP3    H233717   0.952   1.366   1.849  2.7225 -1.3019  0.3280
11261TIP3   OH233718   4.503   4.243   6.609  0.0411 -0.6633  0.2716
11261TIP3    H133719   4.537   4.332   6.612  0.5216 -0.8649  1.0806
11261TIP3    H233720   4.556   4.195   6.673 -0.0225 -1.5922 -0.3570
11262TIP3   OH233721   3.929   4.528   6.692 -0.2409 -0.0879 -0.3540
11262TIP3    H133722   3.922   4.619   6.723  1.5527 -0.1905  0.3983
11262TIP3    H233723   3.981   4.534   6.612  0.8381 -0.5750  0.3074
11263TIP3   OH233724   0.023   2.891   0.688 -0.1032 -0.4900 -0.3192
11263TIP3    H133725   0.013   2.797   0.673  0.8311 -0.5807 -0.3872
11263TIP3    H233726   0.020   2.930   0.601  4.2402 -0.9170 -0.7899
11264TIP3   OH233727   1.110   5.198   5.907 -0.0047  0.1218  0.0393
11264TIP3    H133728   1.138   5.236   5.823 -0.3247 -1.2955 -0.7235
11264TIP3    H233729   1.093   5.274   5.963  0.3959  1.0858 -1.1189
11265TIP3   OH233730   6.988   7.986   1.734  0.3037 -0.9307  0.5987
11265TIP3    H133731   6.994   8.060   1.794  0.1912  1.8179 -2.6544
11265TIP3    H233732   7.073   7.942   1.742  1.3790  1.0838  0.7279
11266TIP3   OH233733   7.308   4.464   5.943 -0.0268 -0.3337  0.2381
11266TIP3    H133734   7.242   4.426   6.001  0.9014 -1.9371  0.2643
11266TIP3    H233735   7.390   4.456   5.992  0.2289  1.4556  0.1157
11267TIP3   OH233736   2.995   6.817   6.468  0.5162 -0.5105 -0.2156
11267TIP3    H133737   2.922   6.878   6.479 -1.1850 -2.3892 -0.8317
11267TIP3    H233738   2.980   6.749   6.534  1.7587 -0.8878 -0.3040
11268TIP3   OH233739   1.080   4.952   6.043 -0.2028  0.2574 -0.3112
11268TIP3    H133740   1.072   5.033   5.994 -1.8965 -0.0059 -0.5073
11268TIP3    H233741   1.145   4.900   5.994  0.8990  1.4784 -0.1659
11269TIP3   OH233742   6.537   7.621   1.378  0.1628  0.2828  0.1693
11269TIP3    H133743   6.525   7.713   1.403  2.3024  0.6297 -0.0228
11269TIP3    H233744   6.551   7.575   1.460 -1.8970 -0.0705  0.3617
11270TIP3   OH233745   3.531   3.158   5.368 -0.1354 -0.3328  0.3914
11270TIP3    H133746   3.592   3.141   5.295 -0.3409 -0.0225  0.1426
11270TIP3    H233747   3.586   3.156   5.446 -0.0662 -1.5525  0.3171
11271TIP3   OH233748   5.719   7.589   0.250 -0.1825 -0.3523 -0.4904
11271TIP3    H133749   5.701   7.496   0.234 -0.5855 -0.4718  0.5599
11271TIP3    H233750   5.757   7.621   0.169  0.1646 -1.4933 -0.7870
11272TIP3   OH233751   5.954   5.996   6.927  0.1247  0.7808  0.2469
11272TIP3    H133752   5.949   5.904   6.901  0.0404  0.8555 -0.0035
11272TIP3    H233753   6.037   6.004   6.974 -0.4454  0.3074  1.3543
11273TIP3   OH233754   4.008   6.066   5.649  0.3880 -0.1440  0.3039
11273TIP3    H133755   3.994   6.038   5.740  1.3560 -0.6036  0.3131
11273TIP3    H233756   4.094   6.108   5.649  0.4837 -0.3286 -0.4404
11274TIP3   OH233757   1.464   6.107   6.775  0.0612 -0.5321  0.1709
11274TIP3    H133758   1.447   6.055   6.696 -0.2541  0.0430 -0.1424
11274TIP3    H233759   1.441   6.197   6.750 -1.4045 -0.5638  1.3581
11275TIP3   OH233760   5.061   3.219   6.894  0.0585 -0.1171  0.3785
11275TIP3    H133761   5.052   3.140   6.947  2.1041 -0.6452 -0.0366
11275TIP3    H233762   5.062   3.188   6.804 -0.0941  0.4827  0.1657
11276TIP3   OH233763   1.049   0.604   1.351 -0.0320  0.3270 -0.1503
11276TIP3    H133764   1.084   0.591   1.439  0.0663  1.7138  0.0174
11276TIP3    H233765   1.125   0.593   1.293 -0.0973 -0.5834 -0.0663
11277TIP3   OH233766   1.246   0.106   0.262 -0.0843  0.5070 -0.1790
11277TIP3    H133767   1.159   0.143   0.251  0.0318  1.0255  0.5776
11277TIP3    H233768   1.266   0.119   0.355  1.2808  1.4630 -0.5956
11278TIP3   OH233769   6.898   5.308   5.247  0.1339  0.2009 -0.0715
11278TIP3    H133770   6.929   5.385   5.295  1.5212 -1.3231  1.5067
11278TIP3    H233771   6.953   5.305   5.168 -1.2688  1.9379 -1.1808
11279TIP3   OH233772   7.586   1.876   0.365  0.4187 -0.0041 -0.0264
11279TIP3    H133773   7.590   1.858   0.271 -0.7770 -1.5716  0.1814
11279TIP3    H233774   7.676   1.890   0.392  1.0049 -1.7155 -1.0317
11280TIP3   OH233775   2.977   3.988   6.642 -0.6595  0.2944 -0.0093
11280TIP3    H133776   2.932   3.967   6.724 -0.8458 -0.5866 -0.3345
11280TIP3    H233777   3.060   3.940   6.647 -0.6816  0.2174 -0.3384
11281TIP3   OH233778   5.695   7.795   0.898 -0.2923  0.6095 -0.0025
11281TIP3    H133779   5.641   7.722   0.928 -1.9555  2.2402  1.0633
11281TIP3    H233780   5.760   7.806   0.967  0.5999 -0.4910 -0.6462
11282TIP3   OH233781   0.214   0.168   0.049  0.4793  0.0238 -0.3517
11282TIP3    H133782   0.139   0.113   0.025  0.5338  0.1096 -0.7247
11282TIP3    H233783   0.241   0.208  -0.033  1.9739 -1.3014 -0.5457
11283TIP3   OH233784   7.604   1.520   0.040 -0.2819 -0.3804 -0.6223
11283TIP3    H133785   7.675   1.562  -0.009  0.7199 -0.3827  0.7972
11283TIP3    H233786   7.527   1.572   0.020  0.3905  0.4251 -1.1380
11284TIP3   OH233787   0.009   1.563   0.907 -0.1840 -0.4176 -0.0021
11284TIP3    H133788   0.061   1.509   0.848  0.7717  0.2391  0.2179
11284TIP3    H233789   0.055   1.648   0.908 -1.5401  0.3224 -0.1914
11285TIP3   OH233790   6.950   7.003   0.407  0.2272 -0.1234 -0.1487
11285TIP3    H133791   7.004   7.044   0.475  0.6939  0.4389 -0.8458
11285TIP3    H233792   7.013   6.962   0.347 -0.2477 -2.0511  0.6453
11286TIP3   OH233793   1.576   0.511   0.915  0.8235  0.3471 -0.2906
11286TIP3    H133794   1.503   0.547   0.865  0.5993 -0.7578 -0.7799
11286TIP3    H233795   1.653   0.528   0.861  1.1666  2.9053  0.9371
11287TIP3   OH233796   3.927   4.465   6.062 -0.0407  0.1810  0.2405
11287TIP3    H133797   3.933   4.518   5.982  0.4334 -0.5764 -0.2328
11287TIP3    H233798   4.018   4.443   6.083 -0.2732 -1.0077  0.0473
11288TIP3   OH233799   4.034   4.222   5.709 -0.2183  0.1923 -0.2010
11288TIP3    H133800   4.048   4.148   5.650 -2.7131 -0.5143  0.0354
11288TIP3    H233801   3.954   4.200   5.756 -0.1731  2.3709  0.9597
11289TIP3   OH233802   5.807   3.777   6.611  0.0558 -0.6044 -0.2538
11289TIP3    H133803   5.729   3.737   6.571 -1.8588  1.3042  1.4019
11289TIP3    H233804   5.872   3.707   6.611 -1.3259 -1.9821 -2.5573
11290TIP3   OH233805   6.285   4.558   6.613 -0.3232 -0.0221  0.2964
11290TIP3    H133806   6.236   4.502   6.553 -0.5718  0.1675  0.3195
11290TIP3    H233807   6.217   4.606   6.661 -0.0893  1.3459 -0.7009
11291TIP3   OH233808   3.637   4.594   4.558 -0.0192 -0.1862 -0.5536
11291TIP3    H133809   3.587   4.528   4.607  1.9421 -1.6205 -0.4144
11291TIP3    H233810   3.691   4.637   4.624 -0.2828  0.6210 -0.8626
11292TIP3   OH233811   7.627   0.849   0.633 -0.4464 -0.1822 -0.3268
11292TIP3    H133812   7.690   0.907   0.676 -1.5667  2.4012 -2.0487
11292TIP3    H233813   7.677   0.770   0.612  1.4358  0.6372  0.9687
11293TIP3   OH233814   2.540   4.332   6.190  0.6438 -0.2908 -0.4533
11293TIP3    H133815   2.588   4.249   6.185  0.3996 -0.3425 -2.8604
11293TIP3    H233816   2.600   4.397   6.154 -0.0739  0.1060 -0.9701
11294TIP3   OH233817   1.345   5.298   6.145  0.1726  0.2991  0.0905
11294TIP3    H133818   1.249   5.305   6.151  0.0554 -2.1122  1.8752
11294TIP3    H233819   1.365   5.322   6.055 -2.3601 -1.2603 -0.9394
11295TIP3   OH233820   7.754   0.211   0.567  0.1575 -0.5622 -0.1711
11295TIP3    H133821   7.839   0.233   0.530  0.0982 -0.4180 -0.2245
11295TIP3    H233822   7.718   0.295   0.597  0.0248 -0.6183 -0.1699
11296TIP3   OH233823   4.202   5.112   6.748 -0.2485  0.2619  0.2277
11296TIP3    H133824   4.157   5.112   6.833 -0.6769 -0.0030  0.0058
11296TIP3    H233825   4.131   5.110   6.684  0.0764  0.4920 -0.1373
11297TIP3   OH233826   1.684   2.499   6.903  0.4014 -0.5049  0.4277
11297TIP3    H133827   1.648   2.426   6.953  2.7557 -1.2378  1.1223
11297TIP3    H233828   1.659   2.577   6.952 -0.5113 -0.9573  0.6936
11298TIP3   OH233829   2.993   3.484   6.036 -1.1823 -0.2990  0.5565
11298TIP3    H133830   3.004   3.431   6.115  0.6468 -2.8278 -1.3347
11298TIP3    H233831   3.033   3.569   6.059 -0.2977 -1.1283  2.2009
11299TIP3   OH233832   3.952   5.352   6.900 -0.5619  0.5364  0.1936
11299TIP3    H133833   3.959   5.363   6.805 -0.3610  0.2010  0.1690
11299TIP3    H233834   3.923   5.262   6.912 -0.7852  0.6411  0.4454
11300TIP3   OH233835   0.788   0.346   0.167  0.6559  0.0588 -0.3563
11300TIP3    H133836   0.756   0.357   0.077 -1.4651 -1.7518  0.1143
11300TIP3    H233837   0.746   0.417   0.216 -1.2201 -1.1611 -0.1192
11301TIP3   OH233838   1.378   0.562   0.719  0.0255 -0.3221  0.5901
11301TIP3    H133839   1.352   0.546   0.629  0.2655  2.2273  0.0150
11301TIP3    H233840   1.295   0.576   0.766 -0.0164  0.2256  0.3582
11302TIP3   OH233841   8.113   7.791   0.186  0.2383 -0.2423 -0.0121
11302TIP3    H133842   8.175   7.864   0.179 -0.7446  0.8875  2.4625
11302TIP3    H233843   8.070   7.787   0.101  3.5844 -0.9899 -1.7663
11303TIP3   OH233844   4.384   4.236   5.379  0.1418 -0.2832  0.3162
11303TIP3    H133845   4.373   4.322   5.337  2.7323 -0.0534  0.0311
11303TIP3    H233846   4.334   4.176   5.324  0.3908  0.6358 -0.9392
11304TIP3   OH233847   2.091   2.980   6.498  0.2401  0.3656 -0.2327
11304TIP3    H133848   2.167   3.034   6.476  1.1768 -0.5773  0.6644
11304TIP3    H233849   2.050   3.025   6.571 -0.0797  0.8819 -0.7239
11305TIP3   OH233850   3.771   4.916   5.849  0.2214  0.0026  0.8279
11305TIP3    H133851   3.795   4.827   5.825  1.7719  0.7461 -0.4589
11305TIP3    H233852   3.731   4.953   5.771 -1.4808  0.0705  1.7189
11306TIP3   OH233853   4.896   3.173   6.308 -0.2092 -0.7092  0.3416
11306TIP3    H133854   4.930   3.238   6.370 -0.5078 -0.5771  0.3684
11306TIP3    H233855   4.801   3.174   6.322 -0.1284 -1.8570  1.0318
11307TIP3   OH233856   3.988   4.344   6.889 -0.5141 -0.6467  0.3539
11307TIP3    H133857   3.957   4.371   6.803  1.3886  1.6503  0.3426
11307TIP3    H233858   3.997   4.425   6.938  0.0527 -1.7636  2.1608
11308TIP3   OH233859   1.928   3.070   5.472 -0.0579  0.1291 -0.2470
11308TIP3    H133860   1.939   2.987   5.424  0.2371  0.4097 -0.6770
11308TIP3    H233861   2.000   3.071   5.534  0.7073  0.6518 -1.1220
11309TIP3   OH233862   5.551   4.555   6.412 -0.2408 -0.1505 -0.2657
11309TIP3    H133863   5.560   4.575   6.319 -0.6730  0.8166 -0.1034
11309TIP3    H233864   5.610   4.617   6.455 -0.5057 -0.1865  0.1510
11310TIP3   OH233865   4.436   7.730   1.152 -0.0898  0.0485  0.2352
11310TIP3    H133866   4.518   7.708   1.197  0.8572  2.2762 -0.3254
11310TIP3    H233867   4.440   7.826   1.141 -3.2432  0.3187  1.1181
11311TIP3   OH233868   3.159   6.172   6.660  0.0971  0.1806 -0.3286
11311TIP3    H133869   3.131   6.203   6.747 -0.1451  1.6733 -0.9143
11311TIP3    H233870   3.151   6.077   6.665  0.5521  0.2138  1.4461
11312TIP3   OH233871   1.445   7.522   4.912  0.0271  0.0789  0.4223
11312TIP3    H133872   1.412   7.611   4.912 -1.1288 -0.3317 -0.2279
11312TIP3    H233873   1.418   7.486   4.997 -0.6223 -0.0391  0.1714
11313TIP3   OH233874   4.188   4.821   6.498  0.5480  0.4943 -0.5549
11313TIP3    H133875   4.189   4.794   6.590 -1.1447  1.8153 -0.1245
11313TIP3    H233876   4.280   4.840   6.478  1.1538 -1.2990  0.3967
11314TIP3   OH233877   7.426   3.670   1.377  0.4596 -0.3024 -0.6493
11314TIP3    H133878   7.510   3.624   1.384 -0.0299 -1.1395 -0.1997
11314TIP3    H233879   7.363   3.613   1.422 -0.2675  0.5348 -0.5839
11315TIP3   OH233880   2.702   1.936   5.288  0.2866  0.7137  0.0105
11315TIP3    H133881   2.774   1.904   5.343  0.7945 -2.1237 -2.2297
11315TIP3    H233882   2.646   1.860   5.275 -0.3025  1.5549 -2.6347
11316TIP3   OH233883   3.275   6.501   6.171 -0.1061  0.0724 -0.1165
11316TIP3    H133884   3.210   6.471   6.107 -1.0790 -1.5467  1.5741
11316TIP3    H233885   3.224   6.521   6.249  1.1986  0.9479  0.5202
11317TIP3   OH233886   1.385   0.266   0.732 -0.0758  0.2589  0.1517
11317TIP3    H133887   1.381   0.218   0.815  1.2470  1.5715  0.9938
11317TIP3    H233888   1.426   0.349   0.754  3.1727 -0.5606 -2.3386
11318TIP3   OH233889   3.498   6.123   6.832  0.6945  0.0169  0.2923
11318TIP3    H133890   3.436   6.059   6.867  0.3686  0.6737  0.9557
11318TIP3    H233891   3.502   6.105   6.739 -0.3505 -0.1635  0.2750
11319TIP3   OH233892   3.808   6.036   5.484 -0.1488  0.0584 -0.0731
11319TIP3    H133893   3.744   6.107   5.480 -0.0928  0.0635 -0.9791
11319TIP3    H233894   3.887   6.078   5.520  0.4667  0.9109 -2.3592
11320TIP3   OH233895   3.811   5.950   6.513  0.9908 -0.5912  0.4709
11320TIP3    H133896   3.745   5.935   6.446  1.3112  0.9393 -0.2058
11320TIP3    H233897   3.852   5.864   6.526  0.2798 -1.1009 -0.5893
11321TIP3   OH233898   3.711   6.248   6.974  0.1029 -0.4460 -0.4474
11321TIP3    H133899   3.634   6.228   6.921  1.3507 -1.2056 -2.0203
11321TIP3    H233900   3.765   6.303   6.918  0.8668 -0.2137  0.5069
11322TIP3   OH233901   7.012   7.914   0.719  0.0144 -0.0628 -0.2013
11322TIP3    H133902   6.941   7.877   0.771  0.1569  1.4555  1.1138
11322TIP3    H233903   7.084   7.924   0.781  1.7743 -2.5732 -1.7435
11323TIP3   OH233904   3.288   6.041   5.081  0.3085  1.2781 -0.8302
11323TIP3    H133905   3.372   6.009   5.048 -0.8913 -1.7581 -1.1157
11323TIP3    H233906   3.289   6.017   5.174  0.0246  1.8377 -0.6839
11324TIP3   OH233907   1.729   3.774   6.382  0.0530  0.4338  0.1599
11324TIP3    H133908   1.793   3.702   6.378 -1.0917 -0.6791  1.5529
11324TIP3    H233909   1.776   3.849   6.343  0.7912 -1.3758 -2.6413
11325TIP3   OH233910   4.115   3.276   6.019  0.0321  0.3454 -0.3855
11325TIP3    H133911   4.046   3.295   6.083  0.9932 -1.1102  1.1473
11325TIP3    H233912   4.190   3.325   6.050  0.8784 -1.3868  0.3606
11326TIP3   OH233913   3.652   6.339   4.242 -0.1036 -0.3158  0.1583
11326TIP3    H133914   3.638   6.251   4.207  0.3846  0.0525 -0.9720
11326TIP3    H233915   3.624   6.397   4.172  1.1493  0.4339  0.2790
11327TIP3   OH233916   5.868   6.269   0.832  0.1483 -0.4075 -0.0553
11327TIP3    H133917   5.799   6.304   0.888 -0.0567  1.2466 -1.3016
11327TIP3    H233918   5.822   6.231   0.758  0.5471  0.4854 -0.7748
11328TIP3   OH233919   2.618   6.804   6.328  0.1328  0.1608 -0.3607
11328TIP3    H133920   2.690   6.864   6.348 -1.4803  2.2217 -0.6647
11328TIP3    H233921   2.578   6.840   6.249 -0.9351 -1.2525 -0.4799
11329TIP3   OH233922   1.888   4.193   5.292  0.3675  0.3168 -0.4044
11329TIP3    H133923   1.851   4.235   5.213  1.3836 -0.2794 -1.2086
11329TIP3    H233924   1.967   4.150   5.261  0.0736 -1.0457  0.6949
11330TIP3   OH233925   2.431   3.753   5.234 -0.1713 -0.6032  0.3309
11330TIP3    H133926   2.431   3.787   5.145 -1.1258  0.5311  0.7513
11330TIP3    H233927   2.420   3.659   5.224  0.0285 -0.5163 -0.7600
11331TIP3   OH233928   3.717   4.964   3.788 -0.4224  0.1829 -0.0329
11331TIP3    H133929   3.807   4.997   3.793 -0.2149 -0.5024  0.8781
11331TIP3    H233930   3.663   5.043   3.785  0.1362  0.6044  0.8327
11332TIP3   OH233931   0.847   1.096   0.542  0.0370 -0.1470 -0.4152
11332TIP3    H133932   0.842   1.159   0.615 -0.4266  0.8883 -1.3272
11332TIP3    H233933   0.932   1.114   0.501  0.2724 -0.6919 -0.1737
11333TIP3   OH233934   2.129   6.322   4.958 -0.4169  0.1214  0.2584
11333TIP3    H133935   2.196   6.378   4.997 -1.6814  1.6325  0.2605
11333TIP3    H233936   2.099   6.266   5.030  0.0314  0.2151  0.5197
11334TIP3   OH233937   2.662   2.997   5.707 -0.4924 -0.7495 -0.7169
11334TIP3    H133938   2.739   3.045   5.676 -0.2406 -0.3096  0.5707
11334TIP3    H233939   2.604   3.065   5.741 -1.6028 -1.0482 -1.9554
11335TIP3   OH233940   2.288   6.719   4.532 -0.2117 -0.2863 -0.1093
11335TIP3    H133941   2.326   6.656   4.470 -1.4090 -1.5877  0.4330
11335TIP3    H233942   2.349   6.793   4.532  1.6407 -1.7704 -0.1928
11336TIP3   OH233943   7.797   0.472   0.877  0.0338  0.2450 -0.1010
11336TIP3    H133944   7.715   0.484   0.829  0.9527 -0.2098 -1.8155
11336TIP3    H233945   7.803   0.378   0.892 -1.2504  0.5524  2.7746
11337TIP3   OH233946   2.813   4.258   5.896  0.1924  0.5553 -0.1253
11337TIP3    H133947   2.795   4.227   5.807 -0.0273  0.4337 -0.0365
11337TIP3    H233948   2.732   4.298   5.925  0.0378 -0.0602  0.2974
11338TIP3   OH233949   8.334   0.925   0.166 -0.1525  0.1508  0.3110
11338TIP3    H133950   8.289   0.848   0.133 -0.7664  1.0272 -0.9644
11338TIP3    H233951   8.397   0.948   0.097  1.6261 -0.5183  1.6622
11339TIP3   OH233952   8.301   5.639   5.702  0.5140  0.1108  0.5369
11339TIP3    H133953   8.238   5.683   5.759 -1.1537 -1.8856  0.2837
11339TIP3    H233954   8.295   5.687   5.619 -1.9495 -1.0449 -0.0251
11340TIP3   OH233955   6.572   7.127   0.581  0.5963 -0.8532 -0.2512
11340TIP3    H133956   6.662   7.124   0.612  0.9191  0.9765 -0.9173
11340TIP3    H233957   6.541   7.214   0.607  0.2491  0.0015 -3.2781
11341TIP3   OH233958   5.258   7.377   1.718 -0.4790  0.2841 -0.0125
11341TIP3    H133959   5.320   7.328   1.773  1.4290 -0.4841 -2.7522
11341TIP3    H233960   5.289   7.467   1.721  1.1682 -0.1958 -1.8381
11342TIP3   OH233961   4.731   6.189   6.037  0.6589  0.1259 -0.0490
11342TIP3    H133962   4.778   6.106   6.046 -1.1736 -1.0210 -0.9597
11342TIP3    H233963   4.735   6.228   6.125  2.5436 -0.3467  0.0982
11343TIP3   OH233964   5.212   4.698   6.015  0.0399  0.1144  0.0424
11343TIP3    H133965   5.294   4.673   5.972  0.7726 -1.2639  2.2061
11343TIP3    H233966   5.237   4.720   6.105 -1.7592  1.1116  0.3315
11344TIP3   OH233967   4.387   1.264   5.251 -0.0136  0.0646 -0.5267
11344TIP3    H133968   4.354   1.174   5.248 -1.4228  0.5067  1.0813
11344TIP3    H233969   4.361   1.297   5.337  0.4665  2.0223 -1.0952
11345TIP3   OH233970   5.929   6.233   4.713  0.6158 -0.2937 -0.7112
11345TIP3    H133971   5.843   6.208   4.678 -0.2934  2.0909 -0.3197
11345TIP3    H233972   5.916   6.234   4.808  0.7687  0.9982 -0.6905
11346TIP3   OH233973   3.786   4.036   6.428  0.0575  0.1383  0.2608
11346TIP3    H133974   3.876   4.023   6.459 -0.0564 -0.2453  0.4307
11346TIP3    H233975   3.733   4.034   6.508 -0.2062 -0.5534  0.0681
11347TIP3   OH233976   5.673   5.528   5.327  0.1813  0.1244 -0.0261
11347TIP3    H133977   5.579   5.529   5.306  0.2342  1.1135 -0.2408
11347TIP3    H233978   5.687   5.444   5.369 -0.7706 -0.1189 -0.1810
11348TIP3   OH233979   5.097   2.686   6.383  0.6504  0.3096 -0.2475
11348TIP3    H133980   5.058   2.772   6.392 -0.5388 -0.1687 -0.7168
11348TIP3    H233981   5.174   2.688   6.441 -0.7076  0.8780  1.5715
11349TIP3   OH233982   1.977   1.174   0.448  0.2070  0.1444  0.3549
11349TIP3    H133983   1.948   1.248   0.500  0.5561 -0.4661  1.4299
11349TIP3    H233984   1.922   1.177   0.369 -1.6730 -0.0741  1.6338
11350TIP3   OH233985   5.665   5.668   4.161 -0.2244  0.0481 -0.1803
11350TIP3    H133986   5.674   5.663   4.256  1.4236 -0.1421 -0.3285
11350TIP3    H233987   5.643   5.760   4.144 -1.3923 -0.1112  0.4424
11351TIP3   OH233988   4.022   1.976   0.559 -0.3525 -0.0603  0.2176
11351TIP3    H133989   3.953   2.033   0.593  1.6920  3.2664 -0.9787
11351TIP3    H233990   4.102   2.007   0.600  0.9665 -1.3666 -1.2930
11352TIP3   OH233991   3.626   4.306   6.486  0.4165  0.4835  0.4290
11352TIP3    H133992   3.694   4.262   6.434 -0.6816 -3.0385  1.8704
11352TIP3    H233993   3.547   4.300   6.432  0.1625  0.3230  0.8201
11353TIP3   OH233994   4.964   6.052   6.159 -0.1595  0.4302 -0.2489
11353TIP3    H133995   5.005   5.967   6.146 -0.4302  0.2027  0.3626
11353TIP3    H233996   4.948   6.057   6.253  0.5721  1.4881 -0.1711
11354TIP3   OH233997   2.263   0.776   0.439 -0.8258 -0.2669  0.2193
11354TIP3    H133998   2.289   0.856   0.393  0.9890 -1.3550 -0.7303
11354TIP3    H233999   2.246   0.804   0.529  0.6528  1.0532  0.1199
11355TIP3   OH234000   5.418   1.070   6.269  0.1231 -0.0783 -0.0663
11355TIP3    H134001   5.450   1.128   6.339 -0.6798  0.1540  0.1163
11355TIP3    H234002   5.497   1.041   6.224  0.6103  0.2663  0.5525
11356TIP3   OH234003   3.394   3.791   4.958 -0.3113 -0.1127 -0.5627
11356TIP3    H134004   3.482   3.802   4.995 -0.8352  0.1866  0.6220
11356TIP3    H234005   3.376   3.874   4.913 -1.1741  1.0081  1.7681
11357TIP3   OH234006   4.984   5.637   5.029  0.2705  0.1934  0.2356
11357TIP3    H134007   4.931   5.604   5.102 -0.2303  3.6989  1.5571
11357TIP3    H234008   5.032   5.561   4.998  0.6578 -1.3706  4.3897
11358TIP3   OH234009   5.666   3.795   3.496  0.1343 -0.1078  0.1701
11358TIP3    H134010   5.624   3.753   3.421 -1.6547  2.3755 -0.3107
11358TIP3    H234011   5.719   3.865   3.457  0.2078  0.3832  1.1329
11359TIP3   OH234012   5.409   3.714   6.643  0.5279 -0.0475  0.3579
11359TIP3    H134013   5.422   3.773   6.718 -1.7137 -0.2603  0.9296
11359TIP3    H234014   5.402   3.772   6.568 -0.0734  0.3382  0.7048
11360TIP3   OH234015   4.474   5.371   4.924 -0.0054 -0.2913 -0.0353
11360TIP3    H134016   4.465   5.308   4.996  0.1486 -1.4605 -1.0321
11360TIP3    H234017   4.386   5.404   4.910 -0.6956 -2.7147 -1.6713
11361TIP3   OH234018   5.303   4.130   4.206  0.3361 -0.1056  0.0628
11361TIP3    H134019   5.386   4.174   4.227 -0.9121  2.3054  0.0697
11361TIP3    H234020   5.264   4.185   4.137 -1.9899 -0.3160  1.1845
11362TIP3   OH234021   5.778   5.838   5.898 -0.2597 -0.1809 -0.4122
11362TIP3    H134022   5.818   5.752   5.888  1.5350  0.1941  2.7808
11362TIP3    H234023   5.825   5.895   5.837  1.5857 -0.5855  0.5744
11363TIP3   OH234024   3.505   3.397   1.015  0.0217 -0.3366 -0.3865
11363TIP3    H134025   3.432   3.456   1.033  0.4166 -0.1206  0.5171
11363TIP3    H234026   3.559   3.445   0.952 -1.0214 -0.8323 -1.6962
11364TIP3   OH234027   3.194   4.488   4.989  0.2244 -0.1575  0.3753
11364TIP3    H134028   3.173   4.561   4.931 -0.3264 -0.2693  0.4359
11364TIP3    H234029   3.188   4.525   5.077  0.7083 -0.0791  0.3758
11365TIP3   OH234030   4.720   5.376   5.466  0.3592  0.3574 -0.1214
11365TIP3    H134031   4.625   5.390   5.465  0.2185 -0.4843  1.4401
11365TIP3    H234032   4.751   5.425   5.542  0.9171 -1.0210  0.5481
11366TIP3   OH234033   6.377   4.857   6.801 -0.4759 -0.0728  0.1258
11366TIP3    H134034   6.403   4.851   6.709 -0.7184 -1.4059  0.1487
11366TIP3    H234035   6.397   4.771   6.838 -0.5497  0.3938  1.2843
11367TIP3   OH234036   6.829   7.311   0.433 -0.2712 -0.5042 -0.1787
11367TIP3    H134037   6.837   7.286   0.341  3.2542 -0.0594 -0.0413
11367TIP3    H234038   6.819   7.228   0.480  1.2141 -0.9869 -0.6844
11368TIP3   OH234039   5.930   4.089   5.794 -0.5774  0.2105 -0.1739
11368TIP3    H134040   5.996   4.022   5.778 -0.9656 -0.3251  0.4591
11368TIP3    H234041   5.975   4.154   5.848 -0.6751 -0.3347  0.5688
11369TIP3   OH234042   4.610   5.135   5.263 -0.4808  0.7807  0.3081
11369TIP3    H134043   4.558   5.142   5.183 -1.0521  2.1502  0.7774
11369TIP3    H234044   4.563   5.070   5.316 -1.0943  1.1771  0.2614
11370TIP3   OH234045   1.940   1.998   0.747 -0.3237 -0.4653 -0.1585
11370TIP3    H134046   2.010   1.937   0.770  0.0340 -0.2218 -0.5854
11370TIP3    H234047   1.969   2.082   0.782 -0.6114 -0.4543  0.0517
11371TIP3   OH234048   4.054   5.146   4.888  0.0394  0.2637 -0.1688
11371TIP3    H134049   4.114   5.202   4.839  0.0829 -0.4391 -0.9318
11371TIP3    H234050   4.030   5.077   4.827  0.0799 -0.6255  0.7883
11372TIP3   OH234051   2.988   4.687   5.546  0.2284  0.3241  0.3426
11372TIP3    H134052   2.894   4.691   5.564  0.2223 -1.4806  0.8264
11372TIP3    H234053   3.026   4.756   5.600 -0.7479  0.6371  0.6406
11373TIP3   OH234054   5.731   4.276   4.732  0.5336  0.2890  0.0486
11373TIP3    H134055   5.758   4.246   4.819 -0.0567  0.5454  0.3200
11373TIP3    H234056   5.636   4.282   4.737  0.4789  0.0916 -0.6848
11374TIP3   OH234057   6.969   5.978   6.270  0.2772 -0.1651  0.2467
11374TIP3    H134058   6.973   6.059   6.320 -1.0314 -1.3401  2.3175
11374TIP3    H234059   7.054   5.936   6.284  0.7407  0.5528 -0.3646
11375TIP3   OH234060   2.686   2.725   0.391  0.3545  0.1706  0.6671
11375TIP3    H134061   2.607   2.677   0.367  0.3832 -0.7395  2.3760
11375TIP3    H234062   2.694   2.792   0.323 -1.0006 -0.7162 -0.4074
11376TIP3   OH234063   6.154   7.725   0.076  0.3459  0.1665 -0.2382
11376TIP3    H134064   6.112   7.674   0.146 -0.5545 -1.2094 -1.7374
11376TIP3    H234065   6.237   7.680   0.061  1.1913  1.3253  0.9285
11377TIP3   OH234066   4.130   5.568   6.310  0.0385  0.3243  0.2971
11377TIP3    H134067   4.118   5.554   6.216 -0.3541 -0.9479  0.5244
11377TIP3    H234068   4.130   5.663   6.320 -0.6874  0.4679 -0.8991
11378TIP3   OH234069   4.814   4.272   5.920  0.3007  0.2926 -1.2345
11378TIP3    H134070   4.839   4.218   5.845  0.4135  1.3729 -1.9711
11378TIP3    H234071   4.892   4.323   5.941  0.6013 -0.7310  0.2726
11379TIP3   OH234072   3.048   0.630   0.512  0.0276  0.0793 -0.2528
11379TIP3    H134073   3.110   0.572   0.557  2.1027  1.3623 -1.4033
11379TIP3    H234074   2.968   0.578   0.506  0.3368 -0.8859  3.0147
11380TIP3   OH234075   1.605   1.292   1.225 -0.4973 -0.7311 -0.1461
11380TIP3    H134076   1.576   1.277   1.315 -0.2453 -0.4715 -0.0216
11380TIP3    H234077   1.652   1.213   1.201  2.6383  0.6140  1.2180
11381TIP3   OH234078   4.296   2.775   5.076  0.0265 -0.5439 -0.0643
11381TIP3    H134079   4.214   2.809   5.039  0.9104  0.5724 -1.0211
11381TIP3    H234080   4.268   2.724   5.152 -1.3651  2.0296  1.2231
11382TIP3   OH234081   6.067   5.710   5.591 -0.0992  0.1156 -0.2537
11382TIP3    H134082   6.133   5.662   5.541 -1.2004 -0.9853 -0.7053
11382TIP3    H234083   6.026   5.768   5.526  0.5845  0.9615  0.0760
11383TIP3   OH234084   3.744   5.472   5.149  0.0832  0.2451 -0.6727
11383TIP3    H134085   3.832   5.436   5.140  0.3923  1.2528 -1.9268
11383TIP3    H234086   3.695   5.435   5.076 -0.9783 -1.5213  0.9091
11384TIP3   OH234087   4.024   5.612   6.059  0.1001  0.2322 -0.0412
11384TIP3    H134088   3.997   5.549   5.993 -0.2047  0.0406  0.2619
11384TIP3    H234089   4.069   5.681   6.010 -0.2321  0.1537 -0.4581
11385TIP3   OH234090   1.553   1.285   0.153 -0.9336  0.2401  0.1836
11385TIP3    H134091   1.480   1.239   0.112  0.4824 -0.1333 -1.9590
11385TIP3    H234092   1.544   1.375   0.124  1.2216 -0.4109 -2.6860
11386TIP3   OH234093   3.114   3.127   6.495 -0.1348 -0.2835 -0.4597
11386TIP3    H134094   3.148   3.077   6.421 -0.1876  1.1883 -1.4950
11386TIP3    H234095   3.191   3.144   6.550 -0.1497 -1.6431 -0.0046
11387TIP3   OH234096   4.228   5.462   4.803 -0.3309 -0.8922  0.0946
11387TIP3    H134097   4.183   5.520   4.741 -1.0087 -1.1730  0.3131
11387TIP3    H234098   4.320   5.464   4.776 -0.5192 -0.5213 -0.5283
11388TIP3   OH234099   4.180   0.214   0.206 -0.3796 -0.3956  0.1755
11388TIP3    H134100   4.268   0.209   0.242 -1.0913 -1.2789  1.8246
11388TIP3    H234101   4.168   0.132   0.157 -0.4104 -0.4316  0.2431
11389TIP3   OH234102   1.376   1.651   0.281  0.0085 -0.2370  0.1411
11389TIP3    H134103   1.295   1.704   0.287  0.0504 -0.0740 -0.7556
11389TIP3    H234104   1.380   1.623   0.190  0.4636 -1.0597  0.4096
11390TIP3   OH234105   5.482   4.385   6.897  0.2349  0.0126  0.2264
11390TIP3    H134106   5.403   4.436   6.919  0.6972  0.9608 -0.2574
11390TIP3    H234107   5.487   4.389   6.802 -0.5742 -2.2701  0.0766
11391TIP3   OH234108   3.269   1.665   0.115  0.0910 -0.0504 -0.1432
11391TIP3    H134109   3.243   1.574   0.120 -1.3866  0.3379 -0.6098
11391TIP3    H234110   3.357   1.663   0.077 -1.0830 -1.1083 -2.9345
11392TIP3   OH234111   5.084   3.723   5.063 -0.1934 -0.2706 -0.2083
11392TIP3    H134112   5.130   3.721   5.146  2.1312 -0.7701 -1.4812
11392TIP3    H234113   5.054   3.634   5.049  0.5447 -0.4734 -0.5137
11393TIP3   OH234114   4.130   4.738   6.136  0.0256 -0.1363 -0.9454
11393TIP3    H134115   4.093   4.812   6.184  1.6828 -0.1247  0.3476
11393TIP3    H234116   4.078   4.663   6.164  0.5649 -0.0169  0.4005
11394TIP3   OH234117   4.643   6.522   5.551  0.1387 -0.5529  0.1501
11394TIP3    H134118   4.584   6.487   5.484 -0.3431  0.9945 -0.2480
11394TIP3    H234119   4.586   6.553   5.621  0.3475  2.3104 -0.8847
11395TIP3   OH234120   6.637   5.582   4.301 -0.2533 -0.2419  0.3471
11395TIP3    H134121   6.618   5.671   4.329 -1.5396  0.3778 -2.3260
11395TIP3    H234122   6.714   5.590   4.246 -0.8437 -0.6507 -0.5494
11396TIP3   OH234123   5.393   3.876   6.424  0.0622  1.1019 -0.2382
11396TIP3    H134124   5.312   3.923   6.441 -0.7414  0.3379 -1.8724
11396TIP3    H234125   5.422   3.908   6.338  0.6403  0.2192 -0.3802
11397TIP3   OH234126   5.262   4.574   6.860 -0.0266 -0.0225 -0.4489
11397TIP3    H134127   5.208   4.601   6.786 -0.8014 -1.8087 -0.5553
11397TIP3    H234128   5.209   4.508   6.905  1.4795 -0.7526  0.2792
11398TIP3   OH234129   2.549   4.283   5.853 -0.1294 -0.0504  0.0335
11398TIP3    H134130   2.552   4.321   5.765  1.9427 -0.2099  0.0277
11398TIP3    H234131   2.515   4.194   5.839 -0.5764  0.2032 -0.5052
11399TIP3   OH234132   2.712   0.458   0.775  0.1135  0.0610 -0.4087
11399TIP3    H134133   2.622   0.460   0.806  0.2944 -0.2637  0.1286
11399TIP3    H234134   2.751   0.538   0.810  0.1667 -0.0342 -0.2515
11400TIP3   OH234135   3.507   2.233   1.021  1.0003 -0.1098 -0.3600
11400TIP3    H134136   3.517   2.280   0.938  0.7686 -1.6372 -1.2757
11400TIP3    H234137   3.553   2.150   1.007  1.0681 -0.3294  1.0885
11401TIP3   OH234138   4.553   4.201   5.613 -0.1148  0.4748 -0.5178
11401TIP3    H134139   4.541   4.288   5.652  0.6172 -0.0702  0.9844
11401TIP3    H234140   4.503   4.204   5.532  2.8020  3.5323 -2.3517
11402TIP3   OH234141   5.471   1.644   4.997 -0.4166 -0.5214 -0.0596
11402TIP3    H134142   5.488   1.607   4.911  3.2697  0.5976  0.1221
11402TIP3    H234143   5.455   1.737   4.980  0.0156 -0.3561  0.4377
11403TIP3   OH234144   6.859   5.521   5.411  0.1587  0.3838  0.1429
11403TIP3    H134145   6.766   5.499   5.407  0.3813 -0.4303 -0.9694
11403TIP3    H234146   6.870   5.566   5.494 -0.9235 -1.0040  1.0591
11404TIP3   OH234147   4.393   2.710   5.966  0.3761 -0.2717 -0.0422
11404TIP3    H134148   4.469   2.715   6.025 -0.3388 -0.5806  0.9072
11404TIP3    H234149   4.373   2.802   5.946  0.8306 -0.1782 -0.0811
11405TIP3   OH234150   0.844   1.641   0.024  0.2336 -0.1711  0.2458
11405TIP3    H134151   0.916   1.598   0.070  0.1440 -0.7421 -0.1508
11405TIP3    H234152   0.886   1.687  -0.049  0.3989  0.8922  1.0055
11406TIP3   OH234153   6.787   5.090   4.977  0.0119  0.0863 -0.3496
11406TIP3    H134154   6.844   5.167   4.979 -0.0326  0.1981 -2.1977
11406TIP3    H234155   6.699   5.125   4.984  0.1307 -0.0608  2.1689
11407TIP3   OH234156   5.084   5.121   5.965 -0.5007  0.3605  0.0795
11407TIP3    H134157   5.163   5.094   6.012 -1.7288 -0.7120  1.5747
11407TIP3    H234158   5.116   5.150   5.879  1.4275 -0.6867  0.4150
11408TIP3   OH234159   3.180   0.663   1.722 -0.2227  0.1480 -0.1746
11408TIP3    H134160   3.129   0.666   1.803 -0.7845 -1.2438 -0.4675
11408TIP3    H234161   3.213   0.752   1.711 -0.3034  0.3851  1.4803
11409TIP3   OH234162   3.562   3.375   4.448  0.4797  0.3440  0.7373
11409TIP3    H134163   3.513   3.303   4.410  0.5137  0.1152  1.1166
11409TIP3    H234164   3.517   3.393   4.531  1.8918 -0.8398  1.7883
11410TIP3   OH234165   6.603   1.873   6.575  0.7134 -0.6300  0.0263
11410TIP3    H134166   6.537   1.940   6.593  1.7508  0.5032 -0.3173
11410TIP3    H234167   6.686   1.914   6.597  1.2807 -2.2376  0.9945
11411TIP3   OH234168   4.817   6.825   0.780  0.0320  0.1087  0.3142
11411TIP3    H134169   4.821   6.920   0.790 -0.6198  0.1424  0.3074
11411TIP3    H234170   4.788   6.812   0.690 -0.8732 -0.0780  0.6262
11412TIP3   OH234171   4.826   3.604   4.993 -0.4577 -0.0981  0.5795
11412TIP3    H134172   4.870   3.526   5.027 -0.9734 -0.0052  1.4694
11412TIP3    H234173   4.833   3.596   4.898  0.1981 -0.8207  0.6837
11413TIP3   OH234174   5.600   4.061   3.868  0.3012 -0.3255  0.2033
11413TIP3    H134175   5.568   4.030   3.783  0.4814  0.2962 -0.0898
11413TIP3    H234176   5.564   3.998   3.931 -1.6051  0.4296 -0.1017
11414TIP3   OH234177   2.767   4.231   5.610  0.3218 -0.3600 -0.5812
11414TIP3    H134178   2.755   4.290   5.536  0.3160 -0.3170 -0.5457
11414TIP3    H234179   2.698   4.165   5.600 -0.0254 -0.0382 -0.3025
11415TIP3   OH234180   6.299   4.167   6.578  0.1435 -0.1019 -0.0349
11415TIP3    H134181   6.275   4.094   6.522 -2.3637  0.0862  0.7037
11415TIP3    H234182   6.266   4.245   6.531  0.4075  0.2898  0.4241
11416TIP3   OH234183   2.006   0.179   0.909 -0.0205 -0.3474  0.1089
11416TIP3    H134184   2.068   0.106   0.903  0.1305 -0.1799 -0.4612
11416TIP3    H234185   2.008   0.205   1.001 -0.1581 -1.1349  0.3385
11417TIP3   OH234186   2.533   4.056   5.028  0.4142 -0.0700  0.2155
11417TIP3    H134187   2.473   4.077   4.957  0.5767 -2.0769 -0.5599
11417TIP3    H234188   2.615   4.099   5.005 -0.6139  2.4836  1.1584
11418TIP3   OH234189   5.869   1.605   6.049 -0.0675 -1.0693 -0.2949
11418TIP3    H134190   5.922   1.679   6.021 -0.8362 -0.6867 -0.7591
11418TIP3    H234191   5.846   1.626   6.140  0.5623 -1.2352 -0.0932
11419TIP3   OH234192   3.884   4.703   5.681  0.1904 -0.1155  0.1742
11419TIP3    H134193   3.886   4.612   5.653  2.2506  0.0417 -0.3254
11419TIP3    H234194   3.904   4.754   5.602 -0.9303  0.7805  0.4469
11420TIP3   OH234195   2.770   5.131   4.672  0.1642 -0.5851 -0.3657
11420TIP3    H134196   2.735   5.057   4.622 -2.5848  0.6122 -0.2406
11420TIP3    H234197   2.740   5.208   4.625  0.3295  0.5051  1.2980
11421TIP3   OH234198   3.971   1.281   5.518  0.1699  0.2436  0.3235
11421TIP3    H134199   3.998   1.189   5.523  0.1918  0.1687 -1.0815
11421TIP3    H234200   3.990   1.316   5.605 -0.2086 -1.1816  0.9849
11422TIP3   OH234201   3.692   5.048   6.544  0.4977 -0.6324  0.6999
11422TIP3    H134202   3.652   5.129   6.574 -2.8744 -1.0092 -2.5088
11422TIP3    H234203   3.677   4.986   6.616 -1.5926  0.1959  1.0177
11423TIP3   OH234204   4.420   4.525   6.392 -0.3172  0.0401  0.0121
11423TIP3    H134205   4.458   4.442   6.364 -0.8423 -0.1494 -0.1411
11423TIP3    H234206   4.335   4.502   6.429 -1.1843  0.6680 -1.5164
11424TIP3   OH234207   4.732   0.245   0.363  0.3334  0.8511 -0.1706
11424TIP3    H134208   4.732   0.191   0.442 -1.5471  1.5560  0.3277
11424TIP3    H234209   4.693   0.190   0.296  0.2065  0.9176 -0.1507
11425TIP3   OH234210   1.312   1.481   0.780  0.3481  0.2399  0.0273
11425TIP3    H134211   1.310   1.429   0.700 -0.9276 -0.6170  0.6038
11425TIP3    H234212   1.367   1.431   0.841  0.0301  0.1049  0.2071
11426TIP3   OH234213   6.375   7.298   0.133  0.1880  0.3820 -0.0234
11426TIP3    H134214   6.438   7.253   0.189  0.6421 -1.2847 -1.8238
11426TIP3    H234215   6.293   7.249   0.144  0.7271 -1.0280 -2.1201
11427TIP3   OH234216   3.571   4.278   5.812 -0.4175 -0.5242 -0.4364
11427TIP3    H134217   3.499   4.256   5.871  0.4908 -1.2923  0.4151
11427TIP3    H234218   3.529   4.298   5.728 -1.7213  0.4625  0.4321
11428TIP3   OH234219   4.370   3.281   3.876  0.0496  0.4586 -0.0184
11428TIP3    H134220   4.332   3.304   3.960  1.1387  0.8197  0.3845
11428TIP3    H234221   4.419   3.201   3.893 -0.6135 -0.0765 -0.5636
11429TIP3   OH234222   1.871   2.674   0.411  0.3429 -0.7996  0.6898
11429TIP3    H134223   1.944   2.729   0.440  0.5380 -0.0866 -1.1183
11429TIP3    H234224   1.804   2.687   0.479  0.4972  1.4441  0.4647
11430TIP3   OH234225   2.445   1.191   0.441  0.3273 -0.1894 -0.4223
11430TIP3    H134226   2.356   1.224   0.452 -0.1591 -0.5870 -3.0244
11430TIP3    H234227   2.491   1.222   0.519 -1.9666  0.3585  0.7676
11431TIP3   OH234228   8.245   4.875   6.443  0.3746  0.1833  0.4950
11431TIP3    H134229   8.290   4.895   6.525  1.1811  2.3689 -0.4508
11431TIP3    H234230   8.187   4.950   6.428  0.0251 -0.3263 -0.7835
11432TIP3   OH234231   4.689   5.730   5.285 -0.3584  0.1044 -0.4494
11432TIP3    H134232   4.725   5.668   5.222 -1.1630  0.2724 -1.0800
11432TIP3    H234233   4.601   5.749   5.253 -0.3693  1.0442  0.1139
11433TIP3   OH234234   4.811   0.382   0.716 -0.1736 -0.2827  0.0926
11433TIP3    H134235   4.891   0.425   0.685  0.8437 -2.1705  0.0025
11433TIP3    H234236   4.745   0.451   0.717  1.6164  1.4569  0.7634
11434TIP3   OH234237   6.692   6.133   5.165 -0.2368  0.2980 -0.0725
11434TIP3    H134238   6.698   6.190   5.242 -1.8255  0.7694 -0.2872
11434TIP3    H234239   6.712   6.191   5.092 -0.4196  0.2396 -0.1665
11435TIP3   OH234240   5.325   3.140   5.847 -0.7325  0.5298  0.3552
11435TIP3    H134241   5.261   3.068   5.845  0.1449 -0.2451 -0.0978
11435TIP3    H234242   5.274   3.217   5.822 -2.2053  0.5059  3.1120
11436TIP3   OH234243   4.596   4.773   5.385 -0.2732 -0.6169  0.2916
11436TIP3    H134244   4.690   4.778   5.372  0.0482 -0.8674  2.3673
11436TIP3    H234245   4.582   4.803   5.475 -2.2447  0.0951 -0.2169
11437TIP3   OH234246   1.149   0.561   0.857 -0.3233  0.2029  0.6130
11437TIP3    H134247   1.068   0.558   0.806 -0.5871 -2.5131  1.1117
11437TIP3    H234248   1.120   0.566   0.948  0.1043  0.1906  0.7515
11438TIP3   OH234249   5.476   6.017   6.232 -0.2653  0.5267 -0.3929
11438TIP3    H134250   5.405   6.076   6.206 -0.9546  0.0098  0.2877
11438TIP3    H234251   5.553   6.073   6.240 -0.7455  1.2045 -0.5012
11439TIP3   OH234252   4.344   1.020   0.095 -0.2290  0.4242 -0.4351
11439TIP3    H134253   4.291   1.063   0.162 -0.6102  0.9539 -1.0699
11439TIP3    H234254   4.347   1.083   0.023 -0.8817 -0.6407 -1.4093
11440TIP3   OH234255   4.480   3.907   4.866 -0.4967 -0.8323 -0.0891
11440TIP3    H134256   4.402   3.855   4.846 -1.3032  0.0458  0.7324
11440TIP3    H234257   4.528   3.854   4.930 -0.5922 -1.2110 -0.3291
11441TIP3   OH234258   2.442   1.758   0.771  0.1649 -0.1104 -0.5996
11441TIP3    H134259   2.366   1.786   0.823 -0.7336  0.8302 -2.3827
11441TIP3    H234260   2.485   1.840   0.746  1.4826 -0.6184 -0.0532
11442TIP3   OH234261   4.251   4.266   5.907  0.1954 -0.2027  0.2519
11442TIP3    H134262   4.198   4.231   5.834  0.4722 -0.4252  0.1561
11442TIP3    H234263   4.340   4.236   5.888  0.7671  2.0760 -0.7783
11443TIP3   OH234264   5.725   7.561   4.420 -0.4108  0.2207  0.3948
11443TIP3    H134265   5.805   7.572   4.369 -0.3527 -0.7691  0.2666
11443TIP3    H234266   5.716   7.643   4.468  0.3520  0.5726 -0.0520
11444TIP3   OH234267   7.197   4.489   4.177  0.6995  0.3570 -0.3290
11444TIP3    H134268   7.269   4.505   4.116  2.0073  0.1810  1.1493
11444TIP3    H234269   7.143   4.569   4.172  1.4252  0.8167 -0.8443
11445TIP3   OH234270   1.374   6.705   0.197 -0.0524  0.3488 -0.1017
11445TIP3    H134271   1.387   6.764   0.272 -0.7312 -0.8621  0.9890
11445TIP3    H234272   1.458   6.660   0.187 -1.3632 -3.0836  3.1184
11446TIP3   OH234273   5.851   3.428   4.160  0.7124 -0.2700  0.4154
11446TIP3    H134274   5.865   3.339   4.127 -1.7084  0.1223 -1.8153
11446TIP3    H234275   5.801   3.417   4.240 -0.7710 -0.8947 -0.5745
11447TIP3   OH234276   4.451   4.576   6.104  0.5849  0.6062  0.0806
11447TIP3    H134277   4.386   4.615   6.045 -1.2262 -0.9409  0.9866
11447TIP3    H234278   4.403   4.563   6.186  2.0622 -0.5579  0.7730
11448TIP3   OH234279   3.228   3.425   5.628  0.8515  0.1861  0.2637
11448TIP3    H134280   3.176   3.346   5.614  0.9860 -0.0034  0.8527
11448TIP3    H234281   3.308   3.410   5.578  1.1719 -0.3407  0.9303
11449TIP3   OH234282   3.166   4.097   5.332  0.4478 -0.6638  0.1967
11449TIP3    H134283   3.070   4.097   5.327  0.5303  0.8248 -1.9748
11449TIP3    H234284   3.195   4.107   5.241  2.6646 -0.3683  0.9066
11450TIP3   OH234285   1.642   0.207   0.615 -0.0563  0.3608 -0.0646
11450TIP3    H134286   1.566   0.214   0.673  0.3123  3.3794  0.1487
11450TIP3    H234287   1.624   0.270   0.545  1.2984 -0.4255 -1.1429
11451TIP3   OH234288   3.515   0.132   1.052 -0.0415  0.4045 -0.0121
11451TIP3    H134289   3.599   0.103   1.088 -0.4360  2.3025  2.4775
11451TIP3    H234290   3.468   0.050   1.032  1.4755 -0.6560  0.7124
11452TIP3   OH234291   2.736   0.902   1.384  0.5632 -0.3968 -0.4662
11452TIP3    H134292   2.825   0.919   1.352  0.3554 -0.1687 -0.9248
11452TIP3    H234293   2.722   0.809   1.369  0.1788 -0.1331 -1.7605
11453TIP3   OH234294   2.618   5.868   6.361 -0.3643  0.4617 -0.4353
11453TIP3    H134295   2.584   5.797   6.415 -1.1278  1.8264  0.9092
11453TIP3    H234296   2.680   5.914   6.418 -0.5838  1.4324 -0.9762
11454TIP3   OH234297   3.664   5.476   5.481  0.1032 -0.1094  0.0961
11454TIP3    H134298   3.757   5.498   5.476  0.1970 -0.2592  1.0999
11454TIP3    H234299   3.638   5.500   5.570 -1.0172  0.6880 -0.4321
11455TIP3   OH234300   6.296   4.299   5.574 -0.0124  0.0098  0.4915
11455TIP3    H134301   6.255   4.298   5.660  0.5929 -1.6244  0.7764
11455TIP3    H234302   6.385   4.268   5.590  0.7723  1.7463 -0.4046
11456TIP3   OH234303   4.450   4.022   6.179  0.0323 -0.4800  0.1005
11456TIP3    H134304   4.360   4.051   6.196  0.2138  0.2126 -0.1195
11456TIP3    H234305   4.449   3.929   6.201 -1.3048 -1.0162 -2.0614
11457TIP3   OH234306   2.982   5.440   4.954  0.5945 -0.1843  0.1532
11457TIP3    H134307   2.892   5.468   4.974 -0.6704 -2.2820 -2.4098
11457TIP3    H234308   3.033   5.470   5.030 -2.4748 -0.0898  2.2855
11458TIP3   OH234309   7.576   0.605   0.052 -0.7158  0.2239  0.4541
11458TIP3    H134310   7.555   0.649  -0.031 -1.3394 -0.1537  0.4067
11458TIP3    H234311   7.536   0.519   0.044  0.1306 -0.1953  0.7292
11459TIP3   OH234312   1.178   1.839   1.829  0.1268 -0.1166 -0.3037
11459TIP3    H134313   1.230   1.886   1.895  0.9092 -0.1334 -0.9056
11459TIP3    H234314   1.133   1.771   1.878 -0.3621  0.7311  0.4453
11460TIP3   OH234315   5.312   3.511   4.041  0.2579 -0.1356  0.1332
11460TIP3    H134316   5.395   3.555   4.022 -0.1225  0.1753 -0.8640
11460TIP3    H234317   5.245   3.576   4.017 -0.3350 -1.6063 -2.3516
11461TIP3   OH234318   0.606   1.060   0.027 -0.1104 -0.2300 -0.4696
11461TIP3    H134319   0.581   0.993   0.090  0.2958  0.7774  0.7716
11461TIP3    H234320   0.523   1.102   0.002  0.0043  1.3428  1.6500
11462TIP3   OH234321   2.231   6.629   6.807 -0.5926 -0.3729  0.2055
11462TIP3    H134322   2.253   6.687   6.734  2.0038 -1.9327 -0.3174
11462TIP3    H234323   2.223   6.687   6.883  1.0629  0.7679 -0.4703
11463TIP3   OH234324   5.699   4.613   6.847 -0.0552 -0.0305 -0.4996
11463TIP3    H134325   5.725   4.528   6.811  0.1409  0.0745 -0.6070
11463TIP3    H234326   5.640   4.650   6.782 -0.1780 -0.1034 -0.4306
11464TIP3   OH234327   3.055   2.008   4.847  0.3148  0.1113  0.0901
11464TIP3    H134328   2.961   2.006   4.826  0.0697 -0.8556  1.2395
11464TIP3    H234329   3.094   1.941   4.791  0.1610 -0.1804  0.3290
11465TIP3   OH234330   4.175   4.356   6.167  0.5165 -0.5232 -0.0198
11465TIP3    H134331   4.211   4.313   6.090 -1.2659  0.0214 -1.1958
11465TIP3    H234332   4.147   4.284   6.223  0.0953 -0.9191 -0.7317
11466TIP3   OH234333   6.068   5.474   4.381  0.3861  0.2733 -0.2731
11466TIP3    H134334   6.163   5.479   4.395  0.3669  1.4172 -0.5822
11466TIP3    H234335   6.050   5.380   4.379  1.8768  0.0065 -2.6694
11467TIP3   OH234336   4.641   6.866   3.804 -0.1485  0.2643 -0.1211
11467TIP3    H134337   4.705   6.937   3.818  1.1235 -1.0421  0.8518
11467TIP3    H234338   4.560   6.898   3.844  0.0481  1.6952 -0.8238
11468TIP3   OH234339   2.321   2.031   0.753  0.0505  0.1077  0.3838
11468TIP3    H134340   2.267   1.971   0.803  0.5259 -2.3173 -1.8989
11468TIP3    H234341   2.282   2.032   0.665  1.2940  1.5226 -0.1852
11469TIP3   OH234342   4.183   2.516   4.717 -0.1218  0.4143 -0.0606
11469TIP3    H134343   4.239   2.439   4.705 -1.0803 -0.0402 -1.9226
11469TIP3    H234344   4.174   2.526   4.812  1.0647 -0.9982  0.2073
11470TIP3   OH234345   0.599   1.932   0.745 -0.9018  0.0862  0.1130
11470TIP3    H134346   0.629   1.874   0.676 -0.8238 -0.3026  0.4712
11470TIP3    H234347   0.651   1.908   0.821 -0.7513  0.7398  0.2190
11471TIP3   OH234348   4.750   4.078   3.730  0.2157  0.5917 -0.1149
11471TIP3    H134349   4.812   4.123   3.673 -0.0195  2.0004  0.7183
11471TIP3    H234350   4.776   4.104   3.818 -0.1509 -0.6304  0.3489
11472TIP3   OH234351   2.282   1.355   1.556  0.1179  0.5125  0.0822
11472TIP3    H134352   2.236   1.428   1.596 -1.5966 -0.2507 -0.4660
11472TIP3    H234353   2.247   1.349   1.467  0.2483 -0.9593  0.1066
11473TIP3   OH234354   3.991   5.300   4.421  0.4554  0.3749 -0.0554
11473TIP3    H134355   4.085   5.286   4.424  0.2374 -1.1822 -0.3913
11473TIP3    H234356   3.953   5.214   4.438 -0.9116  1.0938  0.6356
11474TIP3   OH234357   7.430   5.199   5.603 -0.2584  0.4845 -0.0455
11474TIP3    H134358   7.389   5.257   5.667  0.8613  0.2300  0.9300
11474TIP3    H234359   7.463   5.258   5.535  1.1956  1.0612  1.1184
11475TIP3   OH234360   2.997   1.669   2.295  0.2426  0.1086 -0.0039
11475TIP3    H134361   2.994   1.764   2.307 -1.5342  0.2713 -1.5177
11475TIP3    H234362   3.080   1.653   2.250 -0.8996  1.3462 -2.6776
11476TIP3   OH234363   2.960   4.369   4.890 -0.2631  0.0852 -0.1025
11476TIP3    H134364   2.930   4.457   4.868 -1.2482  0.0783  1.1065
11476TIP3    H234365   3.040   4.382   4.940 -0.2386  0.2801 -0.1955
11477TIP3   OH234366   2.600   2.442   0.717 -0.4585  0.4213  0.4801
11477TIP3    H134367   2.614   2.351   0.743 -1.8315  0.0390 -0.0914
11477TIP3    H234368   2.656   2.454   0.640  0.4028  0.3256  1.0886
11478TIP3   OH234369   3.959   3.508   3.556 -0.2947 -0.5000 -0.3205
11478TIP3    H134370   3.925   3.482   3.471 -2.2927  0.3093  0.1997
11478TIP3    H234371   3.881   3.523   3.610  0.9409 -1.9480  1.9608
11479TIP3   OH234372   6.322   3.261   0.720  0.8219 -0.0085 -0.0919
11479TIP3    H134373   6.284   3.246   0.634 -0.3940 -1.4687  0.6769
11479TIP3    H234374   6.331   3.356   0.726  0.0107  0.1647 -1.4542
11480TIP3   OH234375   5.613   5.712   4.435 -0.0891  0.0590 -0.1521
11480TIP3    H134376   5.554   5.764   4.489 -1.8982 -2.0485 -0.0437
11480TIP3    H234377   5.701   5.741   4.460 -0.9387  0.0408  3.0191
11481TIP3   OH234378   4.941   0.848   0.888  0.3169  0.2001  0.4417
11481TIP3    H134379   5.006   0.815   0.950 -0.8023  0.0131  1.5396
11481TIP3    H234380   4.898   0.769   0.855 -0.8759  0.4178  1.4285
11482TIP3   OH234381   8.167   2.230   2.027 -0.3590 -0.4795  0.1827
11482TIP3    H134382   8.111   2.305   2.050  0.7059  0.2326  0.4983
11482TIP3    H234383   8.251   2.251   2.066  0.0765 -1.6415 -0.1295
11483TIP3   OH234384   4.124   2.460   5.480 -0.4004  0.5585 -0.2392
11483TIP3    H134385   4.156   2.386   5.428  0.8189  2.6656 -2.6146
11483TIP3    H234386   4.203   2.498   5.519 -1.0066  0.6576  0.9146
11484TIP3   OH234387   6.431   4.319   6.927  0.2404  0.1050 -0.6409
11484TIP3    H134388   6.442   4.406   6.889 -0.4860  0.4454 -0.0882
11484TIP3    H234389   6.520   4.284   6.933  0.7796  1.7036  1.2371
11485TIP3   OH234390   7.855   7.804   0.514 -0.3511  0.4338 -0.4867
11485TIP3    H134391   7.812   7.861   0.578  1.2528  1.2338 -0.0983
11485TIP3    H234392   7.884   7.864   0.445  0.3694 -0.0660 -0.6195
11486TIP3   OH234393   2.367   1.702   0.484  0.2243  0.4853  0.1897
11486TIP3    H134394   2.280   1.682   0.517  0.1039  0.9378  0.1496
11486TIP3    H234395   2.410   1.749   0.555  0.8342 -0.7158  0.6392
11487TIP3   OH234396   4.908   3.816   5.883  0.2737  0.0975  0.1756
11487TIP3    H134397   4.899   3.911   5.893 -0.7018  0.0730 -0.4248
11487TIP3    H234398   4.897   3.801   5.790  1.7996 -0.4752  0.0728
11488TIP3   OH234399   0.448   1.588   1.737 -0.0643  0.1959  0.2412
11488TIP3    H134400   0.537   1.554   1.752 -1.1274 -3.7340 -1.6749
11488TIP3    H234401   0.394   1.539   1.799 -1.5211 -0.9065 -1.8662
11489TIP3   OH234402   1.959   0.789   0.547  0.4773  0.8792  0.7104
11489TIP3    H134403   1.955   0.694   0.543  1.9300  0.8108  0.9328
11489TIP3    H234404   1.878   0.818   0.504  0.0729 -0.4435  0.5724
11490TIP3   OH234405   0.311   7.640   1.265 -0.4245  0.1071 -0.0764
11490TIP3    H134406   0.336   7.590   1.188 -0.0301  0.8837 -0.4553
11490TIP3    H234407   0.335   7.730   1.245 -2.5819  0.7302 -0.0394
11491TIP3   OH234408   2.891   3.723   6.458 -0.0429  0.2383 -0.1091
11491TIP3    H134409   2.880   3.786   6.530 -1.8159  0.9388 -0.9588
11491TIP3    H234410   2.896   3.778   6.379  0.1369 -0.6102 -0.6941
11492TIP3   OH234411   3.697   4.057   6.675 -0.5452 -0.5129 -0.1290
11492TIP3    H134412   3.621   4.115   6.677 -0.2340 -0.0313 -1.6672
11492TIP3    H234413   3.761   4.098   6.733 -1.1770 -0.5255  0.5773
11493TIP3   OH234414   3.947   3.504   3.946  0.0336 -0.0949 -0.5573
11493TIP3    H134415   4.003   3.479   4.020 -1.1562 -2.0621 -0.2951
11493TIP3    H234416   3.863   3.461   3.963 -0.1604 -0.8691 -3.2113
11494TIP3   OH234417   4.246   5.939   4.868 -0.1817 -0.2141  0.2630
11494TIP3    H134418   4.294   5.979   4.795  0.3172 -0.0267  0.6932
11494TIP3    H234419   4.291   5.856   4.884 -2.5572 -2.0514 -2.0928
11495TIP3   OH234420   3.648   4.784   4.013 -0.6634  0.1855 -0.0082
11495TIP3    H134421   3.581   4.726   3.976 -0.5646  0.4853 -0.6781
11495TIP3    H234422   3.667   4.846   3.942  0.5565 -0.0897  0.0730
11496TIP3   OH234423   2.280   1.568   0.012  0.3150 -0.2946  0.1455
11496TIP3    H134424   2.276   1.479   0.048 -0.0945 -0.2703  0.1653
11496TIP3    H234425   2.281   1.625   0.089 -2.3094 -0.1745  0.1299
11497TIP3   OH234426   5.566   5.261   6.076  0.0401  0.3604 -0.1723
11497TIP3    H134427   5.525   5.248   5.991 -0.5340  1.1602 -0.0238
11497TIP3    H234428   5.636   5.325   6.061 -0.5753  1.1111  0.0958
11498TIP3   OH234429   5.356   5.440   5.588  0.3124 -0.2120 -0.0080
11498TIP3    H134430   5.412   5.517   5.574  1.1131 -0.7218  0.3562
11498TIP3    H234431   5.342   5.406   5.499  1.0449 -0.3972 -0.0628
11499TIP3   OH234432   5.321   3.584   2.515  0.4688  0.3404 -0.1062
11499TIP3    H134433   5.356   3.611   2.600  1.2647  0.5171 -0.4855
11499TIP3    H234434   5.267   3.508   2.535 -0.8376  1.4778  0.8068
11500TIP3   OH234435   2.234   7.797   1.849 -0.4412 -0.6142 -0.3162
11500TIP3    H134436   2.304   7.837   1.900 -1.1830 -1.8441  1.7106
11500TIP3    H234437   2.279   7.749   1.779  0.6485 -0.1184  0.0413
11501TIP3   OH234438   5.297   3.997   5.824  0.1472 -0.3206 -0.0038
11501TIP3    H134439   5.281   4.083   5.784 -0.0670 -0.6502 -0.6409
11501TIP3    H234440   5.389   4.000   5.850 -0.5385  1.0807  2.4270
11502TIP3   OH234441   6.388   6.272   3.264 -0.0934 -0.3529  0.0289
11502TIP3    H134442   6.327   6.296   3.194 -0.4691 -1.5433 -0.0499
11502TIP3    H234443   6.392   6.177   3.262  0.6279 -0.3564  1.0130
11503TIP3   OH234444   2.146   1.091   0.854 -0.0836 -0.1679 -0.5537
11503TIP3    H134445   2.212   1.160   0.845  0.3624 -0.6278 -0.8067
11503TIP3    H234446   2.122   1.069   0.764 -1.1590  0.5472 -0.4511
11504TIP3   OH234447   4.281   4.237   3.735  0.3763 -0.4184  0.1537
11504TIP3    H134448   4.202   4.251   3.787  0.3167 -0.9463  0.2094
11504TIP3    H234449   4.353   4.263   3.793  0.3116 -1.0103  0.5154
11505TIP3   OH234450   4.752   3.029   6.570 -0.0467  0.3623 -0.3411
11505TIP3    H134451   4.757   3.122   6.549  1.0359  0.5433  0.6395
11505TIP3    H234452   4.669   2.999   6.532  1.4415  0.8146 -4.1911
11506TIP3   OH234453   3.061   4.385   5.280 -0.7658 -0.0005 -0.1470
11506TIP3    H134454   3.143   4.429   5.299  0.0230 -1.0173 -1.1625
11506TIP3    H234455   3.002   4.455   5.252 -0.1576  0.6750  0.2366
11507TIP3   OH234456   6.849   6.533   0.659 -0.4268  0.5559 -0.1059
11507TIP3    H134457   6.768   6.583   0.670 -1.6756 -1.6759  0.9518
11507TIP3    H234458   6.822   6.451   0.618  1.5249  0.3951 -1.1510
11508TIP3   OH234459   6.326   4.975   5.649  0.6678  0.1304 -0.1528
11508TIP3    H134460   6.372   4.893   5.632  2.1056  0.3908  2.2671
11508TIP3    H234461   6.396   5.039   5.664 -0.4571  1.2711  0.3002
11509TIP3   OH234462   5.641   5.777   6.244 -0.2752  0.0998 -0.4212
11509TIP3    H134463   5.602   5.745   6.325  0.2129  1.9996  0.5933
11509TIP3    H234464   5.582   5.846   6.214  0.7884  1.0509 -0.3771
11510TIP3   OH234465   5.356   5.443   3.859 -0.4059 -0.3466 -0.3526
11510TIP3    H134466   5.278   5.407   3.902 -0.7653  1.6007  0.6800
11510TIP3    H234467   5.392   5.505   3.922  0.4778  0.7403 -1.8810
11511TIP3   OH234468   6.434   4.991   2.867 -0.2026  0.4272  0.3375
11511TIP3    H134469   6.376   4.921   2.897  0.5612 -0.4293 -0.1466
11511TIP3    H234470   6.375   5.059   2.833 -0.9464 -0.0239  0.7230
11512TIP3   OH234471   3.816   4.737   5.140 -0.5773 -0.2751 -0.3748
11512TIP3    H134472   3.739   4.737   5.197 -0.8451  0.4547 -0.7322
11512TIP3    H234473   3.789   4.788   5.064  0.3684  0.2667 -0.3528
11513TIP3   OH234474   2.168   0.584   0.273  0.6182 -0.1529 -0.0697
11513TIP3    H134475   2.125   0.532   0.341  2.7416 -0.7661  0.8206
11513TIP3    H234476   2.206   0.658   0.320  0.4597  0.4509 -0.8767
11514TIP3   OH234477   4.040   3.982   6.542  0.2451 -0.3001 -0.3088
11514TIP3    H134478   4.058   3.888   6.538  0.2243 -0.2745 -0.9636
11514TIP3    H234479   4.095   4.013   6.614 -0.3326 -0.9473  0.4320
11515TIP3   OH234480   6.434   4.091   6.320 -0.0225  0.0818  0.0893
11515TIP3    H134481   6.469   4.045   6.244  1.5814 -0.9430  1.4346
11515TIP3    H234482   6.394   4.022   6.374  4.7113 -0.2573  3.4227
11516TIP3   OH234483   4.838   3.342   5.356  0.3925  0.2421 -0.2985
11516TIP3    H134484   4.763   3.394   5.327  0.0169 -0.6481 -0.9624
11516TIP3    H234485   4.861   3.378   5.442 -0.5366  0.7876 -0.2719
11517TIP3   OH234486   5.325   3.048   6.668 -0.5846 -0.4730 -0.4085
11517TIP3    H134487   5.231   3.061   6.661 -0.5000 -0.6607 -2.1166
11517TIP3    H234488   5.364   3.128   6.632 -0.0651  0.5791  2.3578
11518TIP3   OH234489   4.985   3.449   4.763 -0.3758  0.1271 -0.2460
11518TIP3    H134490   5.002   3.369   4.814  1.3979  1.1161  0.7513
11518TIP3    H234491   5.072   3.482   4.741 -1.1089  0.5681 -2.6414
11519TIP3   OH234492   5.072   5.581   6.257  0.1493  0.0201  0.2610
11519TIP3    H134493   5.158   5.596   6.217  0.4550  0.8773  1.2273
11519TIP3    H234494   5.075   5.489   6.284  1.1774  0.3209  1.2416
11520TIP3   OH234495   3.952   3.809   5.616  0.0618 -0.2052 -0.2749
11520TIP3    H134496   3.946   3.899   5.584  1.1228 -0.0253  0.0173
11520TIP3    H234497   3.905   3.809   5.699 -0.2318 -0.0070 -0.4384
11521TIP3   OH234498   5.155   4.924   4.992  0.4417  0.3879  0.2069
11521TIP3    H134499   5.073   4.917   5.041  0.2650 -2.2799 -0.4107
11521TIP3    H234500   5.130   4.913   4.900  1.6883 -2.3014  0.1518
11522TIP3   OH234501   4.498   6.044   5.987  0.0559  0.0693 -0.0471
11522TIP3    H134502   4.479   6.052   5.893  1.1488  0.2315 -0.2657
11522TIP3    H234503   4.572   6.104   6.001 -1.7442  2.0062  1.4321
11523TIP3   OH234504   5.568   4.592   4.425  0.0004  0.1438  0.2338
11523TIP3    H134505   5.531   4.658   4.366  1.4224  1.7700  1.1076
11523TIP3    H234506   5.495   4.564   4.480 -0.9713 -0.2003 -1.2132
11524TIP3   OH234507   2.352   3.203   0.413 -0.0647 -0.0576  0.1274
11524TIP3    H134508   2.390   3.154   0.340 -0.6652  0.6166 -0.6411
11524TIP3    H234509   2.313   3.280   0.373 -0.0985  0.4968  1.2074
11525TIP3   OH234510   3.491   5.580   5.277 -0.4793  0.1031 -0.0237
11525TIP3    H134511   3.517   5.564   5.368 -2.8649 -0.9085  0.5141
11525TIP3    H234512   3.569   5.558   5.226  0.2863 -1.1666  1.6414
11526TIP3   OH234513   5.998   6.482   6.498 -0.3050 -0.2395 -0.2226
11526TIP3    H134514   5.995   6.529   6.582  1.2537 -0.4879 -0.0131
11526TIP3    H234515   5.924   6.517   6.449 -1.1635  0.0042  1.2115
11527TIP3   OH234516   3.431   6.461   6.492 -0.2488  0.1183 -0.1305
11527TIP3    H134517   3.423   6.546   6.536 -0.4430  0.2429 -0.4073
11527TIP3    H234518   3.517   6.464   6.450 -0.7804  0.6799 -1.2045
11528TIP3   OH234519   0.434   1.990   0.262 -0.0305 -0.4311 -0.5914
11528TIP3    H134520   0.489   1.913   0.245 -1.4041 -1.4352 -0.5898
11528TIP3    H234521   0.474   2.033   0.337  0.8162 -1.0921 -0.6617
11529TIP3   OH234522   5.662   2.997   4.630  0.0035 -0.1814 -0.0915
11529TIP3    H134523   5.631   2.937   4.562  1.7430 -1.7674  0.4530
11529TIP3    H234524   5.675   2.940   4.707  1.2502  0.9806  0.5756
11530TIP3   OH234525   5.239   6.512   5.471  0.1830 -0.0314  0.1020
11530TIP3    H134526   5.164   6.541   5.419 -0.2710 -0.9764  0.2172
11530TIP3    H234527   5.309   6.572   5.446  0.1048 -0.7364 -1.9611
11531TIP3   OH234528   0.705   0.733   0.221 -0.0024 -0.1373  0.2086
11531TIP3    H134529   0.726   0.657   0.275  1.0101  0.1295  0.2032
11531TIP3    H234530   0.692   0.698   0.133  1.2077 -0.2319  0.0466
11532TIP3   OH234531   3.218   2.458   2.323 -0.0099 -0.2312  0.2431
11532TIP3    H134532   3.287   2.403   2.360  1.2110  0.3720 -1.0861
11532TIP3    H234533   3.262   2.509   2.256 -2.0840 -1.0299 -1.7983
11533TIP3   OH234534   4.382   6.879   4.938  0.0788  0.3351  0.2433
11533TIP3    H134535   4.469   6.876   4.897 -0.0729  1.8065 -0.2200
11533TIP3    H234536   4.394   6.936   5.014 -0.4487  0.3698  0.2970
11534TIP3   OH234537   4.319   3.238   6.238  0.3981 -0.1087 -0.2174
11534TIP3    H134538   4.264   3.162   6.253  0.2012 -0.1373 -1.0493
11534TIP3    H234539   4.357   3.223   6.151  0.7673  0.4868 -0.1613
11535TIP3   OH234540   2.937   1.643   0.519 -0.1481  0.0005  0.0818
11535TIP3    H134541   2.841   1.642   0.525 -0.2195  0.6428 -0.8190
11535TIP3    H234542   2.955   1.656   0.426  0.8273 -3.0303 -0.1900
11536TIP3   OH234543   4.944   4.333   6.747  0.3347  0.7858 -0.1058
11536TIP3    H134544   4.982   4.420   6.756 -0.8788  1.3364 -0.1889
11536TIP3    H234545   4.944   4.317   6.652 -0.8315  1.3426 -0.2126
11537TIP3   OH234546   6.566   4.120   6.642  0.2065  0.5960  0.1233
11537TIP3    H134547   6.478   4.145   6.612  0.0188 -0.7309 -0.4365
11537TIP3    H234548   6.618   4.115   6.562  0.3858 -0.2429  0.2938
11538TIP3   OH234549   4.019   1.785   6.856  0.0605  0.0804 -0.2956
11538TIP3    H134550   4.098   1.779   6.802 -0.1395  0.2866 -0.6139
11538TIP3    H234551   3.947   1.780   6.794 -0.1523  1.8216 -0.2191
11539TIP3   OH234552   3.120   1.271   6.123  0.4277  0.6751  0.3026
11539TIP3    H134553   3.120   1.335   6.052  1.4940  1.6136  1.1121
11539TIP3    H234554   3.213   1.258   6.144  0.1665 -0.2447  0.9370
11540TIP3   OH234555   2.971   4.790   5.288  0.5099  0.8558 -0.0944
11540TIP3    H134556   2.962   4.771   5.382 -1.1528  0.7754 -0.2600
11540TIP3    H234557   2.926   4.718   5.245  2.1031  0.3801 -1.0044
11541TIP3   OH234558   4.444   5.412   5.460 -0.2077  0.0510  0.3327
11541TIP3    H134559   4.392   5.472   5.514 -1.1836 -0.2934 -0.2166
11541TIP3    H234560   4.390   5.395   5.383  1.3071  0.7932 -0.9297
11542TIP3   OH234561   4.270   2.764   6.477 -0.0308 -0.2111 -0.0729
11542TIP3    H134562   4.343   2.761   6.540 -0.2093  2.2649  0.3009
11542TIP3    H234563   4.299   2.708   6.405  0.2379 -3.0264  2.1173
11543TIP3   OH234564   2.928   3.429   5.448  0.1509  0.5637  0.2664
11543TIP3    H134565   2.997   3.468   5.395 -0.7039  0.2817 -1.0682
11543TIP3    H234566   2.954   3.337   5.457  0.1593  0.5527  0.1225
11544TIP3   OH234567   3.586   2.094   5.872  0.0961 -0.1660  0.3755
11544TIP3    H134568   3.560   2.088   5.780 -0.4426  0.3930  0.4861
11544TIP3    H234569   3.681   2.086   5.871  0.0210 -1.0182 -0.1508
11545TIP3   OH234570   4.769   3.313   6.871  0.1415 -0.4108  0.3367
11545TIP3    H134571   4.839   3.254   6.899 -0.4854 -1.4655 -0.2743
11545TIP3    H234572   4.738   3.276   6.788  0.1132  1.1085 -0.3474
11546TIP3   OH234573   3.762   3.519   5.283 -0.0803  0.1161 -0.4419
11546TIP3    H134574   3.811   3.556   5.209  1.8370  1.2262  1.3170
11546TIP3    H234575   3.815   3.540   5.360 -2.5227 -0.1558  1.3793
11547TIP3   OH234576   4.513   6.172   4.819  0.0122 -0.2302  0.1750
11547TIP3    H134577   4.552   6.255   4.790 -0.8848  0.1081 -0.0932
11547TIP3    H234578   4.472   6.136   4.740 -3.2021  1.1192  1.1503
11548TIP3   OH234579   5.447   2.263   6.546 -0.9507  0.1601  0.8828
11548TIP3    H134580   5.462   2.353   6.574  2.3026 -0.0950  0.1268
11548TIP3    H234581   5.400   2.270   6.464 -0.2380  1.1908  0.5573
11549TIP3   OH234582   8.106   6.648   1.223  0.5156  0.4539  0.1624
11549TIP3    H134583   8.108   6.707   1.148 -0.8617 -1.4552 -1.4531
11549TIP3    H234584   8.054   6.693   1.289  0.3954  1.4783 -0.6302
11550TIP3   OH234585   0.636   1.802   0.171  0.0768  0.0965 -0.8600
11550TIP3    H134586   0.644   1.707   0.180 -0.1956  0.0209 -1.4117
11550TIP3    H234587   0.687   1.823   0.093  0.6905  0.4908 -0.3602
11551TIP3   OH234588   7.306   6.430   1.022 -0.4737  0.3962  0.0905
11551TIP3    H134589   7.214   6.415   1.001 -0.3661  1.1191 -0.9735
11551TIP3    H234590   7.305   6.480   1.104 -0.9768 -0.7194  0.7754
11552TIP3   OH234591   6.269   5.771   4.775 -0.5418  0.1314  0.1360
11552TIP3    H134592   6.214   5.837   4.732 -0.7584 -1.3645 -1.9632
11552TIP3    H234593   6.294   5.811   4.858  1.1082  3.7432 -1.9932
11553TIP3   OH234594   7.588   5.051   6.785  0.2939  0.5729  0.0731
11553TIP3    H134595   7.568   5.070   6.877 -0.4269  1.0231 -0.1747
11553TIP3    H234596   7.514   4.999   6.754  1.8021 -1.9006  0.4758
11554TIP3   OH234597   5.276   5.584   4.870  0.5032 -0.1303 -0.2211
11554TIP3    H134598   5.222   5.506   4.887  2.7062 -2.2172 -2.3607
11554TIP3    H234599   5.364   5.557   4.897  1.3236  1.5641 -1.1685
11555TIP3   OH234600   2.975   1.171   1.072  0.3875 -0.5282  0.1814
11555TIP3    H134601   2.901   1.205   1.022  0.2558 -0.0689  0.6919
11555TIP3    H234602   2.981   1.227   1.149  1.1630 -0.6652  0.2289
11556TIP3   OH234603   6.843   3.603   6.624 -0.5453 -0.6477 -0.6939
11556TIP3    H134604   6.870   3.533   6.564  0.1784 -0.3369 -0.7335
11556TIP3    H234605   6.771   3.564   6.675  1.6730 -2.3852  1.2160
11557TIP3   OH234606   5.678   5.752   1.576 -0.4365  0.1083 -0.1447
11557TIP3    H134607   5.751   5.714   1.623 -0.4373  0.9959  0.6027
11557TIP3    H234608   5.607   5.757   1.641 -0.4685  1.2544 -0.2466
11558TIP3   OH234609   3.833   1.933   5.290  0.2672 -0.4913  0.3095
11558TIP3    H134610   3.740   1.925   5.269  0.3793 -1.2928  0.1298
11558TIP3    H234611   3.875   1.958   5.208  0.3531 -1.1402  0.1553
11559TIP3   OH234612   5.446   5.232   5.831  0.1890 -0.0191 -0.1221
11559TIP3    H134613   5.461   5.321   5.802 -1.7364  0.5288  0.4688
11559TIP3    H234614   5.510   5.179   5.784 -0.5311  1.2986 -2.6391
11560TIP3   OH234615   8.054   5.828   6.517  0.2476 -0.5686 -0.3503
11560TIP3    H134616   8.070   5.734   6.507  1.2208 -0.5649  0.9195
11560TIP3    H234617   8.119   5.869   6.461 -0.3201 -0.6625 -1.0735
11561TIP3   OH234618   0.368   7.884   0.041  0.1296  0.3648  0.0136
11561TIP3    H134619   0.275   7.909   0.046 -0.0280 -0.4537  1.2800
11561TIP3    H234620   0.372   7.797   0.081  1.3068  0.0148 -0.8516
11562TIP3   OH234621   8.168   2.766   5.411  0.2674 -0.7415 -0.5495
11562TIP3    H134622   8.211   2.847   5.385  1.6243 -0.8543  1.2998
11562TIP3    H234623   8.105   2.749   5.340 -0.0638  1.9182 -0.9604
11563TIP3   OH234624   5.101   5.732   4.445 -0.5184 -0.2840  0.0166
11563TIP3    H134625   5.138   5.756   4.530 -0.7809 -0.3388  0.1496
11563TIP3    H234626   5.037   5.664   4.466 -1.3724  0.4722 -0.0889
11564TIP3   OH234627   5.318   3.809   5.597 -0.0994  0.7099 -0.5272
11564TIP3    H134628   5.286   3.851   5.677 -0.2153 -0.4164  0.0277
11564TIP3    H234629   5.406   3.780   5.619 -0.6743 -0.9413 -0.2886
11565TIP3   OH234630   6.942   6.610   5.778  0.7504  0.5162  0.4502
11565TIP3    H134631   6.916   6.519   5.764  0.3634  0.7312 -0.2092
11565TIP3    H234632   7.017   6.623   5.720 -0.8384  1.3971 -1.4498
11566TIP3   OH234633   3.983   2.378   6.087 -0.6421  0.6980 -0.0967
11566TIP3    H134634   4.043   2.449   6.066  0.5162  0.2822  1.7026
11566TIP3    H234635   3.900   2.403   6.046 -0.1155  2.8332  0.1081
11567TIP3   OH234636   4.898   4.754   4.954 -0.3877 -0.0196 -0.0945
11567TIP3    H134637   4.826   4.698   4.981 -1.2536  2.2473  2.4942
11567TIP3    H234638   4.861   4.810   4.886  0.3247 -2.0595 -2.2623
11568TIP3   OH234639   6.998   4.691   5.001  0.0643 -0.4863 -0.3157
11568TIP3    H134640   7.021   4.632   4.929  1.8125 -0.5666  0.2721
11568TIP3    H234641   6.955   4.636   5.065  0.0680 -0.7698 -0.5539
11569TIP3   OH234642   6.876   5.194   6.240 -0.2584 -0.6040 -0.6238
11569TIP3    H134643   6.835   5.272   6.279  0.2758 -0.2949 -0.6748
11569TIP3    H234644   6.804   5.147   6.199 -0.7384 -0.6274  0.2292
11570TIP3   OH234645   6.890   4.675   5.980  0.1010  0.1762  0.6429
11570TIP3    H134646   6.978   4.690   5.944  1.0739  0.3075  3.0099
11570TIP3    H234647   6.835   4.665   5.903  2.5432 -1.9941 -0.9012
11571TIP3   OH234648   5.769   5.119   5.668  0.3152 -0.3121 -0.0683
11571TIP3    H134649   5.864   5.127   5.663  0.2171 -0.2527 -2.4209
11571TIP3    H234650   5.753   5.027   5.685  0.7631 -0.6968 -1.6666
11572TIP3   OH234651   4.760   4.172   5.417 -0.0518  0.2967 -0.4132
11572TIP3    H134652   4.699   4.217   5.476 -1.5621  0.2405 -1.8617
11572TIP3    H234653   4.801   4.243   5.368  2.0235  0.4076  1.4464
11573TIP3   OH234654   4.898   4.289   6.468  0.2042 -0.0703 -0.2892
11573TIP3    H134655   4.883   4.228   6.396 -0.8945  0.7337 -0.7576
11573TIP3    H234656   4.828   4.354   6.460  0.6905  0.6230  0.8730
11574TIP3   OH234657   4.384   5.078   4.297  0.7151  0.6079  0.2952
11574TIP3    H134658   4.476   5.102   4.296  0.5535  1.3356  1.5372
11574TIP3    H234659   4.348   5.124   4.373 -0.5299 -0.1799  0.1983
11575TIP3   OH234660   6.602   5.129   3.530  0.1492 -0.3566  0.2909
11575TIP3    H134661   6.685   5.090   3.556 -1.1796 -2.3999  1.5897
11575TIP3    H234662   6.611   5.222   3.553  2.1079 -0.5290  0.2872
11576TIP3   OH234663   7.714   7.590   4.716  0.6468 -0.0717  0.2380
11576TIP3    H134664   7.807   7.577   4.734  0.4745 -0.4726  0.8681
11576TIP3    H234665   7.712   7.645   4.638  1.4214  0.5138  0.6242
11577TIP3   OH234666   4.962   0.040   0.049 -0.3675 -0.0471 -0.1739
11577TIP3    H134667   4.879   0.055   0.095 -0.0709  1.1891 -0.0130
11577TIP3    H234668   5.028   0.037   0.119  0.1766  2.5247 -0.5165
11578TIP3   OH234669   8.472   1.922   6.626 -0.3866 -0.3428 -0.1466
11578TIP3    H134670   8.407   1.881   6.570  0.1426 -0.8569 -0.3820
11578TIP3    H234671   8.435   1.917   6.714 -0.0816 -1.7900 -0.0999
11579TIP3   OH234672   0.896   6.769   4.944 -0.2577 -0.0832  0.4166
11579TIP3    H134673   0.865   6.850   4.902  1.3994 -0.2335 -1.1301
11579TIP3    H234674   0.849   6.699   4.899  0.1335 -0.1268  0.0729
11580TIP3   OH234675   4.864   4.162   6.215 -0.1601 -0.3827 -0.1106
11580TIP3    H134676   4.951   4.149   6.176  0.2095  0.8271  0.2954
11580TIP3    H234677   4.806   4.177   6.140  0.3762  0.9394 -0.2832
11581TIP3   OH234678   8.349   5.118   5.862 -0.0658  0.0804 -0.0841
11581TIP3    H134679   8.255   5.113   5.843 -0.1067  0.6374 -0.0241
11581TIP3    H234680   8.355   5.102   5.956 -0.1754  0.8846  0.0617
11582TIP3   OH234681   6.074   3.565   5.780  0.1503 -0.3876  0.3930
11582TIP3    H134682   6.131   3.569   5.856  0.9586 -0.3206 -0.2056
11582TIP3    H234683   6.132   3.545   5.707 -0.5082  0.2279 -0.3183
11583TIP3   OH234684   5.592   4.300   5.087  0.2081 -0.4060  0.5154
11583TIP3    H134685   5.563   4.298   4.996 -0.4775 -1.3822  0.7340
11583TIP3    H234686   5.544   4.227   5.128  1.5321 -0.8242  1.3422
11584TIP3   OH234687   5.997   3.760   5.515 -0.6743 -0.4203 -0.3237
11584TIP3    H134688   6.083   3.719   5.514 -1.3578 -1.8687 -1.9570
11584TIP3    H234689   5.935   3.687   5.518 -1.8544  0.5764  0.0449
11585TIP3   OH234690   6.849   5.725   4.094  0.1141  0.6483 -0.3889
11585TIP3    H134691   6.926   5.730   4.037 -0.0227  0.7811 -0.5643
11585TIP3    H234692   6.885   5.722   4.182  0.3443 -0.0762 -0.5030
11586TIP3   OH234693   6.130   3.237   5.727 -0.1020 -0.3069 -0.5590
11586TIP3    H134694   6.154   3.316   5.775 -0.3406 -0.1576 -0.6854
11586TIP3    H234695   6.140   3.166   5.790 -0.4107 -0.1126 -0.2937
11587TIP3   OH234696   4.185   4.946   5.591 -0.1990  0.1019 -0.0806
11587TIP3    H134697   4.206   5.034   5.559 -0.5927 -0.1826 -1.1476
11587TIP3    H234698   4.175   4.956   5.686 -1.6375  1.4769 -0.3598
11588TIP3   OH234699   4.024   5.363   5.083  0.3270  0.2102  0.5654
11588TIP3    H134700   4.007   5.285   5.135  1.7118 -1.2510 -1.0829
11588TIP3    H234701   4.009   5.335   4.993 -0.1839  2.1449  0.0293
11589TIP3   OH234702   2.329   0.309   0.458  0.3729 -0.0171  0.2810
11589TIP3    H134703   2.296   0.281   0.543 -0.0711  0.6425  0.3352
11589TIP3    H234704   2.369   0.395   0.475  0.3380  0.0905 -0.1635
11590TIP3   OH234705   2.215   6.347   6.843  0.3241 -0.9668  0.4299
11590TIP3    H134706   2.216   6.443   6.839 -0.3567 -0.9560  0.4421
11590TIP3    H234707   2.307   6.322   6.834  0.2552 -0.4124 -2.3045
11591TIP3   OH234708   5.663   4.978   6.797 -0.5197  0.3440 -0.5865
11591TIP3    H134709   5.635   4.901   6.748 -0.6934  1.3045 -2.0522
11591TIP3    H234710   5.615   4.974   6.879  2.4084 -3.2122  1.1313
11592TIP3   OH234711   7.976   6.538   4.745 -0.2980  0.1193  0.2917
11592TIP3    H134712   8.023   6.485   4.680  0.0062  0.6692  0.0660
11592TIP3    H234713   7.987   6.628   4.715 -1.8144  0.2263  0.0248
11593TIP3   OH234714   0.384   5.804   4.703 -0.4795 -0.4603  0.1551
11593TIP3    H134715   0.410   5.795   4.611  0.5100 -0.2848  0.4098
11593TIP3    H234716   0.403   5.719   4.742 -1.5153 -0.7441  0.0557
11594TIP3   OH234717   7.855   6.287   5.210  0.0661  0.4987  0.2959
11594TIP3    H134718   7.818   6.280   5.121 -0.3800  2.3545  0.3182
11594TIP3    H234719   7.925   6.222   5.211 -1.6453 -1.4397 -0.5364
11595TIP3   OH234720   0.322   6.757   4.271  0.4767 -0.6314  0.4069
11595TIP3    H134721   0.334   6.697   4.198 -0.0403  0.2469 -0.4002
11595TIP3    H234722   0.231   6.742   4.299  0.6384 -0.8879  0.8163
11596TIP3   OH234723   5.518   5.369   4.686  0.4351  0.2170 -0.1796
11596TIP3    H134724   5.508   5.431   4.758 -0.2899  0.2796 -0.3333
11596TIP3    H234725   5.565   5.295   4.725 -0.4442  0.0112  0.5023
11597TIP3   OH234726   4.693   5.524   4.883  0.5239  0.3978  0.6616
11597TIP3    H134727   4.619   5.464   4.888  1.6020 -1.0011 -0.1210
11597TIP3    H234728   4.752   5.495   4.953  0.6292  1.1377  0.8902
11598TIP3   OH234729   8.382   5.050   6.146  0.1310  0.7135  0.4488
11598TIP3    H134730   8.390   5.139   6.182 -2.1590  1.3535 -0.5017
11598TIP3    H234731   8.469   5.029   6.113  0.2755  3.3509 -0.9716
11599TIP3   OH234732   4.919   6.113   4.424 -0.3320  0.1486  0.7311
11599TIP3    H134733   4.902   6.190   4.370  0.4348  0.5963  1.1263
11599TIP3    H234734   4.832   6.086   4.454 -0.5956  0.9408  0.6998
11600TIP3   OH234735   4.295   3.781   5.268 -0.7940 -0.2669 -0.1350
11600TIP3    H134736   4.348   3.751   5.194 -0.5805 -1.4877  0.4884
11600TIP3    H234737   4.341   3.747   5.345 -0.4223  1.8797  0.6415
11601TIP3   OH234738   6.095   6.002   4.757  0.7044 -0.1330  0.8358
11601TIP3    H134739   6.056   6.076   4.711  0.1979 -1.5714 -1.1287
11601TIP3    H234740   6.020   5.954   4.794  0.7275 -1.5698 -0.8989
11602TIP3   OH234741   7.050   6.453   6.200 -0.7354 -0.0008 -0.3384
11602TIP3    H134742   7.056   6.522   6.134 -0.4639  1.1335  0.8530
11602TIP3    H234743   7.137   6.412   6.201 -0.1245  1.2678  0.6657
11603TIP3   OH234744   5.829   4.939   5.168  0.2678 -0.1231 -0.1857
11603TIP3    H134745   5.786   4.857   5.143  0.2528 -0.3439  0.5660
11603TIP3    H234746   5.908   4.912   5.213 -0.8247  0.2337  2.0348
11604TIP3   OH234747   7.211   5.843   6.533 -0.2174 -0.0549  0.1360
11604TIP3    H134748   7.246   5.855   6.445 -0.2594 -1.9264 -0.1601
11604TIP3    H234749   7.212   5.931   6.572  0.2416  0.7019 -1.5544
11605TIP3   OH234750   7.336   5.684   3.744  0.1521 -0.2981  0.8290
11605TIP3    H134751   7.362   5.676   3.653 -2.3875 -1.5141  0.1576
11605TIP3    H234752   7.418   5.699   3.792  1.5700 -0.2638 -1.5478
11606TIP3   OH234753   5.440   5.545   5.855  0.0062 -0.0015 -0.4685
11606TIP3    H134754   5.457   5.631   5.893 -0.8981  0.3825 -0.9349
11606TIP3    H234755   5.357   5.554   5.809  0.2333 -0.9446 -1.0881
11607TIP3   OH234756   7.504   4.488   4.873 -0.0781  0.1409  0.3989
11607TIP3    H134757   7.421   4.537   4.871 -0.3272 -0.3112 -0.6199
11607TIP3    H234758   7.492   4.417   4.810  1.6288  0.9327 -0.8380
11608TIP3   OH234759   4.904   5.151   5.405  0.2079  0.1224  0.0461
11608TIP3    H134760   4.996   5.174   5.392  0.4919 -0.9231  0.1441
11608TIP3    H234761   4.903   5.099   5.486 -0.3130 -0.7512 -0.5058
11609TIP3   OH234762   4.509   3.157   4.466  0.4295  0.3902  0.3801
11609TIP3    H134763   4.477   3.246   4.481  0.9691  0.6653 -0.0642
11609TIP3    H234764   4.470   3.131   4.383 -1.2373 -0.5099  1.4132
11610TIP3   OH234765   7.455   5.217   4.378 -0.1055  0.3316  0.0318
11610TIP3    H134766   7.363   5.196   4.394  0.1343  0.8884  2.3630
11610TIP3    H234767   7.460   5.312   4.389  0.8108  0.2599  0.2808
11611TIP3   OH234768   1.621   7.359   5.774 -0.8983 -0.0763 -0.5928
11611TIP3    H134769   1.674   7.325   5.702  1.3458  0.2584  0.8647
11611TIP3    H234770   1.629   7.293   5.843  2.0780  2.4825  1.6169
11612TIP3   OH234771   0.373   4.413   4.755 -0.2186  0.1420 -0.0430
11612TIP3    H134772   0.408   4.502   4.764 -0.0806  0.0245  0.5937
11612TIP3    H234773   0.435   4.369   4.696  0.2479  0.1876  0.4070
11613TIP3   OH234774   6.403   4.044   4.363  0.3852  0.4884 -0.0812
11613TIP3    H134775   6.337   4.098   4.321  0.1583  0.3011  0.0339
11613TIP3    H234776   6.486   4.075   4.328  0.1229 -0.5665 -1.6955
11614TIP3   OH234777   5.777   4.263   5.658 -0.2986 -0.0038 -0.6474
11614TIP3    H134778   5.815   4.188   5.702 -0.0464  0.8328  0.5739
11614TIP3    H234779   5.812   4.339   5.704 -2.1162  0.8313 -0.5734
11615TIP3   OH234780   1.258   2.207   0.078 -0.0551  0.0402 -0.3321
11615TIP3    H134781   1.241   2.266   0.152  0.4946 -0.0312 -0.1514
11615TIP3    H234782   1.187   2.226   0.016  0.6253  1.5242 -0.6680
11616TIP3   OH234783   6.174   4.549   4.575  0.0636 -0.1910  0.0601
11616TIP3    H134784   6.133   4.491   4.511  1.8074 -0.8247 -0.5176
11616TIP3    H234785   6.153   4.510   4.660 -0.6217 -0.4239 -0.2085
11617TIP3   OH234786   5.924   5.484   5.588  0.3123 -0.4036  0.3449
11617TIP3    H134787   6.011   5.518   5.567 -0.2841  0.1530 -1.3163
11617TIP3    H234788   5.885   5.552   5.644  0.1449  0.4060 -0.7246
11618TIP3   OH234789   4.242   4.600   4.332 -0.1738 -0.2007  0.1527
11618TIP3    H134790   4.287   4.516   4.336 -0.6738 -0.6055 -1.9920
11618TIP3    H234791   4.230   4.625   4.423  2.4795 -1.0924  0.7694
11619TIP3   OH234792   6.078   5.315   6.461  0.1200 -0.6300  0.2006
11619TIP3    H134793   5.997   5.366   6.451 -0.5671 -1.6001  0.7991
11619TIP3    H234794   6.135   5.348   6.392 -1.4792 -1.2442 -1.4596
11620TIP3   OH234795   4.655   4.797   4.547  0.1253 -0.5106 -0.0869
11620TIP3    H134796   4.694   4.720   4.506 -0.3910  0.4177 -2.4562
11620TIP3    H234797   4.563   4.795   4.520  0.0564  0.8207 -0.0290
11621TIP3   OH234798   2.388   0.953   0.298 -0.2838  0.0173 -0.0200
11621TIP3    H134799   2.389   0.980   0.206  0.9991  0.6344  0.1707
11621TIP3    H234800   2.411   1.032   0.347 -1.2886 -0.2233  0.8625
11622TIP3   OH234801   4.273   3.116   5.416 -0.1221 -0.5176  0.3777
11622TIP3    H134802   4.190   3.068   5.419 -1.3703  1.4435 -1.0332
11622TIP3    H234803   4.247   3.206   5.394  2.4886 -0.1807 -1.5704
11623TIP3   OH234804   5.939   6.623   1.427 -0.1275 -0.0244 -0.4645
11623TIP3    H134805   5.874   6.554   1.442  1.8562 -2.2447 -1.7219
11623TIP3    H234806   6.002   6.612   1.498 -0.8558  1.8005  0.4695
11624TIP3   OH234807   3.972   4.917   4.774  0.1842  0.1843  0.6535
11624TIP3    H134808   3.999   4.950   4.688 -3.0058  0.6105 -0.2642
11624TIP3    H234809   3.965   4.822   4.762 -0.4540  0.2623  0.3387
11625TIP3   OH234810   4.369   5.909   4.375 -0.5538  0.7135 -0.0732
11625TIP3    H134811   4.344   5.997   4.349  1.1757  1.2804  0.1330
11625TIP3    H234812   4.316   5.851   4.319 -2.1370  1.8560  0.2202
11626TIP3   OH234813   6.394   4.163   4.615  0.3406 -0.3349 -0.3642
11626TIP3    H134814   6.383   4.084   4.562 -2.0628  0.2803 -0.8674
11626TIP3    H234815   6.423   4.229   4.552  2.1914 -0.7574  0.0270
11627TIP3   OH234816   7.124   2.832   6.153 -0.2463  0.1794 -0.0448
11627TIP3    H134817   7.120   2.746   6.110 -1.4611  0.4877 -0.5758
11627TIP3    H234818   7.126   2.811   6.247  0.5580 -0.4488 -0.1947
11628TIP3   OH234819   6.920   4.280   3.428 -0.2405 -0.2967  0.1342
11628TIP3    H134820   6.826   4.270   3.437 -0.2557 -1.0838 -0.7927
11628TIP3    H234821   6.948   4.325   3.508 -1.0487 -2.2618  1.5348
11629TIP3   OH234822   0.021   5.746   6.606 -0.0842 -0.0240  0.5650
11629TIP3    H134823   0.063   5.672   6.651 -1.6542 -0.8895  0.6306
11629TIP3    H234824  -0.042   5.780   6.670  0.6941  1.4388  0.5693
11630TIP3   OH234825   5.712   4.614   6.196 -0.4369  0.4039  0.2368
11630TIP3    H134826   5.678   4.659   6.119 -2.6391  0.8466  1.4511
11630TIP3    H234827   5.763   4.680   6.243  1.2056  0.0406 -0.9882
11631TIP3   OH234828   6.923   5.239   4.713  0.2095  0.0902  0.6487
11631TIP3    H134829   6.929   5.262   4.806  0.2941  1.0306  0.4199
11631TIP3    H234830   6.890   5.319   4.671  0.6696 -0.1597 -0.1969
11632TIP3   OH234831   6.387   5.720   3.974  0.1907 -0.1437  0.4538
11632TIP3    H134832   6.353   5.773   4.047  0.0522  1.7342 -0.9456
11632TIP3    H234833   6.482   5.735   3.976  0.2360 -0.4204  0.4760
11633TIP3   OH234834   6.091   5.375   5.901 -0.4243 -0.1043 -0.5227
11633TIP3    H134835   6.134   5.321   5.835  0.1860 -1.9545  1.3108
11633TIP3    H234836   6.066   5.313   5.970 -0.2278  1.8649  1.3907
11634TIP3   OH234837   6.053   5.958   6.012  0.4829  0.1945  0.5711
11634TIP3    H134838   6.116   5.899   6.053 -0.7410 -0.1610  1.9697
11634TIP3    H234839   6.064   6.041   6.056  0.4057  0.3078  0.3796
11635TIP3   OH234840   7.851   6.735   5.063 -0.2629 -0.4269  0.3583
11635TIP3    H134841   7.791   6.798   5.102  0.8960  0.6858  0.3720
11635TIP3    H234842   7.839   6.744   4.969 -2.0653 -2.1444  0.3811
11636TIP3   OH234843   1.001   5.590   0.057 -0.4063 -0.0692  0.2193
11636TIP3    H134844   0.983   5.641  -0.022 -0.0743 -1.2750 -0.6615
11636TIP3    H234845   1.035   5.507   0.024  3.6547  0.8921  1.7622
11637TIP3   OH234846   5.600   6.111   5.533 -0.1556 -0.2918  0.3418
11637TIP3    H134847   5.694   6.100   5.520  0.1511  1.8284  0.5636
11637TIP3    H234848   5.592   6.145   5.622 -1.0632  0.4267 -0.0055
11638TIP3   OH234849   4.715   2.485   4.876 -0.8410 -0.2163  0.4956
11638TIP3    H134850   4.807   2.463   4.865 -0.6747  0.5147  0.4038
11638TIP3    H234851   4.715   2.577   4.903 -1.6415  0.4563 -1.7273
11639TIP3   OH234852   4.106   2.480   2.656  0.3297 -0.6805  0.7503
11639TIP3    H134853   4.185   2.491   2.709 -0.0056 -3.2252  1.8402
11639TIP3    H234854   4.069   2.568   2.650  1.4168 -0.0225  3.1379
11640TIP3   OH234855   4.977   5.859   4.243 -0.4235 -0.0484  0.6675
11640TIP3    H134856   5.006   5.782   4.292 -0.3687  0.6019  1.6731
11640TIP3    H234857   4.967   5.927   4.309  1.4987  1.3943 -0.4531
11641TIP3   OH234858   4.375   3.677   4.632  0.4259 -0.5272 -0.1226
11641TIP3    H134859   4.363   3.760   4.586 -0.3826 -1.3786 -1.4924
11641TIP3    H234860   4.314   3.682   4.706  0.3204  0.0626 -0.2482
11642TIP3   OH234861   7.759   6.153   6.262  0.0421 -0.2311 -0.7336
11642TIP3    H134862   7.848   6.183   6.244  0.7101 -2.0458 -0.5146
11642TIP3    H234863   7.715   6.230   6.298  2.1339  0.0935  1.2350
11643TIP3   OH234864   1.230   6.481   4.573 -0.4304 -0.2214 -0.3009
11643TIP3    H134865   1.184   6.412   4.622 -0.2661  0.4531  0.8250
11643TIP3    H234866   1.163   6.517   4.515 -0.4380 -1.5314 -1.1276
11644TIP3   OH234867   8.442   4.751   4.036  0.2290 -0.0568 -0.2764
11644TIP3    H134868   8.523   4.745   3.987  0.6312 -1.9494  0.5896
11644TIP3    H234869   8.451   4.688   4.108 -2.1017 -0.5295 -0.3308
11645TIP3   OH234870   1.641   7.345   4.185 -0.4715 -0.8805  0.0763
11645TIP3    H134871   1.671   7.342   4.094 -0.0502 -0.1871  0.1904
11645TIP3    H234872   1.701   7.406   4.228 -1.6381  0.0265  0.4511
11646TIP3   OH234873   0.021   5.949   5.592 -0.1735  0.2262  0.1898
11646TIP3    H134874  -0.020   5.963   5.678  2.0369  1.4621  1.0883
11646TIP3    H234875   0.021   5.854   5.581 -2.8304  0.1722  0.3521
11647TIP3   OH234876   5.908   6.995   4.921  0.5530  0.2124 -0.0314
11647TIP3    H134877   5.914   6.939   4.998 -2.0917  1.0373  0.8547
11647TIP3    H234878   5.854   6.945   4.859  0.0430  0.8346 -0.0982
11648TIP3   OH234879   7.678   4.044   4.658  0.0083 -0.3802 -0.5667
11648TIP3    H134880   7.593   4.004   4.641 -0.4615 -0.2103  1.2402
11648TIP3    H234881   7.737   4.002   4.596 -1.5249  0.0542 -2.3794
11649TIP3   OH234882   3.765   3.411   5.586 -0.2587  0.1793  0.5662
11649TIP3    H134883   3.681   3.449   5.561 -1.8076 -2.7944  1.0115
11649TIP3    H234884   3.742   3.338   5.644  2.7258  0.3724  2.1045
11650TIP3   OH234885   5.009   5.862   4.880  0.1122 -0.2267  0.1264
11650TIP3    H134886   5.000   5.800   4.952  0.2979 -0.2844  0.1003
11650TIP3    H234887   4.919   5.884   4.856 -0.0015  1.9296  2.2247
11651TIP3   OH234888   6.530   4.534   5.349  0.0761 -0.2234 -0.4088
11651TIP3    H134889   6.472   4.530   5.272 -1.1351  0.5351  0.4458
11651TIP3    H234890   6.591   4.461   5.337 -1.3347 -1.3175 -1.1236
11652TIP3   OH234891   8.380   6.718   5.276 -0.1171  0.3282  0.4836
11652TIP3    H134892   8.459   6.679   5.313 -0.5896  1.2593  2.5480
11652TIP3    H234893   8.317   6.646   5.272 -0.2919  0.3636  2.2233
11653TIP3   OH234894   6.680   4.451   4.208 -0.0258 -0.3143  0.5600
11653TIP3    H134895   6.640   4.479   4.290 -1.6051 -0.5701 -0.1128
11653TIP3    H234896   6.731   4.373   4.231 -1.9589 -1.4849  0.9666
11654TIP3   OH234897   6.969   3.410   6.455 -0.3407  0.2451  0.0979
11654TIP3    H134898   6.921   3.360   6.389 -1.1589  0.3588  0.6029
11654TIP3    H234899   7.046   3.443   6.408  0.4631 -1.8579 -0.1209
11655TIP3   OH234900   2.657   1.676   0.512  0.1686  0.0044  0.2101
11655TIP3    H134901   2.632   1.723   0.432 -1.6837 -0.7758  0.3059
11655TIP3    H234902   2.614   1.591   0.504  0.6371 -0.3803  1.6732
11656TIP3   OH234903   7.467   6.474   3.931  0.3133  0.4284  0.2559
11656TIP3    H134904   7.530   6.544   3.944  1.1089  0.0114 -1.3030
11656TIP3    H234905   7.382   6.519   3.929  0.8047  1.3493 -0.6384
11657TIP3   OH234906   4.093   1.240   1.041  0.3641  0.0863  0.6145
11657TIP3    H134907   4.031   1.173   1.070  0.0027 -1.7422 -3.9738
11657TIP3    H234908   4.173   1.191   1.021  1.7967  1.7885  2.0031
11658TIP3   OH234909   6.262   4.106   3.903 -0.0363  0.2761  0.7697
11658TIP3    H134910   6.185   4.137   3.855  1.3347  0.8643 -1.1154
11658TIP3    H234911   6.328   4.173   3.888  1.4092 -1.1033  0.8317
11659TIP3   OH234912   6.147   5.931   4.429  0.0819 -0.7207  0.2999
11659TIP3    H134913   6.117   6.015   4.463  1.0790 -0.3425  0.2513
11659TIP3    H234914   6.066   5.884   4.408 -0.4614  0.5223 -0.4198
11660TIP3   OH234915   5.591   4.860   6.439 -0.5626  1.0406 -0.0762
11660TIP3    H134916   5.670   4.907   6.462 -0.7920  0.9034  1.0198
11660TIP3    H234917   5.558   4.825   6.522 -0.2416 -1.2984 -0.8798
11661TIP3   OH234918   7.234   5.947   3.773  0.1052  0.5601 -0.5452
11661TIP3    H134919   7.254   6.028   3.726  0.3761  0.5845 -0.3853
11661TIP3    H234920   7.314   5.895   3.769  0.8819  1.4936  1.8116
11662TIP3   OH234921   5.098   4.758   3.849 -0.2172  0.2895  0.3924
11662TIP3    H134922   5.150   4.741   3.927  0.3079 -1.0633 -0.2565
11662TIP3    H234923   5.162   4.773   3.780 -0.6867 -0.0161 -0.1109
11663TIP3   OH234924   6.601   3.366   5.905  0.2853 -0.2860  0.0153
11663TIP3    H134925   6.546   3.291   5.883  0.7805 -0.6846  0.1364
11663TIP3    H234926   6.691   3.335   5.894  0.5552 -0.5122  2.5691
11664TIP3   OH234927   6.100   4.312   4.953 -0.3328  0.0889 -0.0283
11664TIP3    H134928   6.042   4.237   4.941  0.4893 -0.4045 -0.9740
11664TIP3    H234929   6.095   4.359   4.869 -1.4010  1.4976  0.7955
11665TIP3   OH234930   5.679   5.431   4.008  0.1591 -0.0836 -0.3495
11665TIP3    H134931   5.678   5.500   4.074  1.0075  0.5010 -0.9437
11665TIP3    H234932   5.744   5.460   3.944  0.5562 -1.4543 -0.5734
11666TIP3   OH234933   6.948   4.947   6.607  0.3719  0.1675  0.5016
11666TIP3    H134934   7.013   4.915   6.670  0.3147  0.5038  0.7332
11666TIP3    H234935   6.915   4.867   6.565  0.6451 -0.0361  0.6645
11667TIP3   OH234936   2.596   6.062   1.742 -0.4330  0.3423 -0.3621
11667TIP3    H134937   2.557   5.975   1.753  2.4672 -1.2158 -1.9651
11667TIP3    H234938   2.580   6.106   1.825 -0.2545 -2.4253  1.1950
11668TIP3   OH234939   6.676   2.936   5.628 -0.1671  0.2366 -0.2054
11668TIP3    H134940   6.646   2.990   5.555  1.7708 -2.1799 -2.8895
11668TIP3    H234941   6.769   2.921   5.611  0.0857 -1.2699  2.2103
11669TIP3   OH234942   7.544   7.833   5.784  0.4265 -0.2737 -0.5435
11669TIP3    H134943   7.588   7.817   5.867 -1.6830  0.9174  0.8414
11669TIP3    H234944   7.470   7.772   5.783  1.0833 -1.0736 -2.0728
11670TIP3   OH234945   6.169   5.133   4.907 -0.4399 -0.0544  0.0101
11670TIP3    H134946   6.108   5.185   4.854 -0.2436 -0.3106 -0.4712
11670TIP3    H234947   6.174   5.049   4.861 -0.7234 -0.4878  0.7578
11671TIP3   OH234948   7.275   3.718   4.861 -0.3351 -0.3386  0.0802
11671TIP3    H134949   7.203   3.746   4.805  0.6850  1.3550 -0.4105
11671TIP3    H234950   7.331   3.666   4.803 -0.6160 -0.7773  0.1989
11672TIP3   OH234951   5.246   4.467   5.809  0.2533 -0.1131 -0.3339
11672TIP3    H134952   5.327   4.476   5.859  0.9663 -0.8892 -1.3265
11672TIP3    H234953   5.237   4.549   5.762  0.7026 -0.1859 -0.5543
11673TIP3   OH234954   7.675   5.613   4.227  0.1696 -0.0278 -0.4930
11673TIP3    H134955   7.752   5.671   4.221 -0.0421  0.1566 -1.5475
11673TIP3    H234956   7.615   5.660   4.284  0.3881  0.3623 -0.5764
11674TIP3   OH234957   4.821   4.065   5.695 -0.4702 -0.6301 -0.2192
11674TIP3    H134958   4.750   4.001   5.691 -0.3590 -0.7666 -0.0238
11674TIP3    H234959   4.807   4.121   5.619 -1.0589 -0.3726  0.0802
11675TIP3   OH234960   7.452   4.098   4.201 -0.5710 -0.2115  0.1305
11675TIP3    H134961   7.506   4.024   4.172  0.3078  0.5485 -0.2056
11675TIP3    H234962   7.364   4.062   4.207 -0.1399 -1.3119  0.0527
11676TIP3   OH234963   4.517   3.241   5.252  0.6911  0.1114  0.8791
11676TIP3    H134964   4.490   3.163   5.203  0.0450  0.7902  0.1496
11676TIP3    H234965   4.440   3.265   5.303  0.6686  0.6881  0.5715
11677TIP3   OH234966   4.742   5.792   4.509  0.2406  0.2663 -0.0159
11677TIP3    H134967   4.813   5.769   4.569  0.2758 -1.5363 -0.7425
11677TIP3    H234968   4.748   5.728   4.438 -0.5750  1.6197 -1.3320
11678TIP3   OH234969   6.584   4.975   6.923 -0.7479 -0.4388  0.1157
11678TIP3    H134970   6.658   4.921   6.896  0.3303  0.5596  1.0364
11678TIP3    H234971   6.508   4.934   6.882  0.1651 -2.1529  0.1195
11679TIP3   OH234972   6.547   6.903   4.814 -0.1433 -0.5003  0.1444
11679TIP3    H134973   6.500   6.968   4.867 -0.0847 -1.0150  0.8341
11679TIP3    H234974   6.628   6.946   4.788  1.1090 -1.1586  2.7717
11680TIP3   OH234975   6.872   5.943   2.564 -0.5714  0.2126 -0.0137
11680TIP3    H134976   6.859   6.028   2.607  0.0932 -0.3126  1.2591
11680TIP3    H234977   6.805   5.886   2.602 -0.1626 -0.1822  0.1222
11681TIP3   OH234978   6.830   7.510   6.083  0.4958  0.6474  0.0852
11681TIP3    H134979   6.792   7.434   6.040  1.6742  0.0399  0.1053
11681TIP3    H234980   6.769   7.530   6.155 -0.3740  0.4005 -0.5746
11682TIP3   OH234981   6.248   5.803   5.035  0.4135  0.2888 -0.2137
11682TIP3    H134982   6.289   5.765   5.113  0.0373  0.0493 -0.1298
11682TIP3    H234983   6.168   5.752   5.023  0.0752  0.8340 -0.3011
11683TIP3   OH234984   1.180   7.815   1.106  0.6995  0.9869  0.3331
11683TIP3    H134985   1.265   7.789   1.141  0.3594 -3.0496 -1.5814
11683TIP3    H234986   1.200   7.851   1.019  0.4310 -0.8535 -0.5189
11684TIP3   OH234987   8.283   6.923   3.361  0.4977 -0.1335  0.9477
11684TIP3    H134988   8.266   6.876   3.443  0.8154 -0.5587  0.7704
11684TIP3    H234989   8.199   6.924   3.316  0.2419  0.3906  1.4287
11685TIP3   OH234990   7.168   5.650   6.283 -0.0193 -0.2587 -0.1948
11685TIP3    H134991   7.086   5.695   6.303 -0.8920 -1.1553 -1.6188
11685TIP3    H234992   7.187   5.598   6.361  0.0272  1.1547  0.7486
11686TIP3   OH234993   5.361   4.232   5.622  0.0624 -0.4532  0.0811
11686TIP3    H134994   5.330   4.255   5.534  1.1371  0.0413 -0.1833
11686TIP3    H234995   5.332   4.304   5.677  1.4612  0.4284 -0.3234
11687TIP3   OH234996   3.508   0.345   0.309 -0.0461  0.3063 -0.1083
11687TIP3    H134997   3.462   0.407   0.366 -2.3196 -1.8241  0.4662
11687TIP3    H234998   3.588   0.324   0.357 -1.3524 -0.5335  1.7856
11688TIP3   OH234999   0.650   7.831   0.741  0.0611 -0.1991 -0.2511
11688TIP3    H135000   0.670   7.924   0.734  1.3485 -0.4396  0.2067
11688TIP3    H235001   0.661   7.798   0.652  0.7708 -0.1411 -0.1894
11689TIP3   OH235002   5.390   4.484   3.416  0.0748  0.6422 -0.2775
11689TIP3    H135003   5.360   4.453   3.330 -0.8964  0.1803  0.2155
11689TIP3    H235004   5.442   4.412   3.451 -0.1521  0.5264 -0.1711
11690TIP3   OH235005   5.534   4.069   5.960  0.4409  0.6655  0.4670
11690TIP3    H135006   5.617   4.023   5.948 -0.1319 -1.1345  2.8608
11690TIP3    H235007   5.550   4.158   5.927  2.6199 -0.2812 -1.1254
11691TIP3   OH235008   6.063   4.744   5.982  0.1387 -0.1505 -0.6373
11691TIP3    H135009   6.140   4.690   5.965 -0.8522 -1.6653 -0.4070
11691TIP3    H235010   6.016   4.746   5.899 -1.1809 -1.8706  0.0352
11692TIP3   OH235011   4.938   0.951   2.083  0.6472  0.6153  0.3352
11692TIP3    H135012   4.846   0.925   2.093  0.3234  1.9222  0.8848
11692TIP3    H235013   4.983   0.911   2.157  0.3737  0.6110  0.5004
11693TIP3   OH235014   5.881   6.117   4.012  0.6723  0.1876  0.8481
11693TIP3    H135015   5.815   6.173   3.969 -0.1546 -1.2700  0.1826
11693TIP3    H235016   5.961   6.133   3.963 -0.4847 -2.2048 -1.9704
11694TIP3   OH235017   2.630   0.678   0.066 -0.2341  0.3136 -0.3483
11694TIP3    H135018   2.562   0.668  -0.000 -0.8698  0.3623  0.2890
11694TIP3    H235019   2.706   0.632   0.030 -0.3561  0.9302 -1.4112
11695TIP3   OH235020   6.917   7.511   5.807  0.4201  0.0557 -0.1099
11695TIP3    H135021   6.957   7.579   5.753 -0.7482  0.2625 -0.7173
11695TIP3    H235022   6.905   7.552   5.892 -1.1464  0.9268 -0.7346
11696TIP3   OH235023   6.540   7.237   3.799 -0.1506 -0.6087  0.2512
11696TIP3    H135024   6.495   7.159   3.832 -0.7757 -0.6469 -0.6566
11696TIP3    H235025   6.542   7.225   3.704 -1.6566  1.1936 -0.0507
11697TIP3   OH235026   2.764   0.080   1.261 -0.2415 -0.5747  0.0156
11697TIP3    H135027   2.776   0.022   1.186  1.7478 -0.2561  0.0633
11697TIP3    H235028   2.832   0.054   1.323 -1.7810 -0.7544  1.6706
11698TIP3   OH235029   3.903   0.475   0.049  0.1426  0.3396 -0.2209
11698TIP3    H135030   3.994   0.467   0.020  0.2181 -1.0294  0.3736
11698TIP3    H235031   3.901   0.556   0.099  0.8083  0.8972 -1.0765
11699TIP3   OH235032   4.986   2.855   5.228  0.2183  0.2446  0.0967
11699TIP3    H135033   5.068   2.894   5.196  0.5417 -0.2176  0.3585
11699TIP3    H235034   5.014   2.786   5.287 -0.3595 -0.2289 -0.1811
11700TIP3   OH235035   0.886   7.088   1.047  0.3697 -0.6556 -0.2519
11700TIP3    H135036   0.815   7.141   1.010  0.3003 -0.9581 -0.5597
11700TIP3    H235037   0.916   7.035   0.973  0.5873 -0.8832  0.0015
11701TIP3   OH235038   8.177   2.615   4.983 -0.5160  0.2689  0.5635
11701TIP3    H135039   8.246   2.554   5.008 -2.3915 -2.5723 -0.8252
11701TIP3    H235040   8.214   2.664   4.909 -0.0033 -1.3957 -0.3351
11702TIP3   OH235041   5.791   5.202   5.111 -0.6902 -0.1399 -0.2931
11702TIP3    H135042   5.708   5.200   5.160 -0.7861  1.4676 -0.3741
11702TIP3    H235043   5.819   5.110   5.109 -2.2847 -0.6610  0.0418
11703TIP3   OH235044   5.070   4.734   5.676 -0.3210  0.2336 -0.5091
11703TIP3    H135045   5.049   4.708   5.766 -0.8138  0.7083 -0.4905
11703TIP3    H235046   5.165   4.750   5.677 -0.2004 -0.4816 -0.2531
11704TIP3   OH235047   1.044   7.513   0.488 -0.3443 -0.1440 -0.6043
11704TIP3    H135048   1.025   7.465   0.407 -1.9259  0.2440 -0.4990
11704TIP3    H235049   1.138   7.527   0.487 -0.2946 -0.5095 -2.1840
11705TIP3   OH235050   4.468   0.448   1.602 -0.4377 -0.4337 -0.0583
11705TIP3    H135051   4.462   0.520   1.539  0.8903  0.3707  0.7038
11705TIP3    H235052   4.562   0.438   1.619 -0.7869 -0.3855  2.0831
11706TIP3   OH235053   5.920   0.953   0.201 -0.5517  0.0309 -0.0720
11706TIP3    H135054   5.917   0.895   0.125 -0.8887  1.6319 -1.3096
11706TIP3    H235055   6.001   1.003   0.189 -0.1652 -0.3064  1.0810
11707TIP3   OH235056   6.734   3.306   5.199 -0.1636 -0.9474 -0.8608
11707TIP3    H135057   6.642   3.329   5.194 -0.0699  0.1463  1.4860
11707TIP3    H235058   6.779   3.370   5.144 -0.4130  1.3662  1.5342
11708TIP3   OH235059   5.038   6.769   5.414  0.3355  0.4019  0.4176
11708TIP3    H135060   4.971   6.835   5.396  1.3342  1.1635 -0.5629
11708TIP3    H235061   5.038   6.713   5.337 -1.1452 -1.3276  1.6286
11709TIP3   OH235062   4.401   4.855   4.501 -0.0533  0.6050  0.4175
11709TIP3    H135063   4.320   4.873   4.548  1.0112  0.8385  2.1902
11709TIP3    H235064   4.413   4.932   4.445 -1.3030  0.3389 -0.2468
11710TIP3   OH235065   3.718   4.208   5.232  0.0995 -0.6454  0.3333
11710TIP3    H135066   3.703   4.152   5.156 -0.0529 -0.5703  0.3057
11710TIP3    H235067   3.752   4.289   5.195  0.1125 -0.6417  0.3523
11711TIP3   OH235068   7.932   5.489   6.880 -0.1443 -0.0292  0.0831
11711TIP3    H135069   7.890   5.404   6.894  0.9098 -0.3512  1.4412
11711TIP3    H235070   7.940   5.497   6.785 -0.8385 -1.1529 -0.0764
11712TIP3   OH235071   6.298   6.438   4.373 -0.0670 -0.6062  0.5059
11712TIP3    H135072   6.307   6.502   4.444  1.2040  0.3399 -0.4748
11712TIP3    H235073   6.279   6.491   4.296  2.5721 -1.2326 -0.6288
11713TIP3   OH235074   5.731   3.971   5.139 -0.1523  0.2211  0.5244
11713TIP3    H135075   5.791   3.971   5.213  0.4185  0.4691  0.0583
11713TIP3    H235076   5.646   3.995   5.178 -0.3223 -1.8364  1.4714
11714TIP3   OH235077   5.428   4.848   4.327  0.1281 -0.2890 -0.2624
11714TIP3    H135078   5.344   4.869   4.286  0.1037 -1.8610 -1.0370
11714TIP3    H235079   5.478   4.930   4.322 -0.4357 -0.0384 -2.0938
11715TIP3   OH235080   5.075   5.228   4.730  0.3533  0.5955 -0.1763
11715TIP3    H135081   5.014   5.286   4.686  1.1071  1.8501  0.4137
11715TIP3    H235082   5.097   5.273   4.812  2.2700  0.3094 -0.5004
11716TIP3   OH235083  -0.002   7.046   5.410 -0.3105 -0.2264 -0.8276
11716TIP3    H135084   0.054   7.014   5.339 -0.2503  1.8314 -1.7518
11716TIP3    H235085   0.027   6.997   5.487  4.3310  2.2209 -0.7902
11717TIP3   OH235086   8.414   5.709   4.592 -0.0442  0.1275  0.3673
11717TIP3    H135087   8.464   5.785   4.563 -0.4835  0.7078  1.1149
11717TIP3    H235088   8.443   5.694   4.682  0.8525 -1.2788 -0.1293
11718TIP3   OH235089   6.677   4.677   5.753  0.0277 -0.4143 -0.6723
11718TIP3    H135090   6.634   4.726   5.683 -0.9859 -1.3772 -0.7312
11718TIP3    H235091   6.721   4.604   5.708 -0.3372 -0.8383 -0.3445
11719TIP3   OH235092   4.183   5.052   4.596  0.0928 -0.4095  0.1351
11719TIP3    H135093   4.258   5.067   4.653 -1.0245 -0.3864  1.6396
11719TIP3    H235094   4.178   5.130   4.542  0.6688 -0.0577  0.5875
11720TIP3   OH235095   6.782   4.967   6.038 -0.0738  0.5618  0.3056
11720TIP3    H135096   6.726   5.007   6.105 -2.0973  0.8470 -1.4904
11720TIP3    H235097   6.725   4.904   5.994  2.5078 -2.9002  1.7392
11721TIP3   OH235098   4.660   0.026   0.533  0.2066 -0.3034 -0.2233
11721TIP3    H135099   4.685   0.042   0.624  0.1022 -1.1352 -0.0424
11721TIP3    H235100   4.633  -0.066   0.532 -0.8835  0.0126 -0.8485
11722TIP3   OH235101   5.166   5.848   6.034 -0.2992  0.1269 -0.1940
11722TIP3    H135102   5.148   5.802   5.952  0.0512 -0.0047 -0.1973
11722TIP3    H235103   5.250   5.892   6.019  0.8431 -1.6376  0.8259
11723TIP3   OH235104   7.438   5.809   4.641  0.2171  0.4503  0.1391
11723TIP3    H135105   7.470   5.898   4.650  1.6874 -0.0119 -0.5064
11723TIP3    H235106   7.478   5.761   4.714 -0.0496  0.1661  0.1020
11724TIP3   OH235107   5.465   5.899   4.619  0.0633  0.0109  0.2159
11724TIP3    H135108   5.375   5.890   4.651 -0.4663  2.5291 -0.4593
11724TIP3    H235109   5.517   5.912   4.698 -0.7072  2.2809  0.3859
11725TIP3   OH235110   7.075   3.334   5.544 -0.5440 -0.6749 -0.5456
11725TIP3    H135111   6.981   3.320   5.542 -0.5406 -0.7992  0.0746
11725TIP3    H235112   7.087   3.421   5.507 -0.8555 -0.8724 -1.1139
11726TIP3   OH235113   6.130   3.798   6.028  0.4480 -0.5768 -0.0683
11726TIP3    H135114   6.155   3.829   5.941 -0.7953  0.3471 -0.1114
11726TIP3    H235115   6.212   3.798   6.077  1.2092 -1.3573 -1.2999
11727TIP3   OH235116   0.655   7.459   4.850  0.3902  0.2997 -0.2021
11727TIP3    H135117   0.674   7.520   4.922  0.6670  2.6625 -2.2315
11727TIP3    H235118   0.573   7.490   4.813  0.1564 -1.0280 -0.8130
11728TIP3   OH235119   4.444   2.402   0.303 -0.5863 -0.1930  0.1444
11728TIP3    H135120   4.439   2.436   0.214 -0.0962 -0.5032 -0.0030
11728TIP3    H235121   4.370   2.342   0.311 -0.5743 -0.2381 -0.0858
11729TIP3   OH235122   6.652   4.848   5.518  0.3925 -0.3537 -0.6094
11729TIP3    H135123   6.747   4.850   5.527  0.4268  1.5193 -1.2185
11729TIP3    H235124   6.634   4.899   5.438 -1.1583 -0.1099 -0.1294
11730TIP3   OH235125   7.168   4.254   4.747  0.3436  0.4046 -0.2973
11730TIP3    H135126   7.110   4.214   4.680 -0.7328 -2.7036  2.3465
11730TIP3    H235127   7.255   4.223   4.723  0.1295  0.2549 -0.9259
11731TIP3   OH235128   3.227   0.284   1.023  0.1596  0.0792 -0.0576
11731TIP3    H135129   3.313   0.245   1.038  0.7654  0.4378 -2.3651
11731TIP3    H235130   3.245   0.377   1.011 -0.6785  0.2992  0.3101
11732TIP3   OH235131   5.201   4.370   4.708  0.1454  0.3922  0.0339
11732TIP3    H135132   5.135   4.310   4.741 -1.1517  1.6028 -0.2940
11732TIP3    H235133   5.193   4.448   4.764  0.7825  0.8317 -0.4754
11733TIP3   OH235134   0.975   7.114   4.906  0.2121  0.1305 -0.7663
11733TIP3    H135135   1.068   7.102   4.927 -0.2034 -0.8434  0.6339
11733TIP3    H235136   0.974   7.181   4.838  1.9082  0.5183 -0.4394
11734TIP3   OH235137   7.178   2.247   5.805  0.5303  0.2612  0.1299
11734TIP3    H135138   7.246   2.228   5.869  1.0003  0.2455 -0.3700
11734TIP3    H235139   7.220   2.232   5.720 -0.5357 -1.3029 -0.1571
11735TIP3   OH235140   4.721   3.932   5.284  0.3382  0.2117  0.2258
11735TIP3    H135141   4.651   3.890   5.334 -1.1979  0.3213 -1.7734
11735TIP3    H235142   4.738   4.014   5.331 -1.3856  0.5268  0.3309
11736TIP3   OH235143   6.382   6.109   5.335 -0.5552  0.4371  0.3742
11736TIP3    H135144   6.319   6.036   5.338  1.0873 -1.0975 -1.1381
11736TIP3    H235145   6.448   6.086   5.400  0.4828  0.0648 -0.7898
11737TIP3   OH235146   7.837   6.572   1.054 -0.2596 -0.3353  0.0582
11737TIP3    H135147   7.877   6.528   1.129  0.4107  0.2693  0.0616
11737TIP3    H235148   7.777   6.635   1.092 -1.5074 -1.4921  0.0481
11738TIP3   OH235149   2.686   5.729   1.382  0.4761  0.1795  0.5462
11738TIP3    H135150   2.604   5.741   1.430  0.1635  0.0362  0.0419
11738TIP3    H235151   2.753   5.729   1.451  0.0075 -0.2481  1.0101
11739TIP3   OH235152   5.292   6.932   4.301  0.0304 -0.7683 -0.5189
11739TIP3    H135153   5.335   7.018   4.296 -1.9079  0.1385 -1.9258
11739TIP3    H235154   5.281   6.916   4.395 -1.0719  1.2608 -0.2962
11740TIP3   OH235155   5.356   4.889   6.267  0.7302 -0.2472 -0.0021
11740TIP3    H135156   5.426   4.875   6.330  0.9532  1.2315  0.0840
11740TIP3    H235157   5.284   4.834   6.298  0.6261  0.9082  1.8692
11741TIP3   OH235158   7.404   6.206   6.379 -0.0844 -0.1922 -0.1352
11741TIP3    H135159   7.420   6.185   6.471  1.7520 -1.4766 -0.7126
11741TIP3    H235160   7.479   6.260   6.354 -0.8710  0.6247 -0.7177
11742TIP3   OH235161   4.831   0.491   0.304 -0.0462  0.0324 -0.2541
11742TIP3    H135162   4.923   0.471   0.290  0.2191  0.9647  0.1312
11742TIP3    H235163   4.792   0.407   0.330  0.9300 -0.1023  0.8055
11743TIP3   OH235164   4.400   6.049   5.454  0.2052 -0.5105  0.0959
11743TIP3    H135165   4.447   6.027   5.374  0.1954  2.5529 -0.7779
11743TIP3    H235166   4.315   6.004   5.444  0.7556 -1.3652 -0.8927
11744TIP3   OH235167   8.160   5.020   5.099  0.0021  0.0682 -0.4644
11744TIP3    H135168   8.165   5.099   5.045  1.0423  1.2166  1.2420
11744TIP3    H235169   8.066   5.008   5.115 -0.3194 -0.3140 -2.5152
11745TIP3   OH235170   5.664   5.656   5.089  0.2124  0.0124 -0.1262
11745TIP3    H135171   5.728   5.624   5.152 -0.7680  1.0891  1.4446
11745TIP3    H235172   5.628   5.736   5.129 -0.6528  0.5410 -1.8928
11746TIP3   OH235173   7.315   4.833   5.183 -0.3018  0.1476  0.3534
11746TIP3    H135174   7.228   4.871   5.179 -0.4128 -0.2305 -0.9919
11746TIP3    H235175   7.320   4.792   5.270 -1.0360  1.1360  0.8741
11747TIP3   OH235176   7.397   6.610   6.123 -0.0654  0.1230 -0.2367
11747TIP3    H135177   7.357   6.525   6.139  2.2077 -0.9953 -0.3715
11747TIP3    H235178   7.336   6.655   6.064 -1.5987 -1.1313  0.3675
11748TIP3   OH235179   5.961   7.673   4.720  0.1953 -0.0210 -0.3068
11748TIP3    H135180   5.977   7.630   4.636  1.3472  0.0561 -0.1456
11748TIP3    H235181   5.880   7.721   4.708  0.3057 -0.0809 -1.3548
11749TIP3   OH235182   7.001   7.910   4.824 -0.3191  0.1182 -0.2835
11749TIP3    H135183   6.979   7.961   4.746  0.9370  0.7116 -0.2463
11749TIP3    H235184   7.048   7.970   4.881 -0.0849 -0.6808  0.3783
11750TIP3   OH235185   6.889   4.883   4.840  0.1675 -0.0238  0.4284
11750TIP3    H135186   6.949   4.825   4.888 -2.7387 -2.5393  1.2307
11750TIP3    H235187   6.877   4.958   4.898 -0.1913 -1.1554  1.8403
11751TIP3   OH235188   0.127   5.740   1.382 -0.2892  0.9521 -0.0946
11751TIP3    H135189   0.110   5.759   1.474 -0.7075  0.6196 -0.1023
11751TIP3    H235190   0.222   5.740   1.374 -0.2390  0.2813  0.4850
11752TIP3   OH235191   7.848   7.040   0.151  0.6190 -0.1666  0.6876
11752TIP3    H135192   7.893   6.955   0.145  1.5346  0.3389  0.2477
11752TIP3    H235193   7.755   7.018   0.147  0.7695 -1.3282  2.6839
11753TIP3   OH235194   5.671   2.985   3.870  0.3055 -0.3550  0.4722
11753TIP3    H135195   5.591   2.933   3.873 -1.7765  2.6315 -0.6234
11753TIP3    H235196   5.673   3.032   3.953  1.1212 -0.7160  0.6570
11754TIP3   OH235197   4.218   3.428   6.886 -0.9547  0.4043  0.6263
11754TIP3    H135198   4.305   3.449   6.852 -0.3874 -1.0438  1.1397
11754TIP3    H235199   4.162   3.498   6.853 -0.3380 -0.6291 -2.8328
11755TIP3   OH235200   3.995   3.781   5.305 -0.4779  0.3361 -0.1532
11755TIP3    H135201   4.079   3.757   5.342 -0.1928 -0.4561 -1.2734
11755TIP3    H235202   3.950   3.830   5.374  0.9874  0.9541  0.3692
11756TIP3   OH235203   6.703   4.925   6.350  0.1075 -0.5078  0.1996
11756TIP3    H135204   6.702   5.007   6.398  2.1997 -0.4785  0.2041
11756TIP3    H235205   6.753   4.865   6.405 -1.0333 -1.6829 -0.0031
11757TIP3   OH235206   5.010   4.752   4.645  0.2129 -0.5650 -0.2573
11757TIP3    H135207   4.923   4.790   4.634  0.5318  0.3721  0.4039
11757TIP3    H235208   5.070   4.816   4.606  0.7902 -0.1590  1.2478
11758TIP3   OH235209   4.976   5.050   5.653 -0.2706  0.0321 -0.5844
11758TIP3    H135210   4.948   4.988   5.721 -3.0373  2.5567  0.6706
11758TIP3    H235211   5.065   5.073   5.677 -0.2209 -1.2563  0.5562
11759TIP3   OH235212   5.370   4.721   5.703  0.0405  0.4179  0.7687
11759TIP3    H135213   5.428   4.795   5.687  0.1076  0.5495  1.5778
11759TIP3    H235214   5.421   4.644   5.678 -0.7072  0.7482 -1.9087
11760TIP3   OH235215   4.374   0.264   0.656 -0.7970  0.2035 -0.1949
11760TIP3    H135216   4.341   0.345   0.618 -1.1585  0.9713  1.6704
11760TIP3    H235217   4.424   0.223   0.587 -1.3116  1.6172 -1.4299
11761TIP3   OH235218   4.297   3.213   2.470 -0.0409 -0.0294 -0.1342
11761TIP3    H135219   4.356   3.280   2.436  0.1261 -0.0986  0.0197
11761TIP3    H235220   4.284   3.236   2.562  0.1078 -0.2754 -0.0523
11762TIP3   OH235221   6.415   5.511   6.486  0.1172  0.1591 -0.6384
11762TIP3    H135222   6.406   5.605   6.468 -0.6830 -0.1665 -1.9866
11762TIP3    H235223   6.510   5.497   6.492  0.2281  1.1867  0.3781
11763TIP3   OH235224   7.300   6.678   5.024 -0.0613 -0.3152  0.0767
11763TIP3    H135225   7.352   6.622   4.967  1.1694  4.1407 -3.5484
11763TIP3    H235226   7.213   6.680   4.983 -0.8787 -1.6049  1.6916
11764TIP3   OH235227   4.427   3.195   5.987 -1.0975  0.6515 -0.5096
11764TIP3    H135228   4.481   3.273   5.971  1.1686 -1.2691 -2.4725
11764TIP3    H235229   4.393   3.171   5.901 -0.7131 -1.2831 -0.1372
11765TIP3   OH235230   5.262   7.644   5.118  0.0237 -0.3453 -0.5415
11765TIP3    H135231   5.317   7.711   5.077 -1.1803  0.4695 -0.8640
11765TIP3    H235232   5.232   7.685   5.199 -0.0702 -0.8077 -0.3436
11766TIP3   OH235233   5.828   5.039   3.385  0.1278  0.0945 -0.4705
11766TIP3    H135234   5.921   5.014   3.381  1.6104  4.9490  0.3444
11766TIP3    H235235   5.800   5.012   3.473  1.7472  1.4843  0.5139
11767TIP3   OH235236   0.700   5.625   3.499  0.0871  0.3284  0.4538
11767TIP3    H135237   0.681   5.713   3.530  1.1135  0.3773  0.9577
11767TIP3    H235238   0.740   5.581   3.574  0.2606 -0.3345 -0.0230
11768TIP3   OH235239   7.033   5.528   6.034 -0.1063 -0.3457 -0.0360
11768TIP3    H135240   7.038   5.517   6.129  0.7681 -0.5586 -0.1080
11768TIP3    H235241   7.103   5.589   6.012 -1.2579  0.8736 -0.3656
11769TIP3   OH235242   1.331   6.222   3.695  0.0707  0.0905  0.2864
11769TIP3    H135243   1.410   6.276   3.699  0.0530  0.2767 -1.4291
11769TIP3    H235244   1.262   6.281   3.665 -0.2291 -0.5534 -0.3459
11770TIP3   OH235245   0.111   5.921   4.644  0.1970 -1.2437 -0.0382
11770TIP3    H135246   0.168   5.855   4.682  1.6642 -0.2607 -0.4815
11770TIP3    H235247   0.154   5.947   4.563 -0.0924  0.5980  0.3700
11771TIP3   OH235248   0.463   6.054   5.212  0.2747 -0.1751 -0.4706
11771TIP3    H135249   0.378   6.010   5.220  0.0999  0.3196  0.3960
11771TIP3    H235250   0.462   6.121   5.280  1.0144  0.4082 -1.0271
11772TIP3   OH235251   1.796   6.528   3.088 -0.4392  0.2170  0.3902
11772TIP3    H135252   1.767   6.614   3.117 -3.2971 -0.6840  0.4004
11772TIP3    H235253   1.838   6.489   3.165 -0.7135  0.9127  0.8944
11773TIP3   OH235254   7.103   6.014   4.093 -0.3405 -0.2538 -0.4494
11773TIP3    H135255   7.184   6.013   4.145 -0.2519  1.9756 -0.4988
11773TIP3    H235256   7.035   5.984   4.153  0.3876 -1.4658 -0.2036
11774TIP3   OH235257   0.694   5.836   5.367 -0.0228 -0.4554  0.2996
11774TIP3    H135258   0.755   5.775   5.407  0.1336 -0.5901 -0.1343
11774TIP3    H235259   0.749   5.895   5.315 -0.0925  0.5827  1.3858
11775TIP3   OH235260   0.647   6.197   4.499 -0.1931 -0.4203 -0.0723
11775TIP3    H135261   0.722   6.253   4.519  0.8659 -1.7489 -0.2380
11775TIP3    H235262   0.611   6.235   4.418 -1.1116  1.5912  1.2449
11776TIP3   OH235263   1.460   6.402   4.974  0.0311 -0.2205  0.0810
11776TIP3    H135264   1.376   6.386   5.016  1.4847 -1.6972  2.5430
11776TIP3    H235265   1.480   6.321   4.928  0.1407  0.1158 -0.4729
11777TIP3   OH235266   2.600   6.054   3.539  0.0914  0.1252  0.2982
11777TIP3    H135267   2.610   6.030   3.446 -2.7130 -0.3387  0.0584
11777TIP3    H235268   2.680   6.101   3.560  2.0918 -2.2546 -1.5561
11778TIP3   OH235269   0.315   5.480   4.319 -0.3966 -0.5348 -0.4946
11778TIP3    H135270   0.383   5.495   4.385 -0.0319  0.3005 -1.0421
11778TIP3    H235271   0.237   5.522   4.355 -1.0399 -2.7986  0.8205
11779TIP3   OH235272   1.314   6.150   3.076  0.8243 -0.2999 -0.3061
11779TIP3    H135273   1.338   6.186   2.990  0.2390 -1.7770 -1.1091
11779TIP3    H235274   1.222   6.173   3.087 -0.0690 -2.9329 -1.6147
11780TIP3   OH235275   3.991   0.494   0.802 -0.3117  0.2187  0.2372
11780TIP3    H135276   3.969   0.530   0.716 -0.4779  0.6457  0.4580
11780TIP3    H235277   3.938   0.415   0.810 -2.3197  1.6108  1.0648
11781TIP3   OH235278   2.120   5.638   4.004 -0.6075 -0.7281  0.2906
11781TIP3    H135279   2.080   5.637   3.917  0.0053  0.6794 -0.0164
11781TIP3    H235280   2.194   5.576   3.996 -0.6018 -0.6679 -0.1679
11782TIP3   OH235281   1.677   3.462   6.210 -0.0258  0.0334  0.1131
11782TIP3    H135282   1.755   3.494   6.255  0.5285 -0.0175 -0.7987
11782TIP3    H235283   1.710   3.403   6.143 -0.8364  0.1559 -0.4116
11783TIP3   OH235284   7.494   5.703   4.914 -0.4150  0.4859  0.2325
11783TIP3    H135285   7.477   5.629   4.973 -0.6958 -0.9317 -1.5669
11783TIP3    H235286   7.589   5.714   4.917 -0.2788 -0.5016 -0.1041
11784TIP3   OH235287   7.304   6.940   6.328 -0.1692 -0.3378  0.1647
11784TIP3    H135288   7.321   7.032   6.307  0.7085 -0.2529  1.2162
11784TIP3    H235289   7.387   6.907   6.361 -1.0181 -0.9494  1.7294
11785TIP3   OH235290   8.132   4.867   4.563 -0.3696  0.4152 -0.0504
11785TIP3    H135291   8.122   4.795   4.626  4.1485 -0.5760 -0.3225
11785TIP3    H235292   8.075   4.842   4.490  0.8079 -2.7408  0.0099
11786TIP3   OH235293   0.097   5.504   6.120 -0.2164  0.0955  0.0337
11786TIP3    H135294   0.152   5.434   6.086 -0.9215 -0.8931  0.8939
11786TIP3    H235295   0.154   5.553   6.179  0.5288  0.7954 -1.2557
11787TIP3   OH235296   7.036   6.923   3.929  0.1180  0.1807 -0.1386
11787TIP3    H135297   7.027   6.918   3.834  0.2412  0.1289 -0.1476
11787TIP3    H235298   7.054   7.015   3.947 -0.3627  0.2726 -0.1268
11788TIP3   OH235299   1.934   5.663   3.797 -0.5513  0.0426  0.0110
11788TIP3    H135300   1.977   5.726   3.739 -0.8397 -0.2366 -0.5078
11788TIP3    H235301   1.854   5.707   3.825 -0.2908  0.2755  0.4005
11789TIP3   OH235302   7.192   4.049   4.989 -0.0474 -0.3158 -0.0376
11789TIP3    H135303   7.188   4.130   4.938 -1.3117  0.7594  1.6913
11789TIP3    H235304   7.128   3.991   4.948 -0.2040  0.1042 -0.3896
11790TIP3   OH235305   1.290   5.655   6.068  0.0930 -0.5661  0.0692
11790TIP3    H135306   1.341   5.596   6.123 -1.3067 -0.8089  1.1400
11790TIP3    H235307   1.294   5.616   5.981 -0.5434 -2.0810  0.6982
11791TIP3   OH235308   3.197   0.103   4.133  0.7837 -0.0678  0.7774
11791TIP3    H135309   3.267   0.087   4.196  1.8429 -0.2534 -0.4298
11791TIP3    H235310   3.207   0.195   4.109 -1.0913  0.6661  2.6152
11792TIP3   OH235311   7.871   5.304   4.130 -0.5971 -0.1330  0.9515
11792TIP3    H135312   7.905   5.220   4.099 -0.5943 -0.3719  1.5998
11792TIP3    H235313   7.927   5.369   4.089 -0.9450 -0.4185 -0.0115
11793TIP3   OH235314   0.897   6.295   5.279  0.3784 -0.2025  0.1928
11793TIP3    H135315   0.855   6.380   5.266  0.1744 -0.2478  0.5293
11793TIP3    H235316   0.991   6.314   5.279  0.3121  0.2031  1.3949
11794TIP3   OH235317   0.606   3.769   4.527  0.1216 -0.3128 -0.7091
11794TIP3    H135318   0.592   3.700   4.592  0.4568  0.5206  0.2518
11794TIP3    H235319   0.699   3.760   4.503 -0.0998 -0.8736 -1.3714
11795TIP3   OH235320   1.889   5.434   5.335 -0.3405  0.0018  0.4288
11795TIP3    H135321   1.925   5.362   5.385  0.3683 -1.6583 -2.3416
11795TIP3    H235322   1.957   5.502   5.338 -0.3877 -0.0092  1.8140
11796TIP3   OH235323   0.623   5.880   5.635 -0.4709 -0.5980 -0.3034
11796TIP3    H135324   0.612   5.791   5.669 -2.1009  0.2202  1.3760
11796TIP3    H235325   0.603   5.872   5.541  2.4418 -2.5575 -0.8066
11797TIP3   OH235326   0.127   7.107   4.442  0.1951 -0.0535  0.7794
11797TIP3    H135327   0.103   7.154   4.521 -1.8598 -2.3569  1.5904
11797TIP3    H235328   0.045   7.066   4.413  0.8165  1.0546 -2.7566
11798TIP3   OH235329   1.846   7.843   3.875  0.1310 -0.1227  0.5408
11798TIP3    H135330   1.910   7.798   3.820  0.4837 -0.0219  0.8664
11798TIP3    H235331   1.874   7.935   3.873 -0.4846  0.0614  0.0179
11799TIP3   OH235332   8.238   7.185   4.127  0.1492 -0.2759 -0.1571
11799TIP3    H135333   8.197   7.264   4.162 -1.8107 -0.3531 -2.1817
11799TIP3    H235334   8.317   7.217   4.082 -1.3079  0.7138 -2.0651
11800TIP3   OH235335   7.205   7.552   2.081 -0.0405 -0.0105  0.6457
11800TIP3    H135336   7.256   7.558   2.162  0.2986 -2.5464  0.6670
11800TIP3    H235337   7.201   7.458   2.062 -1.4614  0.4299 -1.4343
11801TIP3   OH235338   1.859   7.483   4.304 -0.1929  0.2055  0.3587
11801TIP3    H135339   1.948   7.451   4.294  0.0229  0.9729 -0.3349
11801TIP3    H235340   1.864   7.546   4.376 -0.2580 -0.0369  0.5762
11802TIP3   OH235341   0.761   4.935   5.565 -0.6186  0.1223 -0.3492
11802TIP3    H135342   0.766   4.982   5.648  0.8048 -1.7191  0.6207
11802TIP3    H235343   0.667   4.922   5.551 -0.8120 -1.5413  2.1320
11803TIP3   OH235344   0.359   6.122   6.494  0.5345  0.4254  0.1590
11803TIP3    H135345   0.303   6.158   6.563  1.0032 -0.3368  0.9447
11803TIP3    H235346   0.329   6.032   6.483  0.8336  0.3742 -0.2441
11804TIP3   OH235347   0.343   5.630   3.843  0.3993  0.1350 -0.7565
11804TIP3    H135348   0.356   5.549   3.793 -0.4771  0.6947 -1.9239
11804TIP3    H235349   0.345   5.700   3.777  1.9225  1.1518  0.3302
11805TIP3   OH235350   7.311   2.481   0.828  0.1570 -0.1657 -0.1078
11805TIP3    H135351   7.396   2.508   0.794  1.1771 -0.8041  1.8494
11805TIP3    H235352   7.293   2.398   0.785  0.5170 -0.0056 -0.5657
11806TIP3   OH235353   4.127   0.737   0.773  0.1065  0.0589 -0.2262
11806TIP3    H135354   4.221   0.723   0.756 -0.3952 -0.7614 -2.4414
11806TIP3    H235355   4.105   0.670   0.837  1.5361  1.7691  2.1536
11807TIP3   OH235356   0.285   4.426   3.182 -0.9927 -0.0756  0.4721
11807TIP3    H135357   0.377   4.446   3.198 -0.8424 -0.0800 -0.3788
11807TIP3    H235358   0.286   4.361   3.111 -1.7082  1.0588 -0.6093
11808TIP3   OH235359   2.616   0.086   6.269 -0.3881  0.3977 -0.0438
11808TIP3    H135360   2.655   0.016   6.216  0.9973 -0.0077  1.4543
11808TIP3    H235361   2.540   0.116   6.219 -0.7045 -1.8424 -0.9342
11809TIP3   OH235362   6.000   5.252   6.159 -0.2117 -0.3176 -0.1921
11809TIP3    H135363   5.991   5.164   6.124  0.2055 -0.4304 -0.0193
11809TIP3    H235364   5.914   5.272   6.195 -1.2039  0.5361 -2.9365
11810TIP3   OH235365   7.291   7.945   6.569  0.1461  0.1926 -0.1812
11810TIP3    H135366   7.342   7.900   6.502  0.2467  2.6233 -1.7846
11810TIP3    H235367   7.264   8.027   6.528 -0.2571  1.4870  2.5559
11811TIP3   OH235368   8.171   5.332   5.222  0.4497  0.3975 -0.2689
11811TIP3    H135369   8.120   5.353   5.300 -0.4478  0.6915 -0.9170
11811TIP3    H235370   8.244   5.279   5.253 -0.7404 -0.7674  0.5597
11812TIP3   OH235371   2.910   5.551   4.522 -0.1071 -0.2160 -0.1519
11812TIP3    H135372   2.977   5.494   4.561  0.8168  1.8011  1.3101
11812TIP3    H235373   2.958   5.606   4.461 -0.4697  1.0215  0.6594
11813TIP3   OH235374   6.828   4.496   5.614 -0.0516 -0.2529 -0.0984
11813TIP3    H135375   6.807   4.449   5.533 -0.8446 -0.8692  0.4565
11813TIP3    H235376   6.896   4.443   5.655  0.2938  0.0179 -0.3150
11814TIP3   OH235377   7.719   6.766   2.681  0.7291  0.1247  0.0463
11814TIP3    H135378   7.690   6.689   2.731  0.6738  1.0166  1.4000
11814TIP3    H235379   7.748   6.730   2.597 -0.3951 -1.2451  0.2248
11815TIP3   OH235380   5.976   2.234   0.754 -0.1017  0.5433 -0.0351
11815TIP3    H135381   5.951   2.147   0.786  1.0819 -0.0929 -0.7927
11815TIP3    H235382   5.980   2.288   0.833  0.1718 -0.3536  0.5826
11816TIP3   OH235383   0.585   6.992   4.046 -0.7805 -0.9881  0.0907
11816TIP3    H135384   0.673   6.956   4.040  0.7337  2.3091  1.4442
11816TIP3    H235385   0.574   7.013   4.138 -2.4814 -0.0942 -0.2995
11817TIP3   OH235386   7.512   4.448   4.214  0.4145 -0.4461  0.0094
11817TIP3    H135387   7.479   4.424   4.301  0.8231 -0.1594  0.2444
11817TIP3    H235388   7.490   4.541   4.205  1.8025 -0.0632  0.4676
11818TIP3   OH235389   7.913   4.298   6.566  0.5153  0.3106 -0.1951
11818TIP3    H135390   8.000   4.286   6.528  0.0229  0.2777 -1.3332
11818TIP3    H235391   7.898   4.219   6.618  0.6069 -0.3265 -1.1207
11819TIP3   OH235392   1.766   5.201   4.250 -0.0522  0.0410 -0.3701
11819TIP3    H135393   1.852   5.165   4.228  1.0081  1.8332  0.7013
11819TIP3    H235394   1.720   5.204   4.166  0.8348 -1.1493 -0.9234
11820TIP3   OH235395   8.067   5.502   4.731  0.0903  0.0350  0.2616
11820TIP3    H135396   7.995   5.524   4.671 -0.3057  1.7301  1.3251
11820TIP3    H235397   8.141   5.484   4.674 -1.0463 -1.2545 -0.8392
11821TIP3   OH235398   7.290   6.745   4.735  0.6467  0.5555  0.0859
11821TIP3    H135399   7.337   6.736   4.652  0.6115  0.7502  0.0428
11821TIP3    H235400   7.198   6.727   4.712  0.5671  1.0625 -0.0132
11822TIP3   OH235401   6.892   4.223   5.929 -0.3438 -0.7978  0.1933
11822TIP3    H135402   6.893   4.143   5.877 -1.1183 -1.6526  1.4534
11822TIP3    H235403   6.800   4.234   5.953 -0.5352  1.4973 -1.4822
11823TIP3   OH235404   8.124   3.637   5.746 -0.7379  0.3585 -0.7495
11823TIP3    H135405   8.057   3.665   5.683 -1.0257  0.5257 -0.3675
11823TIP3    H235406   8.166   3.718   5.774 -1.7193  0.4326  0.5245
11824TIP3   OH235407   0.412   5.552   4.837 -0.4612 -0.1778  0.0658
11824TIP3    H135408   0.491   5.498   4.831  0.0183  0.6486 -1.4726
11824TIP3    H235409   0.388   5.552   4.930  0.9465 -1.0054  0.4271
11825TIP3   OH235410   0.310   4.995   5.433  0.5890 -0.4036  0.5591
11825TIP3    H135411   0.243   4.965   5.372 -0.3656  1.4812  0.6472
11825TIP3    H235412   0.388   4.945   5.410  0.5880  1.0747 -3.0314
11826TIP3   OH235413   1.096   5.397   6.116  0.0858 -0.2506  0.5268
11826TIP3    H135414   1.134   5.479   6.149  0.5095 -0.3588  0.3068
11826TIP3    H235415   1.018   5.384   6.170  0.5788 -0.2338  1.2610
11827TIP3   OH235416   7.477   4.849   3.452  0.2904  0.2062  0.4097
11827TIP3    H135417   7.386   4.824   3.470  0.7663 -1.3087  0.8029
11827TIP3    H235418   7.527   4.771   3.474  1.5000  0.3593 -1.7670
11828TIP3   OH235419   2.368   7.842   0.014 -0.6295 -0.6622  0.2269
11828TIP3    H135420   2.372   7.888   0.098  0.2664  0.0393 -0.1970
11828TIP3    H235421   2.279   7.805   0.012 -1.1163  0.4324  0.8974
11829TIP3   OH235422   5.436   4.102   5.227  0.3101  0.0649  0.0747
11829TIP3    H135423   5.449   4.089   5.321  0.8201 -2.3187 -0.2726
11829TIP3    H235424   5.359   4.049   5.206  0.7936 -0.2358 -0.9996
11830TIP3   OH235425   7.030   3.687   5.787  0.2943 -0.0304 -0.3950
11830TIP3    H135426   7.019   3.652   5.875 -0.6993  4.8048  1.5716
11830TIP3    H235427   6.943   3.686   5.749  0.2050  0.6444 -0.2051
11831TIP3   OH235428   1.327   5.637   4.865 -0.5609 -0.0949 -0.5095
11831TIP3    H135429   1.320   5.630   4.770  1.2867  1.0713 -0.7534
11831TIP3    H235430   1.361   5.552   4.893  0.3769  0.0802 -1.0738
11832TIP3   OH235431   0.111   4.597   3.069 -0.0749  0.0243 -0.3531
11832TIP3    H135432   0.191   4.550   3.091 -0.6210 -0.5892  0.3388
11832TIP3    H235433   0.096   4.655   3.144 -0.8673 -0.6411 -0.0001
11833TIP3   OH235434   0.119   6.534   4.310 -0.4148  0.2136 -0.1461
11833TIP3    H135435   0.036   6.579   4.297 -0.3207  0.9229  1.6061
11833TIP3    H235436   0.124   6.471   4.237 -2.1723  0.5930 -0.6119
11834TIP3   OH235437   3.118   6.276   5.793 -0.8146 -0.3909 -0.1188
11834TIP3    H135438   3.040   6.264   5.738 -1.0814  0.9943 -0.0720
11834TIP3    H235439   3.083   6.303   5.878 -0.2816  0.7683 -0.2552
11835TIP3   OH235440   7.425   4.168   6.222  0.3143  0.2105  0.7238
11835TIP3    H135441   7.357   4.211   6.171  0.3384 -1.4712 -0.7508
11835TIP3    H235442   7.507   4.200   6.184  0.3335  0.1908  0.7495
11836TIP3   OH235443   0.707   7.227   4.705 -0.3115 -0.5171  0.3137
11836TIP3    H135444   0.728   7.298   4.766  1.8896 -1.4286  0.6481
11836TIP3    H235445   0.717   7.267   4.618  2.5059 -0.8110  0.4716
11837TIP3   OH235446   1.214   6.767   4.804 -0.1648  0.8521  0.3779
11837TIP3    H135447   1.239   6.848   4.849  2.1186 -0.0694  0.8452
11837TIP3    H235448   1.138   6.791   4.751  0.1509  3.1495  0.9285
11838TIP3   OH235449   7.420   5.093   3.544 -0.2258  0.5978 -0.1048
11838TIP3    H135450   7.350   5.100   3.479  0.5680  0.5456 -0.9815
11838TIP3    H235451   7.459   5.007   3.528 -1.3752 -0.2994  1.8342
11839TIP3   OH235452   1.234   4.582   4.022  0.1343 -0.0237 -0.1726
11839TIP3    H135453   1.314   4.559   3.975  1.8427  0.2554  2.5332
11839TIP3    H235454   1.264   4.622   4.103 -2.7715  2.4154 -0.2326
11840TIP3   OH235455   1.417   4.652   4.230 -0.3190 -0.3111  0.2364
11840TIP3    H135456   1.448   4.565   4.255 -0.2198 -0.5643 -0.7772
11840TIP3    H235457   1.452   4.710   4.299  2.4048 -0.6061 -0.8378
11841TIP3   OH235458   1.203   4.795   4.747 -0.0013  0.4612 -0.0797
11841TIP3    H135459   1.115   4.760   4.761  0.5669 -1.0914 -0.3971
11841TIP3    H235460   1.206   4.814   4.653  0.1038  0.2685 -0.1141
11842TIP3   OH235461   0.138   2.068   1.493  0.1414  0.2329  0.0165
11842TIP3    H135462   0.044   2.081   1.496  0.2782  1.1202  0.5623
11842TIP3    H235463   0.167   2.078   1.583  0.6806 -0.6461 -0.0537
11843TIP3   OH235464   7.290   6.434   5.444  0.0840  0.0140  0.3382
11843TIP3    H135465   7.217   6.457   5.501  0.5860  0.4472  0.8121
11843TIP3    H235466   7.257   6.446   5.355 -0.6200 -0.4076  0.5421
11844TIP3   OH235467   7.370   5.707   4.031  0.0525  0.3146 -0.1266
11844TIP3    H135468   7.408   5.776   3.977 -0.9173  0.6210 -0.4176
11844TIP3    H235469   7.300   5.750   4.079 -1.7039 -0.8296 -1.6055
11845TIP3   OH235470   0.896   5.922   5.844  0.2608 -0.6185 -0.6000
11845TIP3    H135471   0.824   5.981   5.822  0.3899 -0.7948 -1.5316
11845TIP3    H235472   0.970   5.956   5.794  1.3901  0.8230  1.9775
11846TIP3   OH235473   7.087   3.817   3.339  0.3599  0.1847  0.0929
11846TIP3    H135474   7.136   3.872   3.278  0.8858  1.7414  1.8692
11846TIP3    H235475   6.999   3.811   3.301  0.5446  1.5319 -0.5603
11847TIP3   OH235476   1.275   5.764   6.471 -0.2066 -1.0140  0.1584
11847TIP3    H135477   1.225   5.798   6.397  0.8439  0.9326  0.3160
11847TIP3    H235478   1.253   5.671   6.473 -3.6476 -0.2689  0.1314
11848TIP3   OH235479   3.015   6.131   4.652  0.5117 -1.0693 -0.1037
11848TIP3    H135480   3.099   6.138   4.696  0.3374 -0.6729  0.1648
11848TIP3    H235481   3.031   6.163   4.563  0.4660 -0.3034  0.1682
11849TIP3   OH235482   0.464   6.062   3.900  0.0260 -0.0123 -1.2329
11849TIP3    H135483   0.505   6.032   3.981 -1.5512 -0.3636 -0.5319
11849TIP3    H235484   0.389   6.004   3.888 -2.0980  2.5224 -0.7544
11850TIP3   OH235485   0.571   6.855   5.027  0.1418  0.2042  0.0963
11850TIP3    H135486   0.637   6.861   5.096 -1.0789  1.3230  1.1866
11850TIP3    H235487   0.622   6.853   4.946  1.6032 -1.5861  1.0222
11851TIP3   OH235488   0.360   7.169   5.351 -0.0921  0.2020  0.2714
11851TIP3    H135489   0.277   7.192   5.392 -0.5021 -0.6563 -0.0682
11851TIP3    H235490   0.336   7.108   5.281  0.8293 -0.0871  0.2047
11852TIP3   OH235491   7.951   5.899   4.752  0.8770  0.0641  0.0132
11852TIP3    H135492   7.933   5.841   4.678  1.3750  0.5085 -0.4566
11852TIP3    H235493   7.913   5.983   4.727  1.3212  0.3010  0.1196
11853TIP3   OH235494   6.777   5.283   4.123 -0.4769  0.5553 -0.0524
11853TIP3    H135495   6.806   5.333   4.199 -1.3449  0.0916  0.5824
11853TIP3    H235496   6.832   5.315   4.051  0.4191  0.9027  0.7909
11854TIP3   OH235497   0.016   6.635   3.240  0.2511  0.6409  0.4444
11854TIP3    H135498   0.053   6.696   3.176 -4.6583  3.3552 -0.0025
11854TIP3    H235499  -0.058   6.594   3.195 -0.9591 -0.2313  3.1095
11855TIP3   OH235500   7.235   3.603   5.164  0.3126 -0.8322 -0.0821
11855TIP3    H135501   7.212   3.688   5.201 -0.5390 -1.5941  1.2002
11855TIP3    H235502   7.294   3.623   5.092 -0.3028  0.8737 -0.1322
11856TIP3   OH235503   0.670   4.265   5.523 -0.4680 -0.1086 -0.3616
11856TIP3    H135504   0.764   4.276   5.508 -0.1920 -0.8507  0.7869
11856TIP3    H235505   0.656   4.298   5.612 -0.8263 -2.4516  0.4831
11857TIP3   OH235506   7.924   5.089   3.954  0.0440 -0.2093 -0.4366
11857TIP3    H135507   7.975   5.118   3.878  1.4949 -2.8757 -0.5544
11857TIP3    H235508   7.837   5.071   3.919  0.3785 -0.3084 -1.2251
11858TIP3   OH235509   0.173   5.047   3.598  0.1328 -0.0087 -0.1125
11858TIP3    H135510   0.139   5.068   3.685 -2.1071 -1.9812 -0.4471
11858TIP3    H235511   0.163   5.128   3.548 -0.7689  0.4773  0.8301
11859TIP3   OH235512   0.909   6.194   2.776 -0.0538 -0.0163  0.0481
11859TIP3    H135513   0.841   6.155   2.721  0.2980 -0.4753 -0.0674
11859TIP3    H235514   0.895   6.288   2.767 -1.0311 -0.1143  0.4869
11860TIP3   OH235515   4.514   4.020   0.073 -0.0603 -0.2593  0.5427
11860TIP3    H135516   4.545   3.968  -0.002  1.3932  1.2119  0.1132
11860TIP3    H235517   4.504   4.108   0.039 -1.9405 -0.0930  1.4407
11861TIP3   OH235518   1.054   5.492   3.312  0.1710  0.2670  0.4523
11861TIP3    H135519   0.960   5.507   3.314  0.2920  0.9803  0.7935
11861TIP3    H235520   1.063   5.397   3.303 -0.5644 -0.0653  2.8726
11862TIP3   OH235521   8.060   4.647   4.038 -0.7805 -0.8368  0.7725
11862TIP3    H135522   8.139   4.676   4.084  0.2224 -0.4835 -1.1315
11862TIP3    H235523   7.990   4.701   4.075  0.4254  1.2723  0.0647
11863TIP3   OH235524   1.743   7.299   5.199 -0.0356 -0.5320 -0.0714
11863TIP3    H135525   1.828   7.260   5.219  0.7248  0.6543 -0.8850
11863TIP3    H235526   1.747   7.387   5.236 -0.2222  0.1580 -1.6228
11864TIP3   OH235527   8.400   4.809   3.739 -0.0516 -0.1908 -0.1585
11864TIP3    H135528   8.383   4.769   3.825  1.6111 -1.1524 -0.2485
11864TIP3    H235529   8.433   4.896   3.758  1.0065 -0.6689  0.2130
11865TIP3   OH235530   7.209   7.147   3.947  0.3895 -0.0236  1.1177
11865TIP3    H135531   7.227   7.138   4.041 -1.7278  1.4577  1.7206
11865TIP3    H235532   7.254   7.227   3.922 -1.0108  0.8916  1.4528
11866TIP3   OH235533   0.523   5.682   5.790 -0.3119 -0.2162 -0.4030
11866TIP3    H135534   0.573   5.634   5.855  0.8449  3.0364  1.2278
11866TIP3    H235535   0.435   5.688   5.827 -0.4940 -1.1827 -0.6774
11867TIP3   OH235536   0.234   4.081   3.467  0.2589 -0.1600 -0.5287
11867TIP3    H135537   0.268   4.036   3.390  1.5496  0.1336 -0.1490
11867TIP3    H235538   0.298   4.063   3.535 -0.7808 -0.2693  0.4295
11868TIP3   OH235539   6.364   1.920   0.694  0.2991  0.3322  0.2945
11868TIP3    H135540   6.414   2.000   0.682  1.2365 -0.6165 -2.5178
11868TIP3    H235541   6.276   1.942   0.665  0.6672  0.2441 -0.9211
11869TIP3   OH235542   0.984   5.966   4.698  0.5180 -0.3369  0.0112
11869TIP3    H135543   1.019   5.886   4.736 -1.7595 -1.1022  0.5468
11869TIP3    H235544   0.895   5.973   4.734 -0.4312  0.7619 -2.4668
11870TIP3   OH235545   0.704   7.376   2.905  0.1430 -0.9789  0.2528
11870TIP3    H135546   0.660   7.373   2.990  1.3049  0.3030  0.9293
11870TIP3    H235547   0.756   7.457   2.908 -1.3915  0.1916 -2.4636
11871TIP3   OH235548   1.583   7.683   0.965 -0.8299  0.0046  0.2802
11871TIP3    H135549   1.655   7.666   1.026 -0.6419  0.2817  0.1346
11871TIP3    H235550   1.595   7.773   0.938 -0.6345 -0.2683 -0.5450
11872TIP3   OH235551   7.800   6.367   3.768 -0.4817 -0.2564  0.1662
11872TIP3    H135552   7.790   6.298   3.702  0.6749 -0.2258 -0.0478
11872TIP3    H235553   7.882   6.345   3.813  0.0602  1.1703 -0.1169
11873TIP3   OH235554   8.227   7.536   4.914 -0.2428 -0.5986 -1.0910
11873TIP3    H135555   8.184   7.502   4.992  1.0270 -0.0708 -0.1408
11873TIP3    H235556   8.307   7.484   4.906  0.4869  0.4994 -1.0385
11874TIP3   OH235557   0.895   5.260   3.780  0.3785  0.4750  0.0900
11874TIP3    H135558   0.919   5.238   3.870  0.6676 -0.0331 -0.1066
11874TIP3    H235559   0.955   5.209   3.726 -0.3599  0.1108 -0.4034
11875TIP3   OH235560   1.402   5.762   3.370 -0.2632 -0.1114  0.5163
11875TIP3    H135561   1.335   5.717   3.421 -0.0439 -1.6855 -0.5585
11875TIP3    H235562   1.374   5.854   3.369 -1.2683 -0.3887  1.8522
11876TIP3   OH235563   6.815   5.485   6.238 -0.9909 -0.2606 -0.3026
11876TIP3    H135564   6.773   5.448   6.315 -1.0062 -2.5381 -1.3868
11876TIP3    H235565   6.746   5.489   6.172 -0.8185  1.0961 -0.4306
11877TIP3   OH235566   8.048   5.705   5.814 -0.5771 -0.0662 -0.2408
11877TIP3    H135567   7.979   5.650   5.852 -2.3126  1.7822 -0.6340
11877TIP3    H235568   8.023   5.794   5.838  0.8687  0.7536 -1.7128
11878TIP3   OH235569   8.387   6.362   5.092 -0.3212 -0.1585  0.7314
11878TIP3    H135570   8.459   6.301   5.104  1.1367  1.5873  0.9991
11878TIP3    H235571   8.341   6.330   5.014  1.5157 -0.5099 -0.2166
11879TIP3   OH235572   0.922   7.089   5.963 -0.4009 -0.1781 -0.3011
11879TIP3    H135573   0.984   7.071   5.893  1.4933 -1.2647  1.5858
11879TIP3    H235574   0.959   7.165   6.009 -0.0601 -1.2622  1.2518
11880TIP3   OH235575   8.068   6.422   4.096  0.2646  0.0725 -0.2531
11880TIP3    H135576   8.107   6.424   4.183  1.4891 -0.4954 -0.7706
11880TIP3    H235577   7.979   6.390   4.110  0.1002  1.0239  0.9028
11881TIP3   OH235578   2.887   4.726   1.945 -0.0904 -0.0484 -0.2025
11881TIP3    H135579   2.923   4.647   1.985  0.5353 -1.1832 -2.9123
11881TIP3    H235580   2.796   4.702   1.924 -0.2509  0.3546  0.0334
11882TIP3   OH235581   8.394   6.492   4.621  0.2108 -0.4117 -0.0918
11882TIP3    H135582   8.320   6.485   4.559 -0.2144 -0.2874  0.3969
11882TIP3    H235583   8.467   6.522   4.567 -0.3516  0.4340 -0.3928
11883TIP3   OH235584   7.284   4.735   3.597 -0.4049 -0.3344  0.1285
11883TIP3    H135585   7.340   4.790   3.651  0.1929 -1.6258  0.8504
11883TIP3    H235586   7.255   4.665   3.655  0.0311 -1.5885 -1.1310
11884TIP3   OH235587   8.029   6.208   6.584  0.6179 -0.0015 -0.2034
11884TIP3    H135588   8.123   6.195   6.576  0.8890  1.0759  1.0815
11884TIP3    H235589   8.011   6.290   6.537  0.0486 -1.0521 -1.8765
11885TIP3   OH235590   0.251   3.678   3.275  0.2023 -0.5005  0.0687
11885TIP3    H135591   0.266   3.755   3.219  0.7750 -0.7676 -0.1498
11885TIP3    H235592   0.241   3.714   3.363 -2.1974  0.0585 -0.3972
11886TIP3   OH235593   0.196   7.432   3.977 -0.3535 -0.0278 -0.3486
11886TIP3    H135594   0.243   7.389   3.907 -0.5989 -0.5740 -0.1830
11886TIP3    H235595   0.260   7.441   4.048 -1.0785 -2.8934  0.7572
11887TIP3   OH235596   2.506   6.480   4.638 -0.0203  0.5064 -0.0813
11887TIP3    H135597   2.491   6.536   4.715  0.3256 -0.5850  0.7963
11887TIP3    H235598   2.571   6.417   4.668  0.1325  0.0924 -1.2989
11888TIP3   OH235599   0.320   5.557   3.142  0.1353 -0.4304  0.2287
11888TIP3    H135600   0.365   5.569   3.225 -1.1211 -0.4571  0.9192
11888TIP3    H235601   0.388   5.570   3.076  0.7808  1.3297  1.2006
11889TIP3   OH235602   8.102   4.809   3.334  0.0612 -0.7102  0.6053
11889TIP3    H135603   8.123   4.855   3.254 -1.3137 -1.2370 -0.0871
11889TIP3    H235604   8.179   4.819   3.390  0.1850  1.4912  0.0598
11890TIP3   OH235605   8.104   7.027   3.894 -0.3205 -0.7151  0.0382
11890TIP3    H135606   8.061   7.072   3.967 -1.4623 -2.1599  0.2710
11890TIP3    H235607   8.183   7.079   3.877 -1.2702  0.9926  0.7256
11891TIP3   OH235608   1.541   6.489   4.692  0.1931  0.0317 -0.6636
11891TIP3    H135609   1.590   6.406   4.692 -0.9752 -0.6675  0.3941
11891TIP3    H235610   1.451   6.464   4.671  0.1283  1.2321 -1.8901
11892TIP3   OH235611   0.415   5.517   5.109 -0.4174 -0.9201  0.2676
11892TIP3    H135612   0.333   5.487   5.147 -1.1381  2.4825  1.5961
11892TIP3    H235613   0.434   5.599   5.155 -0.0394  2.1080 -4.8609
11893TIP3   OH235614   1.004   5.513   5.832 -0.2102 -0.4263  0.3025
11893TIP3    H135615   0.943   5.571   5.876  0.5694 -0.3781  1.3333
11893TIP3    H235616   0.955   5.477   5.758 -1.3531 -0.1052  0.9110
11894TIP3   OH235617   1.886   6.221   2.812 -0.1062 -0.1926 -0.3509
11894TIP3    H135618   1.891   6.137   2.766 -0.2149 -0.1541 -0.4331
11894TIP3    H235619   1.944   6.211   2.887  0.1414 -0.2260 -0.5469
11895TIP3   OH235620   7.964   6.770   4.598 -0.3775 -0.4046 -0.7566
11895TIP3    H135621   8.021   6.847   4.609 -1.5365  0.4221 -0.4297
11895TIP3    H235622   7.925   6.782   4.512  0.1591 -1.1182 -1.0993
11896TIP3   OH235623   2.058   5.447   3.310 -0.5129 -1.0274 -0.5679
11896TIP3    H135624   2.077   5.395   3.231 -0.6290 -1.0167 -0.6023
11896TIP3    H235625   2.076   5.537   3.284  1.4496 -1.2109  0.0160
11897TIP3   OH235626   6.681   5.263   4.507 -0.0660  0.4790 -0.0529
11897TIP3    H135627   6.622   5.281   4.433  0.1847 -0.0201 -0.3807
11897TIP3    H235628   6.623   5.262   4.583 -0.2406  1.5614 -0.1654
11898TIP3   OH235629   0.101   5.917   5.112  0.0535 -0.2482  0.1026
11898TIP3    H135630   0.107   5.825   5.141  0.4548  0.1306  1.2536
11898TIP3    H235631   0.164   5.924   5.041  1.8742 -0.2377  1.6971
11899TIP3   OH235632   6.901   4.452   4.055 -0.0749 -0.2532 -0.0219
11899TIP3    H135633   6.810   4.438   4.083  0.7485 -1.3047  2.1779
11899TIP3    H235634   6.929   4.531   4.101  0.4000 -0.4142 -0.0306
11900TIP3   OH235635   7.763   5.707   5.826  0.0393  0.3025  0.1789
11900TIP3    H135636   7.742   5.765   5.752 -1.4000  0.2971  0.5800
11900TIP3    H235637   7.780   5.767   5.899  0.2720  0.2664  0.1554
11901TIP3   OH235638   6.769   1.038   0.759 -0.2841 -0.2641  0.4655
11901TIP3    H135639   6.718   1.062   0.836  0.5810  1.2987  0.5700
11901TIP3    H235640   6.857   1.020   0.793 -0.0364 -0.0972 -0.0752
11902TIP3   OH235641   0.876   5.828   3.956 -0.6077 -0.2799  0.6351
11902TIP3    H135642   0.971   5.839   3.963 -0.6942  1.7604 -1.0195
11902TIP3    H235643   0.853   5.873   3.875 -2.9418 -1.1401  0.8008
11903TIP3   OH235644   0.156   6.651   5.337  0.2732  0.3617 -0.1468
11903TIP3    H135645   0.201   6.693   5.264  0.5723 -1.1982 -0.8628
11903TIP3    H235646   0.194   6.564   5.343 -1.5089 -0.4090  0.2786
11904TIP3   OH235647   8.328   4.942   5.294  0.1607 -0.0876 -0.1248
11904TIP3    H135648   8.280   4.959   5.213  0.1468  0.2348 -0.0501
11904TIP3    H235649   8.345   5.029   5.330  0.8122 -0.2008 -0.1583
11905TIP3   OH235650   0.064   6.567   4.982  0.6036  0.3456 -0.0122
11905TIP3    H135651   0.001   6.512   5.029 -0.3120 -0.1502 -1.7636
11905TIP3    H235652   0.009   6.624   4.928  1.6461  0.7525 -0.6452
11906TIP3   OH235653   6.103   4.332   4.419 -0.4109 -0.5791 -0.3219
11906TIP3    H135654   6.030   4.273   4.436 -1.4253  0.6389 -0.3488
11906TIP3    H235655   6.158   4.285   4.356  2.0129 -4.0208  4.1056
11907TIP3   OH235656   0.890   5.026   5.864 -0.6841 -0.3493  0.2235
11907TIP3    H135657   0.967   5.075   5.836 -1.3258  0.5544  0.0167
11907TIP3    H235658   0.924   4.958   5.921  0.4883 -1.2509 -1.5217
11908TIP3   OH235659   1.007   5.251   4.396  0.0384 -0.1588  0.0921
11908TIP3    H135660   1.048   5.165   4.394 -0.5098 -0.4120 -0.0924
11908TIP3    H235661   1.062   5.304   4.338  2.1232  0.4067  2.4549
11909TIP3   OH235662   5.914   3.619   5.037 -0.1497 -0.2703  0.6387
11909TIP3    H135663   5.901   3.666   5.119  2.0407  0.5041  0.5672
11909TIP3    H235664   5.956   3.683   4.979 -0.1326 -1.3203 -0.5320
11910TIP3   OH235665   6.863   4.199   5.551  0.3352 -0.1549 -0.1850
11910TIP3    H135666   6.929   4.221   5.617 -0.3762 -0.2072  0.5528
11910TIP3    H235667   6.905   4.218   5.467  1.0968  0.3290  0.3045
11911TIP3   OH235668   7.735   4.247   6.206 -0.1444  0.2217  0.6167
11911TIP3    H135669   7.728   4.190   6.283 -0.2635 -1.1230 -0.3863
11911TIP3    H235670   7.801   4.312   6.231  0.2821 -0.5822  1.6237
11912TIP3   OH235671   6.620   5.827   3.946  0.2896 -0.3372 -0.3398
11912TIP3    H135672   6.698   5.812   4.000 -0.0566 -1.6623 -0.1802
11912TIP3    H235673   6.650   5.883   3.875  0.5557  2.2124  1.7047
11913TIP3   OH235674   1.608   6.590   3.430  0.0660  0.0460  0.2092
11913TIP3    H135675   1.554   6.599   3.351 -0.9450 -2.9181  0.4665
11913TIP3    H235676   1.697   6.583   3.397 -0.1314  0.9722 -0.5265
11914TIP3   OH235677   0.920   3.499   5.347  0.2059 -0.1579  0.8548
11914TIP3    H135678   0.936   3.432   5.414 -1.9156 -1.2082  0.3596
11914TIP3    H235679   0.908   3.449   5.266  0.0205  0.9209  0.2072
11915TIP3   OH235680   7.677   7.090   5.591  0.0266 -0.3283  0.2172
11915TIP3    H135681   7.622   7.094   5.512  1.3083  0.1274 -0.6585
11915TIP3    H235682   7.747   7.152   5.574  0.9876 -1.1374  1.2128
11916TIP3   OH235683   0.850   5.384   5.638 -0.1132 -0.3144 -0.3708
11916TIP3    H135684   0.756   5.386   5.626 -0.0603  0.8601 -0.6895
11916TIP3    H235685   0.878   5.300   5.600 -1.0531 -0.7839 -0.0235
11917TIP3   OH235686   6.779   7.254   6.502 -0.3429  0.5346 -0.3880
11917TIP3    H135687   6.832   7.331   6.520  0.1366  0.3979 -1.1767
11917TIP3    H235688   6.809   7.224   6.416 -0.4448 -0.5991 -0.0334
11918TIP3   OH235689   0.102   6.937   6.375 -0.0183  0.0906 -0.9522
11918TIP3    H135690   0.107   6.896   6.289  1.3034 -0.0563 -0.8161
11918TIP3    H235691   0.175   6.998   6.377  0.3749 -0.4037  0.3176
11919TIP3   OH235692   1.295   6.106   5.045 -0.3249  0.5540 -0.6540
11919TIP3    H135693   1.306   6.036   4.980  1.4169 -0.8297  1.0951
11919TIP3    H235694   1.373   6.160   5.036 -0.6129  1.0023 -0.4788
11920TIP3   OH235695   0.743   6.514   4.892  0.3681  0.3033  0.4094
11920TIP3    H135696   0.654   6.515   4.858  0.5993 -0.7557 -0.2583
11920TIP3    H235697   0.758   6.423   4.919  1.1922  0.4971  0.6381
11921TIP3   OH235698   6.199   5.563   5.394 -0.5861 -0.0026 -0.3206
11921TIP3    H135699   6.197   5.618   5.315 -2.2657  0.7402  0.2035
11921TIP3    H235700   6.166   5.478   5.365  0.5527 -0.2801 -0.8097
11922TIP3   OH235701   8.083   7.527   2.890 -0.2409  0.1423  0.3370
11922TIP3    H135702   8.025   7.460   2.855 -0.7698  0.6455  0.2401
11922TIP3    H235703   8.147   7.478   2.942 -0.2194 -0.4897 -0.2708
11923TIP3   OH235704   0.637   5.354   5.157 -0.4134 -0.8601  0.1731
11923TIP3    H135705   0.571   5.424   5.151  0.6017 -0.0697 -2.1667
11923TIP3    H235706   0.678   5.352   5.071  0.3839 -3.5942  0.5829
11924TIP3   OH235707   3.143   0.555   5.062 -0.0476  0.8196 -0.1866
11924TIP3    H135708   3.114   0.599   5.142 -1.7018  0.2342 -0.4496
11924TIP3    H235709   3.165   0.466   5.090  0.8311  1.0521 -0.1196
11925TIP3   OH235710   0.718   5.925   4.770  0.1553 -0.4120 -0.6902
11925TIP3    H135711   0.695   5.887   4.855  0.3775 -0.7431 -0.7803
11925TIP3    H235712   0.639   5.973   4.744 -0.4767 -1.6140 -1.0330
11926TIP3   OH235713   6.537   5.147   5.603 -0.3728  0.6653  0.1562
11926TIP3    H135714   6.518   5.168   5.512 -0.9474  1.3829  0.4400
11926TIP3    H235715   6.622   5.189   5.620 -0.4162  0.7949  0.0479
11927TIP3   OH235716   8.235   4.519   3.826  0.0354  0.6311  0.2627
11927TIP3    H135717   8.178   4.574   3.880  0.8135  2.2240 -0.4804
11927TIP3    H235718   8.180   4.492   3.753  0.0495  1.6663 -0.1407
11928TIP3   OH235719   8.195   5.497   6.248 -0.0227 -0.2735 -0.2857
11928TIP3    H135720   8.243   5.432   6.196  0.8796 -0.6957  1.0564
11928TIP3    H235721   8.261   5.561   6.273 -0.0445 -1.1129  1.9809
11929TIP3   OH235722   0.191   3.679   4.043 -0.3683  0.6740 -0.1596
11929TIP3    H135723   0.191   3.769   4.011  0.1079  1.2526  1.4159
11929TIP3    H235724   0.099   3.654   4.047 -0.4626  0.8340 -1.2997
11930TIP3   OH235725   7.024   5.050   5.912 -0.8136 -0.0050 -0.2761
11930TIP3    H135726   6.964   5.004   5.970  0.4381 -0.0190  1.0440
11930TIP3    H235727   7.109   5.009   5.928 -0.6729 -0.9860 -3.1916
11931TIP3   OH235728   8.327   4.042   4.361  0.0417  0.0360 -0.1470
11931TIP3    H135729   8.394   4.001   4.306  0.2513 -0.9763  0.8363
11931TIP3    H235730   8.256   3.977   4.364 -0.0217  0.1436  0.6706
11932TIP3   OH235731   8.039   5.321   4.400 -0.5658  0.0375 -0.1360
11932TIP3    H135732   8.108   5.387   4.399 -0.0161 -0.5117  0.6875
11932TIP3    H235733   7.958   5.371   4.407 -0.3065  0.7229 -1.8951
11933TIP3   OH235734   7.024   7.247   3.379 -0.1739 -0.0953  0.2300
11933TIP3    H135735   7.117   7.230   3.364  0.3321  0.2885  2.6810
11933TIP3    H235736   6.999   7.307   3.309  1.4056 -0.2779 -0.5141
11934TIP3   OH235737   2.009   6.790   3.989  0.0327  0.1533 -0.4217
11934TIP3    H135738   2.089   6.748   3.959  1.8080  1.6034  1.9910
11934TIP3    H235739   2.006   6.873   3.940 -0.2216 -0.1082 -0.8442
11935TIP3   OH235740   2.689   7.625   0.652 -0.2034  0.0901  0.7497
11935TIP3    H135741   2.670   7.698   0.711 -0.3899  1.2357 -0.6717
11935TIP3    H235742   2.617   7.627   0.588 -0.1411 -1.2661  0.6257
11936TIP3   OH235743   6.899   4.923   3.761 -0.5029  0.3191  0.1067
11936TIP3    H135744   6.842   4.983   3.809  0.2824  0.9349  0.2743
11936TIP3    H235745   6.947   4.979   3.701  0.7027 -0.0480  0.7132
11937TIP3   OH235746   7.958   5.204   3.449 -0.0366 -0.0809  0.3542
11937TIP3    H135747   8.045   5.200   3.409  0.7201  0.3638  1.8802
11937TIP3    H235748   7.939   5.298   3.454  0.6621 -0.0343  2.6108
11938TIP3   OH235749   4.941   2.074   1.763  0.2519  0.4549  0.0460
11938TIP3    H135750   5.033   2.096   1.777  0.5677 -1.0762  0.4751
11938TIP3    H235751   4.893   2.135   1.819  0.9922  1.3894 -0.3298
11939TIP3   OH235752   6.653   2.445   0.916 -0.0711  0.0561 -0.3869
11939TIP3    H135753   6.617   2.494   0.843  1.2900 -2.0042 -2.5144
11939TIP3    H235754   6.585   2.450   0.984 -1.3086  2.0886 -1.7137
11940TIP3   OH235755   2.556   6.417   6.179 -0.3811  0.3362  0.9330
11940TIP3    H135756   2.615   6.398   6.252  2.0404  0.0438 -1.0229
11940TIP3    H235757   2.587   6.360   6.109 -2.6197  0.6617 -0.3531
11941TIP3   OH235758   0.550   6.322   4.827  0.2091 -0.3280 -0.2028
11941TIP3    H135759   0.542   6.234   4.790 -0.0101  0.1071 -1.2057
11941TIP3    H235760   0.460   6.350   4.843  0.1196  0.6644 -2.1943
11942TIP3   OH235761   8.436   7.157   4.969  0.3238 -0.0869 -0.0215
11942TIP3    H135762   8.402   7.069   4.986  0.2305 -0.6697 -2.9389
11942TIP3    H235763   8.531   7.145   4.963  0.4317  0.2661  0.8317
11943TIP3   OH235764   1.096   5.751   6.245  0.0524 -0.2159  0.1506
11943TIP3    H135765   1.094   5.843   6.217 -0.3635 -0.3296 -0.2059
11943TIP3    H235766   1.127   5.703   6.169 -1.8007 -0.6109 -0.3755
11944TIP3   OH235767   7.040   1.758   1.676  0.4494  0.0965 -0.4239
11944TIP3    H135768   7.025   1.720   1.763 -1.0612 -0.2232 -0.8077
11944TIP3    H235769   7.128   1.729   1.652  0.1911 -1.2887  0.2572
11945TIP3   OH235770   2.209   5.689   6.380 -0.2802  0.0414 -0.4010
11945TIP3    H135771   2.137   5.698   6.442  0.7387  0.1826  0.7841
11945TIP3    H235772   2.256   5.611   6.408  0.9882  0.8769 -0.1352
11946TIP3   OH235773   3.176   5.813   4.823  0.1535  0.0687 -0.3700
11946TIP3    H135774   3.265   5.804   4.789  0.3464 -0.3669  0.2503
11946TIP3    H235775   3.121   5.812   4.745  0.6854  0.2470 -0.7493
11947TIP3   OH235776   1.433   7.538   3.994  0.9841  0.4686 -0.4880
11947TIP3    H135777   1.521   7.575   3.998  0.5279  1.4470  1.0136
11947TIP3    H235778   1.422   7.493   4.078  0.0737  0.2963 -0.6946
11948TIP3   OH235779   5.224   2.576   0.267  0.1760 -0.2805  0.2174
11948TIP3    H135780   5.176   2.494   0.252  0.9652 -0.3386 -2.2969
11948TIP3    H235781   5.287   2.555   0.336  0.6819 -1.9521 -0.7262
11949TIP3   OH235782   1.056   7.838   5.805  0.2063 -0.3509  0.3029
11949TIP3    H135783   1.051   7.851   5.900 -0.8796  0.5934  0.1349
11949TIP3    H235784   0.996   7.766   5.787  1.0122 -1.0604  0.4161
11950TIP3   OH235785   2.157   7.472   5.511  0.1584 -0.1247  0.5542
11950TIP3    H135786   2.096   7.402   5.535  0.8471 -1.9444 -2.7182
11950TIP3    H235787   2.220   7.475   5.584 -1.6045 -0.8469  2.1270
11951TIP3   OH235788   4.537   3.449   0.958  0.0318 -0.1210 -0.8665
11951TIP3    H135789   4.581   3.481   1.037  1.8541 -0.8764 -1.5467
11951TIP3    H235790   4.542   3.523   0.897 -3.5787  1.3675  0.4937
11952TIP3   OH235791   2.159   7.390   6.747  0.3425  0.0249  0.2281
11952TIP3    H135792   2.237   7.436   6.718  0.3536  0.5884  1.1461
11952TIP3    H235793   2.152   7.410   6.840 -2.5503  2.4688 -0.4252
11953TIP3   OH235794   5.071   0.608   5.344 -0.2544 -0.3116 -0.1205
11953TIP3    H135795   5.068   0.663   5.423  1.8836 -0.4980  0.1070
11953TIP3    H235796   5.089   0.670   5.273 -0.0674 -0.4141 -0.1635
11954TIP3   OH235797   6.327   2.245   0.776 -0.4993  0.1096  0.3930
11954TIP3    H135798   6.277   2.318   0.810 -2.2181 -1.1086  0.5386
11954TIP3    H235799   6.357   2.197   0.854 -0.1285  0.1653  0.2864
11955TIP3   OH235800   8.324   5.016   4.105 -0.0064 -0.3250 -0.4577
11955TIP3    H135801   8.359   4.938   4.061  3.2397  0.3249  0.7701
11955TIP3    H235802   8.401   5.054   4.149 -2.0270  2.1720  1.0218
11956TIP3   OH235803   1.489   6.006   4.123  0.7041  0.0473  0.3553
11956TIP3    H135804   1.523   5.926   4.164 -0.0998 -0.5264 -0.0687
11956TIP3    H235805   1.490   5.986   4.029 -0.7962  0.0047  0.3346
11957TIP3   OH235806   4.159   3.997   4.870 -0.6039  0.2397 -0.1544
11957TIP3    H135807   4.204   4.025   4.790 -1.9511  0.0621 -0.9794
11957TIP3    H235808   4.201   3.914   4.893  0.0337  0.4698 -0.4810
11958TIP3   OH235809   2.116   7.123   6.712  0.2757 -0.2173  0.5112
11958TIP3    H135810   2.155   7.081   6.788  2.2525 -0.8656 -0.7987
11958TIP3    H235811   2.148   7.214   6.716  0.3589 -0.2449  0.4865
11959TIP3   OH235812   7.197   2.951   3.612  0.0266  0.5312  0.0884
11959TIP3    H135813   7.116   2.989   3.578 -0.2690 -1.7875 -1.9648
11959TIP3    H235814   7.249   3.025   3.640 -1.9087  2.2068 -0.6431
11960TIP3   OH235815   2.080   1.080   5.555 -0.3344  0.0702  0.3803
11960TIP3    H135816   2.148   1.086   5.488 -0.1979  0.3282  0.5426
11960TIP3    H235817   2.128   1.068   5.637 -0.5563 -2.1307  0.2169
11961TIP3   OH235818   1.124   5.663   4.321 -0.1378  0.2664 -0.1190
11961TIP3    H135819   1.129   5.624   4.234 -0.8164  3.1760 -1.5264
11961TIP3    H235820   1.208   5.705   4.333 -0.6697  1.3331 -0.1008
11962TIP3   OH235821   6.989   1.483   0.175 -0.0558  0.2685 -0.3059
11962TIP3    H135822   6.962   1.571   0.204  0.8183  0.4982 -0.1812
11962TIP3    H235823   7.070   1.498   0.126  0.3674 -0.5298  0.1438
11963TIP3   OH235824   0.462   6.578   6.736  0.5900  0.1476  0.0707
11963TIP3    H135825   0.416   6.557   6.817  0.1618 -0.2280 -0.2653
11963TIP3    H235826   0.392   6.602   6.675  1.0027  1.7951  0.2162
11964TIP3   OH235827   7.421   2.305   1.352 -0.2944  0.1972 -0.1828
11964TIP3    H135828   7.447   2.369   1.419  0.0703  0.7739 -0.8608
11964TIP3    H235829   7.367   2.356   1.291  0.6021  0.0500 -1.1253
11965TIP3   OH235830   7.718   7.397   5.059 -0.2907 -0.6493 -0.0743
11965TIP3    H135831   7.661   7.372   4.986 -2.5904  1.5811  0.9047
11965TIP3    H235832   7.783   7.456   5.020 -1.9434  1.1080 -0.2212
11966TIP3   OH235833   4.090   6.710   6.032  0.4397 -0.2892  0.5661
11966TIP3    H135834   4.118   6.637   5.976  0.6594  0.3181 -0.1227
11966TIP3    H235835   3.995   6.711   6.025  0.3817 -0.9884  1.1858
11967TIP3   OH235836   1.466   2.132   0.910  0.5417 -0.1142  0.3910
11967TIP3    H135837   1.533   2.191   0.875 -1.4295  1.8013 -0.2538
11967TIP3    H235838   1.445   2.074   0.836 -1.9841  2.4638 -1.0259
11968TIP3   OH235839   7.777   3.027   0.237  0.2429  0.3586 -0.7994
11968TIP3    H135840   7.703   2.969   0.223  0.6167 -0.8065  1.7230
11968TIP3    H235841   7.738   3.112   0.257 -0.3847  0.0397 -0.6625
11969TIP3   OH235842   1.111   6.569   5.531 -0.1864  0.1874 -0.9832
11969TIP3    H135843   1.130   6.655   5.570  0.4925  1.1191 -3.2960
11969TIP3    H235844   1.016   6.572   5.515 -0.3046  0.1786 -0.3144
11970TIP3   OH235845   2.394   4.807   6.709  0.0217 -0.0072 -0.0598
11970TIP3    H135846   2.366   4.721   6.741  2.1433 -0.4077  0.7972
11970TIP3    H235847   2.324   4.834   6.649 -0.2358 -2.7097 -1.0492
11971TIP3   OH235848   1.153   5.341   4.177 -0.2277 -0.9964  0.3286
11971TIP3    H135849   1.128   5.291   4.099  2.0548 -1.5771 -0.0762
11971TIP3    H235850   1.174   5.429   4.143 -1.1226 -0.6958  0.5650
11972TIP3   OH235851   5.051   0.193   6.078 -0.0149  0.4113 -0.6673
11972TIP3    H135852   5.083   0.278   6.108  1.4377 -0.2407 -0.3354
11972TIP3    H235853   5.110   0.169   6.007  0.3308 -0.8772  0.0440
11973TIP3   OH235854   0.131   5.254   4.495  0.1452 -0.1516 -0.0440
11973TIP3    H135855   0.130   5.344   4.462 -1.6506 -0.1788 -0.0975
11973TIP3    H235856   0.073   5.255   4.571 -2.5676 -1.9572 -2.0115
11974TIP3   OH235857   0.743   7.333   5.519 -0.2972 -0.2736 -0.0382
11974TIP3    H135858   0.781   7.265   5.464  0.6291 -0.6878  1.0794
11974TIP3    H235859   0.814   7.396   5.531 -0.8110  0.3332 -0.1732
11975TIP3   OH235860   1.618   6.037   5.940  0.0407 -0.1111 -0.1167
11975TIP3    H135861   1.660   6.012   6.023  0.4069 -0.5774 -0.4459
11975TIP3    H235862   1.531   5.997   5.945 -0.1993  0.4481  0.3481
11976TIP3   OH235863   0.473   6.051   4.308 -0.4572 -0.1705 -0.8689
11976TIP3    H135864   0.469   6.144   4.289  0.1705 -0.0649 -0.4854
11976TIP3    H235865   0.507   6.011   4.228 -1.0113 -0.1111 -1.1390
11977TIP3   OH235866   8.109   5.567   6.492 -0.0566  0.2553 -0.4287
11977TIP3    H135867   8.046   5.513   6.539  1.3041  0.1882  1.3693
11977TIP3    H235868   8.124   5.520   6.409 -0.2239 -1.1990  0.3459
11978TIP3   OH235869   8.182   3.026   0.121 -0.1073 -0.1049  0.0116
11978TIP3    H135870   8.108   3.001   0.176  0.2199 -0.3379  0.3477
11978TIP3    H235871   8.170   2.978   0.039 -1.9849  2.1996 -1.1235
11979TIP3   OH235872   4.974   0.418   6.422 -0.2939 -0.0527 -0.0497
11979TIP3    H135873   5.034   0.491   6.436  0.0192 -0.0305 -1.4335
11979TIP3    H235874   5.019   0.363   6.358 -1.0603 -0.8563  0.0926
11980TIP3   OH235875   6.016   1.483   3.436 -0.1376  0.4806 -0.1107
11980TIP3    H135876   5.998   1.405   3.384  1.1735 -0.2722  0.5194
11980TIP3    H235877   6.087   1.528   3.389 -0.0985  0.6721  0.1278
11981TIP3   OH235878   0.853   6.540   5.804 -0.2306 -0.4417 -0.3074
11981TIP3    H135879   0.880   6.631   5.822  0.5461 -0.6127 -0.5898
11981TIP3    H235880   0.826   6.541   5.712  0.7130 -0.7038 -0.5981
11982TIP3   OH235881   0.987   5.536   4.526 -0.2447 -0.3261  0.5723
11982TIP3    H135882   1.040   5.572   4.454  2.3842 -0.0908  2.5600
11982TIP3    H235883   0.940   5.611   4.562 -1.0470 -0.3279 -0.4468
11983TIP3   OH235884   6.564   1.734   0.575  0.1259 -0.1892  0.2786
11983TIP3    H135885   6.568   1.829   0.564 -0.0202 -0.3502 -1.2182
11983TIP3    H235886   6.475   1.711   0.549  0.8000 -0.9799 -1.3977
11984TIP3   OH235887   8.023   7.091   5.065 -0.4576  0.2712  0.0936
11984TIP3    H135888   7.932   7.085   5.096 -0.0473  0.3377  1.3232
11984TIP3    H235889   8.073   7.037   5.126  0.2061 -0.5488 -1.1479
11985TIP3   OH235890   1.835   6.042   3.873  0.0008 -0.1321  0.0897
11985TIP3    H135891   1.832   6.118   3.814 -1.3817  0.0715  0.3979
11985TIP3    H235892   1.858   5.969   3.817 -1.1399  0.0921 -0.6762
11986TIP3   OH235893   2.227   7.350   5.106  0.7682 -0.1577  0.1268
11986TIP3    H135894   2.254   7.388   5.190 -0.0370  2.0353 -0.6039
11986TIP3    H235895   2.178   7.419   5.062 -1.7226 -2.3944 -0.7473
11987TIP3   OH235896   0.637   6.478   6.241 -0.2646 -0.0975 -0.7536
11987TIP3    H135897   0.548   6.462   6.270  0.4713 -0.8104  1.2014
11987TIP3    H235898   0.637   6.570   6.214 -0.5986  1.1457  3.2025
11988TIP3   OH235899   1.402   6.487   4.318 -0.4896 -0.7335  0.5440
11988TIP3    H135900   1.326   6.478   4.260 -1.4405  0.7744  1.5285
11988TIP3    H235901   1.364   6.501   4.404  0.9270 -1.0662  1.2315
11989TIP3   OH235902   6.667   2.940   0.160 -0.1688 -0.4831 -0.5112
11989TIP3    H135903   6.723   2.975   0.230 -0.7064 -0.1065 -0.2644
11989TIP3    H235904   6.615   3.016   0.132  0.0040 -0.6480 -1.2772
11990TIP3   OH235905   2.105   7.176   5.559 -0.3383 -0.3564  0.1631
11990TIP3    H135906   2.197   7.153   5.543  0.5645  0.5620  3.5832
11990TIP3    H235907   2.059   7.092   5.559  0.7798 -0.9823  0.0479
11991TIP3   OH235908   2.314   5.556   6.080  0.1626  0.2324 -0.7310
11991TIP3    H135909   2.280   5.468   6.062 -0.9332  0.4249  0.3376
11991TIP3    H235910   2.236   5.610   6.091  0.8347  1.2835 -1.0784
11992TIP3   OH235911   1.968   6.949   5.574 -0.8992  0.3747 -0.1834
11992TIP3    H135912   1.916   6.894   5.515 -0.8528 -0.3262  0.4332
11992TIP3    H235913   2.029   6.889   5.616 -1.8010  0.6552  1.5585
11993TIP3   OH235914   1.750   6.025   5.716  0.2083  0.4071 -0.0193
11993TIP3    H135915   1.706   6.003   5.798  0.9224  0.2359  0.3209
11993TIP3    H235916   1.725   5.955   5.656 -0.1111  0.3947  0.1298
11994TIP3   OH235917   7.918   3.402   1.420 -0.2287 -0.0517  0.0666
11994TIP3    H135918   7.876   3.396   1.506 -0.0258 -0.2402  0.1528
11994TIP3    H235919   7.965   3.319   1.411 -1.6175 -0.7559 -0.9346
11995TIP3   OH235920   5.179   0.364   6.265 -0.0497 -0.1617  0.0927
11995TIP3    H135921   5.256   0.315   6.238  0.3737  1.6028 -2.0550
11995TIP3    H235922   5.215   0.437   6.317 -0.4414 -0.5000  0.8425
11996TIP3   OH235923   0.121   7.346   6.337 -0.2617  0.3741 -0.0176
11996TIP3    H135924   0.170   7.264   6.335 -0.5732  0.0388  3.0948
11996TIP3    H235925   0.177   7.406   6.386 -1.0085  1.3311 -0.3190
11997TIP3   OH235926   5.665   1.125   0.206 -0.1474  0.2082 -0.9368
11997TIP3    H135927   5.745   1.097   0.163 -0.8903 -1.0624 -1.5218
11997TIP3    H235928   5.618   1.175   0.139  1.4242  3.4330  0.2672
11998TIP3   OH235929   0.036   6.689   3.968  0.1625  0.0199 -0.5452
11998TIP3    H135930   0.131   6.675   3.965  0.1538 -0.0949 -0.3171
11998TIP3    H235931   0.014   6.681   4.061 -0.0770  0.0082 -0.6032
11999TIP3   OH235932   6.022   2.503   0.480  0.0409 -0.0749  0.3950
11999TIP3    H135933   5.982   2.590   0.470 -0.0496 -0.3408 -1.7744
11999TIP3    H235934   6.116   2.522   0.492 -0.0918  0.3418  0.8406
12000TIP3   OH235935   3.187   6.177   6.243  0.3934 -0.2380 -0.0510
12000TIP3    H135936   3.154   6.106   6.298  0.8732  0.4539  1.1547
12000TIP3    H235937   3.223   6.241   6.305  2.9447 -0.4241 -1.2572
12001TIP3   OH235938   8.174   6.525   5.199 -0.2179  0.3396  0.1744
12001TIP3    H135939   8.234   6.458   5.163  0.3137  0.2717  1.1798
12001TIP3    H235940   8.093   6.514   5.149  0.6614  0.5518 -1.3396
12002TIP3   OH235941   1.725   6.607   6.620  0.1391 -0.5238  0.3702
12002TIP3    H135942   1.770   6.659   6.554 -0.0887 -1.2114 -0.3318
12002TIP3    H235943   1.632   6.610   6.594 -0.2057  0.7026  1.6778
12003TIP3   OH235944   8.161   4.627   4.744  0.3161  0.0175  1.0256
12003TIP3    H135945   8.077   4.588   4.717  0.0183  2.2489 -1.3943
12003TIP3    H235946   8.225   4.557   4.728 -0.6661 -0.6696 -0.0529
12004TIP3   OH235947   1.149   2.752   0.312 -0.0288  0.1912 -0.4523
12004TIP3    H135948   1.059   2.771   0.338  0.0919  0.0189  0.0963
12004TIP3    H235949   1.141   2.701   0.232 -0.3868  1.5350 -1.2958
12005TIP3   OH235950   5.415   1.296   1.901 -0.0037  0.0747 -0.2259
12005TIP3    H135951   5.364   1.356   1.847  0.1918 -0.0508 -0.5558
12005TIP3    H235952   5.419   1.337   1.987 -1.3540 -0.3008  0.0299
12006TIP3   OH235953   4.172   4.732   0.490  0.1686 -0.2582  0.0699
12006TIP3    H135954   4.134   4.645   0.474  0.3463 -0.0970 -1.2126
12006TIP3    H235955   4.149   4.783   0.413  1.8577  0.2284 -0.1291
12007TIP3   OH235956   1.931   5.315   5.931 -0.0773 -0.2432  0.0733
12007TIP3    H135957   2.011   5.263   5.930 -0.2331 -0.5052  0.9013
12007TIP3    H235958   1.865   5.258   5.971 -0.7601 -0.1476 -0.9010
12008TIP3   OH235959   6.103   3.935   2.677 -0.0360 -0.3008  0.1847
12008TIP3    H135960   6.029   3.969   2.627  2.0184  2.9129 -0.7823
12008TIP3    H235961   6.076   3.945   2.769 -1.3068 -0.4088 -0.1607
12009TIP3   OH235962   7.741   4.082   5.860  0.5041 -0.2242  0.5179
12009TIP3    H135963   7.829   4.113   5.882 -0.9409  2.5482  2.7926
12009TIP3    H235964   7.721   4.018   5.928  0.9709 -1.3714 -0.3970
12010TIP3   OH235965   1.269   7.290   6.409 -0.0854  0.5406  0.4058
12010TIP3    H135966   1.288   7.212   6.357  0.3053  0.3682  0.8046
12010TIP3    H235967   1.177   7.310   6.389 -0.2208 -0.0884  0.3831
12011TIP3   OH235968   0.940   5.088   4.768 -0.1744  0.5157 -0.1732
12011TIP3    H135969   0.890   5.068   4.689 -0.8412 -0.5706  0.5037
12011TIP3    H235970   1.015   5.138   4.737 -0.0331 -0.5314 -1.5983
12012TIP3   OH235971   4.988   2.763   0.659 -0.7032 -0.2341  0.1069
12012TIP3    H135972   4.952   2.826   0.598  0.2007 -0.9057 -1.1520
12012TIP3    H235973   4.916   2.704   0.679 -0.5952 -0.9659 -1.5890
12013TIP3   OH235974   1.667   7.632   6.933  0.4576 -0.3408  0.4473
12013TIP3    H135975   1.640   7.694   6.866  0.0961  0.6642  1.4988
12013TIP3    H235976   1.630   7.548   6.905 -2.0972  0.6146  0.8064
12014TIP3   OH235977   8.165   2.580   1.775 -0.0265 -0.2295  0.2862
12014TIP3    H135978   8.213   2.602   1.855  0.1254  1.8805 -0.3642
12014TIP3    H235979   8.095   2.644   1.770 -0.9759 -1.3057 -0.4674
12015TIP3   OH235980   6.185   1.769   1.724  0.0500 -0.4814  0.7824
12015TIP3    H135981   6.162   1.711   1.796  0.2151  0.7887  1.8858
12015TIP3    H235982   6.121   1.750   1.656 -2.3708  0.8008  2.6097
12016TIP3   OH235983   7.879   6.138   4.666  0.1872  0.3984 -0.0699
12016TIP3    H135984   7.829   6.215   4.640 -1.5289 -0.8427 -0.4935
12016TIP3    H235985   7.945   6.128   4.597 -0.1241  0.9680 -0.4540
12017TIP3   OH235986   1.456   6.541   6.117  0.2095  0.6876  0.3390
12017TIP3    H135987   1.507   6.460   6.129  1.2323  1.0976 -1.0837
12017TIP3    H235988   1.377   6.512   6.071 -0.0828  0.2884  1.0869
12018TIP3   OH235989   4.192   1.664   2.132 -0.1708  0.1963  0.2336
12018TIP3    H135990   4.278   1.702   2.115  0.7306 -2.1580 -0.8036
12018TIP3    H235991   4.131   1.724   2.090  1.1934  0.4870 -1.4088
12019TIP3   OH235992   5.768   1.089   4.728 -0.1679 -0.3752  0.1720
12019TIP3    H135993   5.694   1.141   4.697  1.0690  1.1246 -0.3265
12019TIP3    H235994   5.730   1.003   4.748 -2.2075  0.6340  0.8068
12020TIP3   OH235995   0.784   0.797   0.579 -0.2150 -0.9512  0.0206
12020TIP3    H135996   0.810   0.889   0.569 -2.4315 -0.1176  1.4169
12020TIP3    H235997   0.836   0.750   0.514  1.3771  1.2173 -0.3230
12021TIP3   OH235998   0.491   2.177   0.502  0.4954  0.0634 -0.8676
12021TIP3    H135999   0.396   2.185   0.505  0.5370  0.5175 -0.7045
12021TIP3    H236000   0.519   2.195   0.592  0.8253  1.1589 -1.1833
12022TIP3   OH236001   4.890   0.163   4.706 -0.0990 -0.4085  0.2658
12022TIP3    H136002   4.903   0.258   4.714  1.7819 -0.6352 -0.0097
12022TIP3    H236003   4.821   0.154   4.640  0.0851  0.7518 -0.0906
12023TIP3   OH236004   6.431   1.837   0.972 -0.9433  0.0748 -0.0508
12023TIP3    H136005   6.504   1.775   0.967 -0.6016  0.4772 -0.1273
12023TIP3    H236006   6.431   1.881   0.887 -0.9565  0.4333  0.1328
12024TIP3   OH236007   7.121   0.753   1.071  0.3925  0.4216  0.0842
12024TIP3    H136008   7.050   0.805   1.107 -1.1326 -0.5221 -1.4414
12024TIP3    H236009   7.197   0.811   1.072 -1.2727  2.7545 -1.6746
12025TIP3   OH236010   2.932   7.485   6.624 -0.8225 -0.4758  0.4814
12025TIP3    H136011   2.969   7.417   6.681 -0.4808  0.4511  1.3904
12025TIP3    H236012   2.848   7.450   6.596  0.2796 -2.1946 -0.8082
12026TIP3   OH236013   4.225   7.766   5.780  0.4862 -0.5761 -0.5562
12026TIP3    H136014   4.315   7.734   5.785  0.3543 -0.8549  0.0452
12026TIP3    H236015   4.172   7.694   5.812  0.2525  0.5788  1.7204
12027TIP3   OH236016   7.505   0.991   0.050 -0.1892  0.3495  0.0863
12027TIP3    H136017   7.507   1.004  -0.045  1.5299 -0.3778  0.0123
12027TIP3    H236018   7.420   0.949   0.066  0.0962 -0.7844 -1.2953
12028TIP3   OH236019   1.385   2.364   0.292 -0.1261 -0.5189 -0.6202
12028TIP3    H136020   1.422   2.375   0.205 -1.5222  0.1064 -1.1501
12028TIP3    H236021   1.306   2.418   0.292 -1.1924 -2.0218  0.3818
12029TIP3   OH236022   1.836   7.322   6.255  0.1447 -0.6674 -0.3782
12029TIP3    H136023   1.744   7.318   6.228 -0.1726 -0.3210  0.6128
12029TIP3    H236024   1.834   7.365   6.341  1.3052  0.0119 -0.6764
12030TIP3   OH236025   4.534   0.038   5.584 -0.2867 -0.0047  0.2508
12030TIP3    H136026   4.613   0.054   5.533  0.2534 -1.5220  0.5884
12030TIP3    H236027   4.566   0.010   5.670 -1.1810 -0.5487  0.4208
12031TIP3   OH236028   5.847   2.653   1.600 -0.3340  0.0956  0.2608
12031TIP3    H136029   5.898   2.614   1.529  2.3126 -0.3847  2.3567
12031TIP3    H236030   5.886   2.740   1.612 -0.9630  0.2871  0.9495
12032TIP3   OH236031   7.733   2.509   0.194 -0.6926 -0.2766 -0.2212
12032TIP3    H136032   7.751   2.418   0.218 -0.2157  0.0730  0.7577
12032TIP3    H236033   7.665   2.503   0.126 -1.4717 -1.3090  0.6342
12033TIP3   OH236034   8.122   1.465   1.556 -0.4496 -0.4923  0.5100
12033TIP3    H136035   8.075   1.383   1.540  0.7471 -1.1747  0.4804
12033TIP3    H236036   8.132   1.505   1.470  3.3610 -2.7305 -0.1704
12034TIP3   OH236037   2.340   5.011   4.952 -0.8539  0.4693  0.7711
12034TIP3    H136038   2.271   4.980   4.893  0.2251  0.2546 -0.3679
12034TIP3    H236039   2.301   5.001   5.039 -0.8332 -3.4169  0.4347
12035TIP3   OH236040   2.028   4.460   5.479  0.2255 -0.2550  0.4857
12035TIP3    H136041   2.004   4.453   5.571 -0.6012  0.5014  0.3322
12035TIP3    H236042   1.945   4.462   5.432  0.6452 -0.8833 -0.3002
12036TIP3   OH236043   3.015   4.751   6.765 -0.4213  0.6252  0.4507
12036TIP3    H136044   2.933   4.705   6.781 -0.1661 -0.0862 -0.2732
12036TIP3    H236045   3.006   4.787   6.677  0.2560  0.0925  0.1595
12037TIP3   OH236046   7.611   1.451   0.455  0.1900  0.0162 -0.0142
12037TIP3    H136047   7.681   1.481   0.397 -0.9869  0.9835 -1.0006
12037TIP3    H236048   7.590   1.528   0.508  0.1214 -0.3645  0.5039
12038TIP3   OH236049   7.265   0.800   0.087 -0.7619  0.3275  0.0308
12038TIP3    H136050   7.179   0.841   0.096 -1.0370 -0.3295  0.4483
12038TIP3    H236051   7.250   0.727   0.027 -0.8131 -0.6564  1.2082
12039TIP3   OH236052   6.415   1.217   0.248  0.0397  0.0430 -0.6556
12039TIP3    H136053   6.403   1.304   0.285 -0.9942  0.1654 -1.2417
12039TIP3    H236054   6.477   1.229   0.176  1.0575  0.0244  0.2051
12040TIP3   OH236055   8.040   1.747   1.595 -0.1318  0.3286 -0.0446
12040TIP3    H136056   8.088   1.671   1.628  1.0464  0.2983 -1.7701
12040TIP3    H236057   7.956   1.744   1.640 -0.2410 -2.2106 -0.3746
12041TIP3   OH236058   6.899   1.075  -0.005  0.6469  0.0774  0.3775
12041TIP3    H136059   6.977   1.130  -0.006  1.8042 -1.5257 -1.3576
12041TIP3    H236060   6.926   0.996   0.041  0.3295 -0.8305 -0.9544
12042TIP3   OH236061   5.858   1.201   3.931 -0.2749  0.1967 -0.2189
12042TIP3    H136062   5.786   1.262   3.942  0.2555  0.8903 -0.5747
12042TIP3    H236063   5.828   1.139   3.865 -0.6394  0.3339 -0.1826
12043TIP3   OH236064   7.981   6.497   5.021 -0.2872 -0.1318 -0.2052
12043TIP3    H136065   7.921   6.557   5.066 -1.1329 -0.2004 -1.2311
12043TIP3    H236066   7.978   6.523   4.929 -0.4983 -1.5977 -0.6253
12044TIP3   OH236067   2.608   7.668   5.486  0.1470 -0.5378 -0.2017
12044TIP3    H136068   2.629   7.627   5.402 -0.1839  0.8768 -0.9903
12044TIP3    H236069   2.681   7.728   5.502 -0.9971  0.9945 -0.6866
12045TIP3   OH236070   0.340   6.157   5.589 -0.3189  0.3685 -0.0782
12045TIP3    H136071   0.399   6.184   5.519  0.2654 -2.7389 -0.8835
12045TIP3    H236072   0.294   6.081   5.553 -1.4512 -0.0674  2.2004
12046TIP3   OH236073   7.788   1.638   0.599  0.3751 -0.1409  0.2357
12046TIP3    H136074   7.796   1.545   0.620 -0.2400 -0.4145 -0.7008
12046TIP3    H236075   7.696   1.658   0.614  0.6449  0.4977  1.1105
12047TIP3   OH236076   7.682   5.266   5.978 -0.5074  0.0002  0.1160
12047TIP3    H136077   7.672   5.294   5.887  0.6119  2.5829  0.7621
12047TIP3    H236078   7.593   5.258   6.011 -0.9100 -0.5183 -1.0646
12048TIP3   OH236079   0.909   5.495   5.205  0.4256  0.0901  0.1236
12048TIP3    H136080   0.954   5.475   5.124  2.3617  1.0032  0.9465
12048TIP3    H236081   0.821   5.460   5.193  1.4864 -2.1463 -1.3264
12049TIP3   OH236082   0.483   7.436   5.389  0.2821  0.2620 -0.0848
12049TIP3    H136083   0.426   7.359   5.383 -0.1194  0.6098 -0.8225
12049TIP3    H236084   0.570   7.400   5.406 -0.1044 -0.2907  0.7754
12050TIP3   OH236085   8.172   1.466   1.266 -0.3618 -0.7435 -0.0078
12050TIP3    H136086   8.250   1.474   1.212 -0.9656 -1.3820 -1.0001
12050TIP3    H236087   8.142   1.376   1.252  0.1320 -1.3019  2.3295
12051TIP3   OH236088   2.047   5.496   2.876 -0.0114  0.4564 -0.0089
12051TIP3    H136089   1.972   5.544   2.840  0.2870  0.3144 -0.8229
12051TIP3    H236090   2.123   5.539   2.838  0.2444 -1.0748 -1.2898
12052TIP3   OH236091   7.287   3.043   0.390 -0.3181 -0.2576 -0.4416
12052TIP3    H136092   7.359   2.999   0.346  2.1483  1.3108  1.8485
12052TIP3    H236093   7.257   3.109   0.328  0.5924 -0.5588 -1.2095
12053TIP3   OH236094   5.535   2.429   0.250 -0.3584 -0.2236 -0.0676
12053TIP3    H136095   5.586   2.357   0.211 -1.8894 -0.0895 -2.4346
12053TIP3    H236096   5.588   2.507   0.234 -0.2019 -0.4000 -0.4248
12054TIP3   OH236097   2.625   0.188   4.989 -0.6973  0.1570  0.2322
12054TIP3    H136098   2.571   0.122   4.945  0.1537 -0.3908 -0.0128
12054TIP3    H236099   2.622   0.163   5.081  0.8684 -1.1713 -0.0396
12055TIP3   OH236100   8.004   3.158   1.446 -0.0958 -0.5473 -0.0537
12055TIP3    H136101   7.953   3.107   1.383  1.2232 -1.9835  0.0065
12055TIP3    H236102   8.030   3.095   1.512  1.2740  0.2799  0.2220
12056TIP3   OH236103   0.974   7.337   6.428  0.1849 -0.1340 -0.7198
12056TIP3    H136104   0.984   7.243   6.415 -1.2449 -0.4016  0.0262
12056TIP3    H236105   0.880   7.353   6.422  0.2769  1.0378  0.4722
12057TIP3   OH236106   0.612   7.794   3.924 -0.2001 -0.4306  0.1281
12057TIP3    H136107   0.554   7.762   3.994  0.6683 -1.5738  0.3435
12057TIP3    H236108   0.650   7.715   3.887 -0.0806  0.2246 -1.1580
12058TIP3   OH236109   1.870   6.585   6.958 -0.0106  0.0821 -0.2632
12058TIP3    H136110   1.791   6.639   6.958 -0.6496 -0.8498  0.2051
12058TIP3    H236111   1.848   6.511   6.901  1.0337  0.5648 -1.3082
12059TIP3   OH236112   3.466   1.200   1.307  0.3702  0.0116 -0.2182
12059TIP3    H136113   3.561   1.201   1.300  0.3393 -0.3090 -0.7239
12059TIP3    H236114   3.448   1.239   1.392  1.0121 -1.0770  0.4400
12060TIP3   OH236115   3.145   7.957   4.211  0.3337  0.0880 -0.2434
12060TIP3    H136116   3.219   8.010   4.240  0.0831 -0.8252  2.1588
12060TIP3    H236117   3.075   7.977   4.274 -0.6641 -0.9144 -1.0084
12061TIP3   OH236118   1.218   7.262   4.992 -0.0308  0.0620  0.1096
12061TIP3    H136119   1.210   7.283   5.085  0.0014 -0.0210  0.1309
12061TIP3    H236120   1.134   7.287   4.954  0.3006  1.0403 -0.0155
12062TIP3   OH236121   2.462   5.539   5.854  0.4661  0.0048  0.1664
12062TIP3    H136122   2.552   5.565   5.872 -0.1515  0.7073  2.4789
12062TIP3    H236123   2.416   5.553   5.937 -1.7145 -0.5898 -0.8948
12063TIP3   OH236124   1.432   5.409   4.934 -0.1795 -0.2787 -0.1369
12063TIP3    H136125   1.412   5.317   4.915  1.2373 -0.6139 -0.0057
12063TIP3    H236126   1.526   5.417   4.921 -0.5131  1.5559 -1.8429
12064TIP3   OH236127   1.598   4.391   4.836 -0.1239 -0.0750 -0.6553
12064TIP3    H136128   1.691   4.395   4.814 -0.2162 -1.8800 -1.4707
12064TIP3    H236129   1.557   4.348   4.761 -1.8356  1.9665 -0.9201
12065TIP3   OH236130   3.465   6.917   6.759 -0.4814 -0.1845  0.4240
12065TIP3    H136131   3.497   6.920   6.849  0.4265 -0.9472  0.1362
12065TIP3    H236132   3.497   6.998   6.719 -2.0416  0.8116  1.1560
12066TIP3   OH236133   1.729   2.643   1.278 -0.0508  0.2878  0.3636
12066TIP3    H136134   1.709   2.653   1.371  0.4306  0.2240  0.4791
12066TIP3    H236135   1.650   2.670   1.233  0.1040  1.4161  0.7638
12067TIP3   OH236136   3.728   6.842   6.518  0.4533  0.2831 -0.0299
12067TIP3    H136137   3.699   6.914   6.574  0.5366  1.2695 -1.2233
12067TIP3    H236138   3.663   6.841   6.446  1.4355  0.3129 -0.9303
12068TIP3   OH236139   7.415   2.409   0.490  0.2644 -0.0789  0.6330
12068TIP3    H136140   7.506   2.436   0.497  0.5643 -0.9178 -0.0448
12068TIP3    H236141   7.367   2.490   0.471  0.8944  0.3158  0.7334
12069TIP3   OH236142   0.744   3.563   0.585 -0.2437  0.1510 -0.1525
12069TIP3    H136143   0.801   3.639   0.594 -0.1577 -0.0011  0.5947
12069TIP3    H236144   0.701   3.575   0.500  1.2237  0.0431 -0.9231
12070TIP3   OH236145   3.644   0.514   5.124  0.0266  0.1710  0.4697
12070TIP3    H136146   3.663   0.594   5.173 -0.0685 -0.3769  1.4006
12070TIP3    H236147   3.565   0.536   5.074  0.4790  0.9357  0.0709
12071TIP3   OH236148   1.440   7.824   5.258 -0.4788  0.0700 -0.5042
12071TIP3    H136149   1.459   7.864   5.173  3.1603  0.3975  0.3884
12071TIP3    H236150   1.460   7.893   5.322 -1.3792 -0.7834  0.7238
12072TIP3   OH236151   2.308   0.411   0.099  0.4562 -0.1871 -0.0689
12072TIP3    H136152   2.262   0.469   0.159 -0.7490 -1.6579  0.4785
12072TIP3    H236153   2.278   0.323   0.124  0.7253 -0.8921 -2.1541
12073TIP3   OH236154   1.990   4.922   6.622  0.2657  0.1688 -0.0740
12073TIP3    H136155   2.070   4.971   6.643 -0.3063  1.0881 -0.0122
12073TIP3    H236156   1.920   4.987   6.627 -0.2826 -0.2542 -1.7287
12074TIP3   OH236157   3.241   0.875   5.999  0.6655  0.1868 -0.0382
12074TIP3    H136158   3.238   0.794   5.948  2.4199  0.3210 -0.3766
12074TIP3    H236159   3.308   0.928   5.956  2.0816  0.3716  2.3083
12075TIP3   OH236160   0.634   1.824   0.454  0.5181 -0.0809 -0.1622
12075TIP3    H136161   0.663   1.743   0.495  2.9457  0.5019 -0.6212
12075TIP3    H236162   0.648   1.810   0.361 -1.1408  0.0635 -0.4327
12076TIP3   OH236163   7.420   2.222   0.095 -0.4069 -0.0856  0.2108
12076TIP3    H136164   7.386   2.134   0.084 -0.2034 -0.1680  0.2328
12076TIP3    H236165   7.420   2.259   0.007  1.6753 -0.9147 -0.1789
12077TIP3   OH236166   0.022   7.682   6.268 -0.2882 -0.4254  0.0248
12077TIP3    H136167   0.111   7.650   6.279 -0.4206 -1.0266 -0.5727
12077TIP3    H236168  -0.010   7.695   6.357 -0.2711 -2.1125  0.3097
12078TIP3   OH236169   0.336   2.432   1.018  0.1252 -0.3587 -0.6760
12078TIP3    H136170   0.428   2.425   0.993  0.9991 -0.9685  2.4434
12078TIP3    H236171   0.318   2.351   1.066 -1.4225  0.6419  0.4935
12079TIP3   OH236172   3.905   6.690   4.916  0.6578  0.0192  0.1563
12079TIP3    H136173   3.862   6.744   4.982 -0.3009  0.7382 -1.0338
12079TIP3    H236174   3.914   6.604   4.958  1.1702  0.7816  1.6513
12080TIP3   OH236175   8.017   2.992   0.380 -0.4591 -0.1916  0.2212
12080TIP3    H136176   7.955   3.064   0.367 -0.4643 -0.2960 -0.3348
12080TIP3    H236177   7.964   2.913   0.371 -0.4391 -0.2685  0.7639
12081TIP3   OH236178   5.032   4.606   6.693  0.4450 -0.1611  0.6127
12081TIP3    H136179   4.998   4.645   6.613  2.1479  0.4376  0.1595
12081TIP3    H236180   5.017   4.672   6.761  0.7588  0.1282  0.4017
12082TIP3   OH236181   1.269   6.280   6.907 -0.1365  0.0214 -0.1216
12082TIP3    H136182   1.271   6.248   6.817 -0.3931  0.2729 -0.2185
12082TIP3    H236183   1.233   6.369   6.900 -1.4160 -0.4457  0.3659
12083TIP3   OH236184   3.752   6.384   6.112 -0.3907  0.2385 -0.4990
12083TIP3    H136185   3.775   6.396   6.019 -1.1684 -0.0379 -0.7304
12083TIP3    H236186   3.801   6.306   6.139  0.9762  1.1455 -0.2752
12084TIP3   OH236187   0.341   1.193   0.028 -0.4189 -0.8657  0.3243
12084TIP3    H136188   0.288   1.264   0.063  0.1508 -0.1009 -0.3744
12084TIP3    H236189   0.285   1.115   0.037 -1.3089 -0.2163  0.4174
12085TIP3   OH236190   2.333   7.426   5.743  0.3455  0.4162 -0.5005
12085TIP3    H136191   2.428   7.415   5.742  0.0809 -2.6979  1.5196
12085TIP3    H236192   2.312   7.442   5.835 -1.0207  2.1259 -1.0809
12086TIP3   OH236193   3.083   4.796   5.043  0.5301  0.3520  0.1418
12086TIP3    H136194   3.017   4.845   4.994  2.0683  1.1881 -1.1699
12086TIP3    H236195   3.058   4.807   5.134 -1.3790  0.2845 -0.3605
12087TIP3   OH236196   2.761   5.899   6.139 -0.0493 -0.0491 -0.4515
12087TIP3    H136197   2.770   5.991   6.115  0.3720 -0.7582 -3.2672
12087TIP3    H236198   2.694   5.897   6.207 -1.7066  2.1020 -1.9832
12088TIP3   OH236199   1.870   7.951   6.671 -0.0052 -0.0296 -0.0165
12088TIP3    H136200   1.935   7.940   6.741  0.5101  0.9926 -0.3286
12088TIP3    H236201   1.911   7.912   6.594 -1.2394 -2.6670  0.5960
12089TIP3   OH236202   3.603   4.007   5.590  0.7697  0.0154  0.4681
12089TIP3    H136203   3.510   4.032   5.585  1.0031  0.6468 -0.7093
12089TIP3    H236204   3.648   4.088   5.613  1.1321 -0.1099  0.1865
12090TIP3   OH236205   2.493   6.609   6.508 -0.6092  0.1383 -0.2528
12090TIP3    H136206   2.526   6.668   6.440 -1.9034 -0.1165 -1.1274
12090TIP3    H236207   2.471   6.528   6.461  0.9453 -0.9915  0.9004
12091TIP3   OH236208   1.182   0.587   0.111 -0.0558  0.3012  0.1809
12091TIP3    H136209   1.175   0.665   0.057  0.4702  0.9897  1.0849
12091TIP3    H236210   1.228   0.617   0.190 -1.6559 -0.4424  1.4444
12092TIP3   OH236211   3.832   6.298   5.677  0.3510  0.6072  0.1417
12092TIP3    H136212   3.912   6.246   5.680 -1.1461 -1.7050  1.6758
12092TIP3    H236213   3.846   6.369   5.740  1.2445  0.3004  0.2907
12093TIP3   OH236214   1.274   5.344   5.584  0.1089 -0.1513  0.1225
12093TIP3    H136215   1.345   5.315   5.642 -0.9217  0.6993  1.8604
12093TIP3    H236216   1.261   5.436   5.607 -0.9303 -0.0453 -0.8485
12094TIP3   OH236217   8.301   2.815   1.138  0.0614  0.0527  0.1379
12094TIP3    H136218   8.207   2.813   1.121  0.2130 -2.0005 -0.6183
12094TIP3    H236219   8.310   2.768   1.222  0.3061  1.2851  0.8108
12095TIP3   OH236220   7.891   2.745   0.314 -0.2697 -0.0024 -0.1371
12095TIP3    H136221   7.963   2.681   0.309  0.7352  1.0015  1.0616
12095TIP3    H236222   7.816   2.700   0.276  0.2858 -2.1097  1.2006
12096TIP3   OH236223   1.895   6.939   3.363  0.4143  0.1250 -0.0705
12096TIP3    H136224   1.888   6.844   3.368 -0.9538  0.1569 -1.0366
12096TIP3    H236225   1.816   6.971   3.406 -0.2337  0.7641 -1.7028
12097TIP3   OH236226   3.172   6.355   6.461  0.0677  0.3513 -0.2142
12097TIP3    H136227   3.256   6.389   6.490  0.1739 -0.2509  0.1935
12097TIP3    H236228   3.134   6.316   6.540 -1.2519  1.9344 -0.0240
12098TIP3   OH236229   2.424   6.536   4.382  0.0081 -0.9041 -0.3360
12098TIP3    H136230   2.503   6.580   4.349  0.5918 -0.6839  1.2946
12098TIP3    H236231   2.454   6.489   4.460 -1.6901  0.0816  0.9544
12099TIP3   OH236232   5.623   0.992   6.123 -0.8335 -0.2576 -0.1168
12099TIP3    H136233   5.640   0.955   6.037 -0.6272 -1.3037  0.3626
12099TIP3    H236234   5.707   0.988   6.169 -0.9932  0.0689  0.2141
12100TIP3   OH236235   2.812   5.132   6.700  0.0179 -0.3774  0.7279
12100TIP3    H136236   2.895   5.121   6.654 -1.2187 -1.0785 -1.4003
12100TIP3    H236237   2.762   5.193   6.646 -2.1290 -2.5164  0.2012
12101TIP3   OH236238   3.066   5.562   6.380  0.2124 -0.0235  0.1570
12101TIP3    H136239   3.110   5.491   6.333 -1.8514 -1.0217 -0.2983
12101TIP3    H236240   3.045   5.626   6.313  1.3268  0.6524  0.4414
12102TIP3   OH236241   2.850   6.162   5.327 -0.8584  0.5738  0.1361
12102TIP3    H136242   2.902   6.242   5.329 -0.4627  0.3468 -0.7312
12102TIP3    H236243   2.910   6.093   5.353 -0.7467  0.3308 -0.7312
12103TIP3   OH236244   1.901   6.168   5.147 -0.2681 -0.5584  0.5995
12103TIP3    H136245   1.841   6.133   5.081  0.1721  2.2667 -1.4028
12103TIP3    H236246   1.986   6.131   5.124 -0.0179  0.8084 -0.8163
12104TIP3   OH236247   6.309   3.494   0.445 -0.0185  0.5413 -0.0821
12104TIP3    H136248   6.346   3.549   0.377 -0.2133  0.3946 -0.3060
12104TIP3    H236249   6.214   3.499   0.432 -0.1485  1.8921  1.2377
12105TIP3   OH236250   3.509   6.575   5.644 -0.4496 -0.2588  0.2755
12105TIP3    H136251   3.528   6.665   5.668 -1.3836 -0.4254  1.7087
12105TIP3    H236252   3.415   6.566   5.656 -0.4967 -1.1836 -0.7078
12106TIP3   OH236253   1.913   6.564   6.244  0.0549  0.1986 -0.0199
12106TIP3    H136254   1.988   6.507   6.257 -0.7341 -0.3354  2.4230
12106TIP3    H236255   1.923   6.597   6.154  3.3110  0.3297  0.3434
12107TIP3   OH236256   4.209   6.233   6.064 -0.5357  0.0252 -0.0629
12107TIP3    H136257   4.262   6.170   6.014 -0.7163  1.8555 -2.7091
12107TIP3    H236258   4.250   6.236   6.150  1.2042 -1.6014 -0.7911
12108TIP3   OH236259   2.689   7.384   4.800  0.1268 -0.2160 -0.2231
12108TIP3    H136260   2.762   7.323   4.817 -0.7385 -0.5117  2.6528
12108TIP3    H236261   2.693   7.399   4.706  2.3934 -2.1722 -0.5081
12109TIP3   OH236262   3.390   4.323   5.599 -0.0140  0.0425  0.1557
12109TIP3    H136263   3.328   4.287   5.535  1.3218  0.4243 -1.3704
12109TIP3    H236264   3.358   4.411   5.618 -0.0136  0.1863 -0.5245
12110TIP3   OH236265   2.362   7.779   5.405 -0.0326  0.2970 -0.2347
12110TIP3    H136266   2.428   7.727   5.450  0.3731  0.2588 -0.8698
12110TIP3    H236267   2.285   7.773   5.461  0.4821  0.3003  0.4833
12111TIP3   OH236268   0.911   1.964   0.168 -0.0887 -0.3754  0.2298
12111TIP3    H136269   0.951   2.017   0.237  2.5393 -1.3867 -0.4604
12111TIP3    H236270   0.879   2.028   0.103 -0.0598  0.4579  1.0339
12112TIP3   OH236271   1.602   7.806   6.746  0.0730 -0.5102 -0.0325
12112TIP3    H136272   1.548   7.885   6.756 -0.2820 -0.7210 -0.2628
12112TIP3    H236273   1.691   7.839   6.736  0.1374 -0.1957  1.4701
12113TIP3   OH236274   1.738   5.392   4.875 -0.3117 -0.3893  0.1045
12113TIP3    H136275   1.776   5.329   4.815 -0.0998 -0.7211  0.5889
12113TIP3    H236276   1.760   5.477   4.838  0.3403 -0.5864  0.0377
12114TIP3   OH236277   0.320   3.182   0.183 -0.3935  0.0437  0.2584
12114TIP3    H136278   0.248   3.242   0.163 -0.4576  0.3410  1.3462
12114TIP3    H236279   0.369   3.226   0.253  2.1772  0.9041 -1.9951
12115TIP3   OH236280   5.346   6.047   5.917 -0.0228  0.3259 -0.5513
12115TIP3    H136281   5.278   6.069   5.854 -0.1244 -0.6387 -0.7801
12115TIP3    H236282   5.310   6.076   6.001 -0.6944 -0.1243 -0.6781
12116TIP3   OH236283   1.387   6.908   4.409 -0.1418  0.6118  0.2711
12116TIP3    H136284   1.461   6.969   4.410 -1.1784  1.8528  1.0917
12116TIP3    H236285   1.401   6.852   4.486 -0.2165  1.0194  0.5779
12117TIP3   OH236286   2.880   3.757   6.108 -0.3604  0.4914 -0.1394
12117TIP3    H136287   2.813   3.693   6.085 -0.4968 -0.1162  1.8509
12117TIP3    H236288   2.845   3.804   6.184  0.1336  2.3214 -1.0022
12118TIP3   OH236289   0.241   3.764   0.623  0.4218  0.1120  0.5133
12118TIP3    H136290   0.165   3.808   0.585  0.2090  0.3426  1.2056
12118TIP3    H236291   0.206   3.714   0.697  1.1271  1.3108  1.6937
12119TIP3   OH236292   7.410   1.395   0.290  0.1547 -0.2032  0.0311
12119TIP3    H136293   7.466   1.318   0.278 -1.2153 -1.2733  0.4033
12119TIP3    H236294   7.463   1.454   0.343  0.9976 -1.1461  0.2589
12120TIP3   OH236295   3.126   3.590   6.283  0.1114  0.1576 -0.0366
12120TIP3    H136296   3.076   3.509   6.294 -1.9395  1.5959  1.7309
12120TIP3    H236297   3.072   3.657   6.325  2.7831  2.0830  0.4633
12121TIP3   OH236298   0.301   3.699   1.024  0.3492 -0.4970 -0.4474
12121TIP3    H136299   0.348   3.678   1.105  1.1226 -0.3389 -0.8457
12121TIP3    H236300   0.219   3.739   1.053 -0.0041 -1.7110  0.2859
12122TIP3   OH236301   3.934   6.449   6.505  0.1930 -0.3421  0.0867
12122TIP3    H136302   3.946   6.462   6.411 -2.5426 -2.7230 -0.6751
12122TIP3    H236303   3.920   6.537   6.540 -1.4585  0.3732 -2.1989
12123TIP3   OH236304   2.612   6.458   5.770 -0.3999 -0.0777 -0.5587
12123TIP3    H136305   2.642   6.457   5.679 -1.8198 -0.4118 -1.0375
12123TIP3    H236306   2.523   6.425   5.766  0.0842 -1.6726  1.1813
12124TIP3   OH236307   2.036   5.095   6.255  0.2922 -0.5190  0.6655
12124TIP3    H136308   2.080   5.170   6.296 -1.9891  1.0550  0.3530
12124TIP3    H236309   1.965   5.074   6.315  0.8267 -2.3720  0.6676
12125TIP3   OH236310   1.825   7.366   3.960 -0.9761  0.3931 -0.2758
12125TIP3    H136311   1.904   7.328   3.999 -1.0857  0.4934  0.0508
12125TIP3    H236312   1.853   7.397   3.874  0.1984  3.5633  1.1801
12126TIP3   OH236313   1.713   6.423   6.372  0.2804 -0.0484  0.1371
12126TIP3    H136314   1.778   6.460   6.313 -0.2706 -0.7620 -0.9394
12126TIP3    H236315   1.687   6.496   6.429  0.4326  0.7773 -0.8480
12127TIP3   OH236316   2.382   2.283   0.320 -0.3542  0.0740 -0.6868
12127TIP3    H136317   2.370   2.374   0.292  1.0789  1.2149  2.1399
12127TIP3    H236318   2.469   2.259   0.287 -0.1499  0.2250 -0.2691
12128TIP3   OH236319   1.697   5.716   5.493 -0.3240 -0.2180 -0.3812
12128TIP3    H136320   1.697   5.753   5.405 -0.5370  0.2898 -0.1680
12128TIP3    H236321   1.713   5.623   5.479  0.5276 -0.0054 -0.8977
12129TIP3   OH236322   1.404   5.887   5.973 -0.1107 -0.3207  0.4953
12129TIP3    H136323   1.361   5.822   6.028 -1.9089  0.8544  0.5177
12129TIP3    H236324   1.376   5.866   5.884 -0.1302 -0.0042  0.4246
12130TIP3   OH236325   0.636   1.519   0.091  0.5854  0.4727 -0.0422
12130TIP3    H136326   0.677   1.446   0.138  1.3702 -0.6905 -2.4484
12130TIP3    H236327   0.705   1.551   0.032 -0.6840  1.1874 -1.1614
12131TIP3   OH236328   3.730   5.830   6.756  0.3318 -0.0882  0.2045
12131TIP3    H136329   3.641   5.848   6.788  0.2458  0.3466 -0.2698
12131TIP3    H236330   3.740   5.888   6.680 -0.2739 -2.6263 -1.9063
12132TIP3   OH236331   1.375   5.132   3.142 -0.2623 -0.3167 -0.0348
12132TIP3    H136332   1.406   5.191   3.073  2.2164 -1.6915 -0.1817
12132TIP3    H236333   1.360   5.049   3.097 -1.1985 -0.5089  0.6226
12133TIP3   OH236334   6.640   0.837   6.761 -0.2809  0.4287  0.0340
12133TIP3    H136335   6.710   0.799   6.706 -2.1965 -0.3699 -1.9597
12133TIP3    H236336   6.629   0.774   6.832 -0.3775 -0.5209 -0.8033
12134TIP3   OH236337   0.654   4.776   6.007  0.0187 -0.0935  0.0960
12134TIP3    H136338   0.720   4.714   6.038 -0.0538  0.1447  0.7319
12134TIP3    H236339   0.629   4.743   5.920  0.4458 -0.5888  0.1594
12135TIP3   OH236340   1.943   7.688   6.816  0.2205  0.0842 -0.4070
12135TIP3    H136341   2.018   7.644   6.857  0.9634  1.7386  0.0303
12135TIP3    H236342   1.866   7.651   6.860  0.8030 -1.1766 -0.4380
12136TIP3   OH236343   3.086   5.262   6.282 -0.0130  0.3283 -0.5236
12136TIP3    H136344   3.167   5.214   6.299 -1.1817 -1.4719 -0.0097
12136TIP3    H236345   3.073   5.253   6.187  0.7610  1.2749 -0.7404
12137TIP3   OH236346   3.261   5.580   5.002  0.1456  0.0845 -0.0541
12137TIP3    H136347   3.316   5.657   4.989 -0.5623  0.6240  0.1175
12137TIP3    H236348   3.248   5.544   4.914 -0.5412  0.8807 -0.2933
12138TIP3   OH236349   1.768   4.900   5.011  0.6601  0.3838 -0.1737
12138TIP3    H136350   1.749   4.817   4.968  2.5032  0.2583 -0.7826
12138TIP3    H236351   1.826   4.877   5.083  1.1680  1.1451 -0.3380
12139TIP3   OH236352   3.158   3.771   6.812 -0.0005 -0.2925 -0.2803
12139TIP3    H136353   3.207   3.808   6.739 -0.3026  1.6884  0.4940
12139TIP3    H236354   3.225   3.746   6.876  0.1530 -0.4118 -0.4867
12140TIP3   OH236355   7.524   1.665   0.682  0.0338 -0.0240 -0.1552
12140TIP3    H136356   7.433   1.645   0.701 -0.8459  2.0887 -1.9882
12140TIP3    H236357   7.543   1.743   0.734  0.3870  0.3663 -0.8707
12141TIP3   OH236358   8.206   2.148   0.411 -0.2004  0.7159 -0.0525
12141TIP3    H136359   8.266   2.115   0.479 -0.1690 -0.5034 -0.6544
12141TIP3    H236360   8.238   2.108   0.330 -2.2970 -0.6006 -0.2572
12142TIP3   OH236361   3.039   5.309   5.999  0.6359  0.0710 -0.8541
12142TIP3    H136362   3.119   5.362   6.003  0.7598 -0.0559 -1.6371
12142TIP3    H236363   2.968   5.370   6.016  0.8429  0.3328 -0.9388
12143TIP3   OH236364   2.809   7.835   5.120  0.1824 -0.5111 -0.3266
12143TIP3    H136365   2.831   7.761   5.062 -1.6732 -1.0149 -0.4165
12143TIP3    H236366   2.727   7.809   5.162 -1.3328  2.1417 -1.5246
12144TIP3   OH236367   3.622   5.944   6.294 -0.0569  0.0656 -0.6409
12144TIP3    H136368   3.612   6.039   6.284 -0.5335  0.0834 -0.0341
12144TIP3    H236369   3.564   5.907   6.227 -1.5817  0.1961  0.5733
12145TIP3   OH236370   8.254   2.597   0.498  0.7468 -0.1912 -0.0611
12145TIP3    H136371   8.293   2.678   0.466  1.6069 -0.2351  0.8464
12145TIP3    H236372   8.206   2.561   0.423  2.1825  0.0305 -1.0965
12146TIP3   OH236373   6.372   0.867   0.970 -0.3909  0.1044 -0.2270
12146TIP3    H136374   6.338   0.803   1.033 -0.0920 -0.1484 -0.3203
12146TIP3    H236375   6.352   0.829   0.884  0.2402 -0.1085 -0.2819
12147TIP3   OH236376   3.406   6.242   5.851  0.4108 -0.2564 -0.5345
12147TIP3    H136377   3.376   6.172   5.908  1.8734 -1.5846 -1.3462
12147TIP3    H236378   3.327   6.271   5.805 -0.4777 -0.2998  0.9421
12148TIP3   OH236379   3.690   6.440   5.026 -0.1006 -0.0112  0.4593
12148TIP3    H136380   3.679   6.389   5.106  1.1041 -0.6223  0.2516
12148TIP3    H236381   3.717   6.376   4.960  1.9295  0.9342  0.3087
12149TIP3   OH236382   0.667   3.838   3.225 -0.1571  0.2836  0.2510
12149TIP3    H136383   0.618   3.772   3.274 -0.7501 -0.1616 -0.9285
12149TIP3    H236384   0.749   3.848   3.274 -0.8000 -0.0424  1.4110
12150TIP3   OH236385   3.046   6.448   5.029 -0.1034 -0.0979  0.1800
12150TIP3    H136386   3.048   6.429   5.123  0.7864 -1.7653 -0.1730
12150TIP3    H236387   2.955   6.434   5.004 -0.4420  0.7971  0.8778
12151TIP3   OH236388   1.090   2.373   0.245 -0.7200  0.2982  0.1708
12151TIP3    H136389   1.016   2.395   0.187 -1.2986  2.3906  1.6273
12151TIP3    H236390   1.054   2.382   0.333  1.5458  2.4646  0.9253
12152TIP3   OH236391   6.317   5.594   3.743  0.0101 -0.1151 -0.0190
12152TIP3    H136392   6.355   5.643   3.816 -0.4999  0.8335 -0.3782
12152TIP3    H236393   6.226   5.578   3.770 -0.2562  0.4775 -0.5575
12153TIP3   OH236394   1.960   7.115   4.041 -0.1626  0.4252  0.0620
12153TIP3    H136395   2.041   7.078   4.077 -1.0835 -1.2642  0.4648
12153TIP3    H236396   1.894   7.097   4.108 -1.6148 -1.5187 -1.8302
12154TIP3   OH236397   4.112   0.706   6.073  0.0196  0.0761  0.1752
12154TIP3    H136398   4.024   0.668   6.069  0.0807  0.0752 -2.2768
12154TIP3    H236399   4.162   0.645   6.127 -0.6599 -1.7428 -1.1841
12155TIP3   OH236400   0.052   3.690   1.307  0.7624  0.0611 -0.2228
12155TIP3    H136401   0.109   3.614   1.313  0.6013 -0.0978 -0.7247
12155TIP3    H236402  -0.026   3.666   1.358  1.0242  0.1740  0.2311
12156TIP3   OH236403   5.110   0.377   4.603  0.0912 -0.2792 -0.0903
12156TIP3    H136404   5.136   0.421   4.522 -2.1560  0.6896 -0.3091
12156TIP3    H236405   5.022   0.409   4.621 -0.4591 -2.4968  1.3354
12157TIP3   OH236406   3.327   5.139   5.477 -0.1026  0.3322  0.0808
12157TIP3    H136407   3.316   5.156   5.570 -0.4163  1.3373 -0.1323
12157TIP3    H236408   3.255   5.186   5.434  0.8864  1.1279 -0.7671
12158TIP3   OH236409   6.985   0.930   5.311  0.0165 -0.0381  0.0533
12158TIP3    H136410   7.055   0.866   5.293 -0.0893 -0.2533  0.3899
12158TIP3    H236411   7.008   0.966   5.396 -0.8723 -0.9092  0.6731
12159TIP3   OH236412   0.690   6.876   6.429  0.0548  0.1385 -0.0581
12159TIP3    H136413   0.692   6.817   6.504 -0.9655  1.5301  1.0946
12159TIP3    H236414   0.707   6.819   6.354  2.0431 -1.1316  1.2837
12160TIP3   OH236415   2.990   7.960   6.882 -0.0539 -0.1759 -0.1563
12160TIP3    H136416   2.988   7.946   6.788 -1.1818 -0.4482 -0.0984
12160TIP3    H236417   2.982   7.873   6.920  1.3133 -0.1629  0.2017
12161TIP3   OH236418   6.546   1.368   1.448  0.2809  0.1513 -0.2238
12161TIP3    H136419   6.542   1.374   1.544  0.7497 -0.1118 -0.1855
12161TIP3    H236420   6.487   1.296   1.427 -1.4792  1.5780 -0.3054
12162TIP3   OH236421   0.662   1.569   0.595 -0.0451 -0.0403  0.0245
12162TIP3    H136422   0.586   1.551   0.650 -0.0849  1.6708  0.5815
12162TIP3    H236423   0.673   1.491   0.541 -1.9310 -0.4619  0.2406
12163TIP3   OH236424   2.801   6.189   6.144 -0.4777 -0.8218  0.0792
12163TIP3    H136425   2.781   6.215   6.234 -0.0486 -0.8331  0.1806
12163TIP3    H236426   2.893   6.214   6.132  0.0004 -2.4542  0.2372
12164TIP3   OH236427   1.249   2.935   1.084 -0.8079  0.0988  0.3926
12164TIP3    H136428   1.200   2.930   1.166 -1.3346  1.1392  0.1466
12164TIP3    H236429   1.245   3.027   1.059  2.9878  0.5992  1.3782
12165TIP3   OH236430   7.131   3.334   0.921  0.1888 -0.6922 -0.7154
12165TIP3    H136431   7.053   3.281   0.908  0.2204 -1.0141  0.4285
12165TIP3    H236432   7.119   3.376   1.006  0.6477  0.3110 -1.1291
12166TIP3   OH236433   2.612   6.853   4.981  0.2310 -0.1744  0.6503
12166TIP3    H136434   2.621   6.813   5.067  0.4264 -0.0669  0.6809
12166TIP3    H236435   2.569   6.937   4.998 -1.4828 -0.9789  0.4337
12167TIP3   OH236436   2.671   5.669   5.935 -0.2573 -0.2178 -0.3133
12167TIP3    H136437   2.731   5.650   5.863 -0.8886  2.0660 -1.5030
12167TIP3    H236438   2.712   5.742   5.981 -0.6125 -0.6751  0.7363
12168TIP3   OH236439   3.050   6.247   6.914 -0.2480  0.2170 -0.6659
12168TIP3    H136440   3.093   6.333   6.909  0.0462  0.0766 -0.5196
12168TIP3    H236441   2.958   6.267   6.901  0.0866  0.2824 -3.4357
12169TIP3   OH236442   2.679   6.967   4.742 -0.0757 -0.5382 -0.1895
12169TIP3    H136443   2.655   6.903   4.676  0.2673 -0.1423 -0.6977
12169TIP3    H236444   2.677   6.918   4.825 -2.4072 -0.5680 -0.2442
12170TIP3   OH236445   0.436   4.461   6.808 -0.1709 -0.5346  0.0441
12170TIP3    H136446   0.493   4.432   6.737  0.3129  2.0766 -0.6937
12170TIP3    H236447   0.481   4.434   6.888  0.4620 -1.3871 -0.5984
12171TIP3   OH236448   0.673   2.766   0.498  0.0564  0.0348 -0.1264
12171TIP3    H136449   0.629   2.814   0.568  1.3378  0.0956  0.6579
12171TIP3    H236450   0.692   2.680   0.536  0.3289 -0.1009 -0.5562
12172TIP3   OH236451   7.209   2.059   0.783 -0.6865  0.0624 -0.4092
12172TIP3    H136452   7.258   2.079   0.863 -1.8323  1.1995  0.0143
12172TIP3    H236453   7.236   2.126   0.721 -1.3214  0.3818 -0.3386
12173TIP3   OH236454   5.289   1.013   3.333  0.1826 -0.0272  0.0774
12173TIP3    H136455   5.341   1.018   3.412  0.8586  0.0546 -0.3714
12173TIP3    H236456   5.326   0.939   3.285 -1.0043 -0.8472  0.4001
12174TIP3   OH236457   5.564   7.950   0.232  0.5035  0.1343 -0.1978
12174TIP3    H136458   5.520   8.029   0.262 -0.9892 -0.8444  0.2556
12174TIP3    H236459   5.494   7.895   0.198  1.1511 -2.0262  1.7776
12175TIP3   OH236460   2.308   6.798   6.596 -0.2102  0.1247  0.4746
12175TIP3    H136461   2.384   6.750   6.563 -0.0617  0.8617 -0.2615
12175TIP3    H236462   2.261   6.825   6.517 -0.0055  1.6619  0.8648
12176TIP3   OH236463   2.667   0.854   0.323 -0.4457  0.2485 -0.1671
12176TIP3    H136464   2.582   0.895   0.334  0.3633  1.9621 -0.1663
12176TIP3    H236465   2.676   0.842   0.229 -0.6927  0.0662 -0.1667
12177TIP3   OH236466   2.698   6.451   5.508  0.1317 -0.4372 -0.2461
12177TIP3    H136467   2.745   6.367   5.512  0.0276 -0.5252 -0.8311
12177TIP3    H236468   2.617   6.431   5.462  1.4215  0.5877 -3.0329
12178TIP3   OH236469   2.745   5.144   6.151 -0.0270  0.3788  0.3725
12178TIP3    H136470   2.666   5.089   6.149  0.8054 -0.8372 -2.1555
12178TIP3    H236471   2.817   5.083   6.135  1.1172  1.9226 -0.5214
12179TIP3   OH236472   7.766   3.486   0.336  0.0110  0.1427  0.0075
12179TIP3    H136473   7.747   3.393   0.322  0.0966  0.1436 -0.1120
12179TIP3    H236474   7.680   3.526   0.351 -0.0251  0.0443  0.0603
12180TIP3   OH236475   8.451   0.114   0.527  0.4980 -0.2685  0.6263
12180TIP3    H136476   8.540   0.148   0.537  0.7272 -0.9204  0.8674
12180TIP3    H236477   8.462   0.019   0.531 -0.0571 -0.3919 -0.5506
12181TIP3   OH236478   1.843   4.651   5.672 -0.0613  0.3319 -0.1392
12181TIP3    H136479   1.819   4.586   5.606 -0.7986  0.9547 -0.4837
12181TIP3    H236480   1.893   4.602   5.737 -2.2401 -1.0087  0.5936
12182TIP3   OH236481   8.402   3.635   0.321  0.3512 -0.3791  0.7151
12182TIP3    H136482   8.334   3.570   0.307  0.2556 -0.1593  0.1532
12182TIP3    H236483   8.385   3.669   0.408 -0.0057 -0.6209  0.7416
12183TIP3   OH236484   2.120   2.734   0.122 -0.7236 -0.0790  0.2616
12183TIP3    H136485   2.185   2.803   0.108 -0.6633 -0.0751  0.5517
12183TIP3    H236486   2.170   2.660   0.156 -0.8657 -0.0910  0.4436
12184TIP3   OH236487   0.697   6.479   3.609  0.0117  0.2647  0.3222
12184TIP3    H136488   0.698   6.402   3.552  0.3703 -0.3022  1.0857
12184TIP3    H236489   0.614   6.522   3.589 -0.8974 -1.1494  0.9682
12185TIP3   OH236490   2.780   4.945   5.827 -0.0655 -0.2761  0.2809
12185TIP3    H136491   2.783   5.036   5.797 -1.1823 -0.3605 -0.1016
12185TIP3    H236492   2.834   4.945   5.907  2.0529  0.1658 -1.1095
12186TIP3   OH236493   1.927   5.845   6.157 -0.5841  0.1545  0.2379
12186TIP3    H136494   1.947   5.785   6.229  0.1098  0.7475  0.5553
12186TIP3    H236495   1.859   5.801   6.107 -0.6066 -0.5645  0.8843
12187TIP3   OH236496   8.215   1.668   0.388  0.2465  0.0193 -0.2445
12187TIP3    H136497   8.140   1.713   0.427  0.1334 -0.7401  0.4238
12187TIP3    H236498   8.185   1.578   0.374  0.0069  0.4654 -2.8623
12188TIP3   OH236499   7.275   1.601   1.667 -0.4729  0.1273 -0.2369
12188TIP3    H136500   7.242   1.554   1.591 -0.6375  1.2898 -0.9090
12188TIP3    H236501   7.332   1.539   1.712 -1.1045 -0.8686 -0.8018
12189TIP3   OH236502   0.211   3.230   1.632 -0.0755 -0.1619 -0.4383
12189TIP3    H136503   0.248   3.290   1.697  1.6205 -1.1857 -0.4265
12189TIP3    H236504   0.201   3.147   1.679 -0.9542 -0.3221 -0.8856
12190TIP3   OH236505   0.631   7.494   4.229 -0.4671  0.2342 -0.0878
12190TIP3    H136506   0.648   7.583   4.259  1.3007  0.3360 -1.3052
12190TIP3    H236507   0.617   7.502   4.135  0.5790 -0.8694 -0.3518
12191TIP3   OH236508   3.531   7.702   5.752  0.0677  0.4013  0.3098
12191TIP3    H136509   3.508   7.795   5.762  0.7735  0.5333  0.8124
12191TIP3    H236510   3.449   7.659   5.728 -0.2404  1.1767 -0.0605
12192TIP3   OH236511   7.655   3.230   0.361  0.2863 -0.9338  0.0851
12192TIP3    H136512   7.559   3.238   0.356  0.5094  1.9177 -0.9804
12192TIP3    H236513   7.675   3.234   0.454 -0.6453 -1.5591  0.3137
12193TIP3   OH236514   1.788   6.748   5.949  0.3834 -0.0306 -0.0941
12193TIP3    H136515   1.861   6.802   5.980 -0.0557  1.5462 -1.6959
12193TIP3    H236516   1.830   6.683   5.891  0.7514 -0.5612  0.7539
12194TIP3   OH236517   2.094   6.452   6.553 -0.2365 -0.5824  0.9707
12194TIP3    H136518   2.154   6.517   6.589 -1.0911  0.4840  0.5098
12194TIP3    H236519   2.063   6.403   6.629  0.2827 -0.3413  1.3424
12195TIP3   OH236520   3.716   2.813   5.421 -0.4036  0.1131 -0.1573
12195TIP3    H136521   3.790   2.806   5.361  1.0340 -0.5890  1.6661
12195TIP3    H236522   3.658   2.740   5.395  0.8155 -0.9717  0.1286
12196TIP3   OH236523   0.164   3.126   2.268  0.1058 -0.1299 -0.4216
12196TIP3    H136524   0.120   3.208   2.244 -0.9216 -1.0013 -1.5750
12196TIP3    H236525   0.161   3.073   2.189  2.2266 -0.6725 -0.1610
12197TIP3   OH236526   5.517   5.881   5.144 -0.2871  1.0033 -0.0293
12197TIP3    H136527   5.520   5.922   5.230  0.4048 -1.7920  1.3608
12197TIP3    H236528   5.440   5.825   5.147 -0.2746  0.9067 -1.2417
12198TIP3   OH236529   8.213   4.063   5.967 -0.3727  0.2822 -0.1173
12198TIP3    H136530   8.167   4.113   6.033 -0.4584 -0.8914  0.7171
12198TIP3    H236531   8.238   3.981   6.010 -0.9188 -0.7417 -1.6808
12199TIP3   OH236532   4.961   0.383   5.010 -0.3601 -0.2384  0.3932
12199TIP3    H136533   5.001   0.296   5.002 -2.1360 -1.0211 -0.1494
12199TIP3    H236534   4.974   0.407   5.101  0.6826 -0.8077  0.4077
12200TIP3   OH236535   0.318   0.852   0.737 -0.4306 -0.2533 -0.4049
12200TIP3    H136536   0.306   0.849   0.832  2.6073 -1.1572  0.0165
12200TIP3    H236537   0.235   0.822   0.701 -0.6741 -2.7004  2.0471
12201TIP3   OH236538   8.233   3.355   1.457 -0.4171 -0.0242 -0.5242
12201TIP3    H136539   8.314   3.312   1.430 -0.9246 -0.8106 -0.8156
12201TIP3    H236540   8.164   3.303   1.417 -1.0350  1.2511 -1.1404
12202TIP3   OH236541   4.043   6.527   6.255  0.3964 -0.0897 -0.2001
12202TIP3    H136542   4.138   6.532   6.245  0.3785  1.1286  0.1175
12202TIP3    H236543   4.008   6.574   6.179 -0.0557 -3.7569 -2.3496
12203TIP3   OH236544   8.020   3.098   0.857 -0.5321  1.1807  0.6556
12203TIP3    H136545   8.017   3.005   0.834 -0.5979  0.8784  1.8056
12203TIP3    H236546   8.060   3.099   0.944  0.1616  2.2931  0.3320
12204TIP3   OH236547   2.181   1.566   1.105  0.1349 -0.4800 -0.3148
12204TIP3    H136548   2.277   1.573   1.105  0.0934  0.2187  0.3715
12204TIP3    H236549   2.152   1.642   1.054 -0.0623 -0.5588 -0.3191
12205TIP3   OH236550   8.492   6.787   6.800 -0.6123  0.6551 -0.5151
12205TIP3    H136551   8.425   6.813   6.862 -0.9246  1.5401 -1.2186
12205TIP3    H236552   8.539   6.868   6.779  0.5842  0.0749 -0.1345
12206TIP3   OH236553   2.988   5.585   6.649  0.0421 -0.3362 -0.0922
12206TIP3    H136554   3.071   5.615   6.687 -0.4359 -0.4069  1.0441
12206TIP3    H236555   3.007   5.569   6.557  1.5167 -1.2398  0.3638
12207TIP3   OH236556   3.488   7.302   6.458  0.0212 -0.0026 -0.1003
12207TIP3    H136557   3.438   7.354   6.521  2.3095  2.3542 -0.1422
12207TIP3    H236558   3.525   7.367   6.398  0.6812 -1.9429 -1.8275
12208TIP3   OH236559   4.876   7.956   1.453  0.3690 -0.0801 -0.0697
12208TIP3    H136560   4.917   8.033   1.413 -0.3917 -0.2955 -1.2807
12208TIP3    H236561   4.948   7.894   1.465  1.4995  1.7224  3.2931
12209TIP3   OH236562   1.141   1.762   0.054 -0.4577 -0.1080  0.3502
12209TIP3    H136563   1.071   1.822   0.080  0.4105  0.9987  0.1597
12209TIP3    H236564   1.125   1.683   0.106 -2.6881 -0.4216 -0.7447
12210TIP3   OH236565   1.561   0.047   0.168  0.3824 -0.3973  0.3680
12210TIP3    H136566   1.488   0.103   0.196  2.0884  1.1315  1.8957
12210TIP3    H236567   1.523  -0.010   0.101 -2.5813 -0.6523  2.1623
12211TIP3   OH236568   5.092   7.904   3.952 -0.4757  0.3736  0.0201
12211TIP3    H136569   5.066   7.899   3.860  0.0826  2.2687 -0.2498
12211TIP3    H236570   5.148   7.981   3.958 -0.1903  0.0556  1.8817
12212TIP3   OH236571   0.344   4.931   6.758 -0.1163  0.6682  0.0086
12212TIP3    H136572   0.437   4.918   6.777 -0.1430  0.0476 -0.2839
12212TIP3    H236573   0.299   4.870   6.817 -0.2547 -0.3892 -1.1585
12213TIP3   OH236574   4.360   0.951   5.510  0.3364  0.1044 -0.6535
12213TIP3    H136575   4.452   0.942   5.536  0.4507 -2.3109 -1.7619
12213TIP3    H236576   4.320   0.867   5.535 -1.3165  0.7284 -1.1551
12214TIP3   OH236577   2.984   7.893   6.598 -0.3531 -0.0723  0.0450
12214TIP3    H136578   2.914   7.848   6.551 -1.1304 -0.9836  2.0279
12214TIP3    H236579   3.061   7.839   6.583 -1.3687 -2.4122  2.7746
12215TIP3   OH236580   4.598   6.710   3.585  0.4586  0.1495  0.2836
12215TIP3    H136581   4.605   6.618   3.610 -0.5490  0.1138  0.4505
12215TIP3    H236582   4.623   6.759   3.664 -0.5771  0.0245  0.6947
12216TIP3   OH236583   3.793   7.747   6.726 -0.3180 -0.3696 -0.5319
12216TIP3    H136584   3.810   7.652   6.726  0.0967 -0.3026  0.3764
12216TIP3    H236585   3.754   7.764   6.640 -1.7850 -1.6153 -0.1425
12217TIP3   OH236586   7.831   4.205   1.558  0.0316  0.5965  0.2239
12217TIP3    H136587   7.901   4.229   1.498  0.4431  0.5887  0.6931
12217TIP3    H236588   7.779   4.284   1.568  0.9186  1.0836  1.1412
12218TIP3   OH236589   7.935   2.845   0.070 -0.2611  1.1016 -0.3976
12218TIP3    H136590   7.947   2.820   0.161  0.3307  3.1930  0.1101
12218TIP3    H236591   7.840   2.844   0.058 -0.3435  0.8345  0.2306
12219TIP3   OH236592   6.277   3.398   0.014 -0.0867  0.4714 -0.1973
12219TIP3    H136593   6.350   3.460   0.015 -0.1194  0.4993  1.2637
12219TIP3    H236594   6.317   3.313  -0.006  0.3716  0.4673  0.7062
12220TIP3   OH236595   2.708   4.526   6.113  0.3111 -0.0377 -0.3502
12220TIP3    H136596   2.770   4.584   6.158  2.7625 -1.2840 -2.0207
12220TIP3    H236597   2.696   4.566   6.027 -1.0835  0.0801 -0.1110
12221TIP3   OH236598   1.780   7.480   6.475 -0.1020 -0.3233  0.0519
12221TIP3    H136599   1.857   7.512   6.522 -0.7589  1.4416 -0.0251
12221TIP3    H236600   1.706   7.521   6.521 -0.8749 -0.3497 -1.1598
12222TIP3   OH236601   0.577   2.862   0.726 -0.2637 -0.4753  0.1366
12222TIP3    H136602   0.491   2.825   0.704 -0.6761  1.6085 -2.0037
12222TIP3    H236603   0.557   2.936   0.783  0.1242 -0.2357 -0.0361
12223TIP3   OH236604   2.935   5.551   5.264  0.0441  0.4290  0.3717
12223TIP3    H136605   3.022   5.590   5.259 -0.1723  0.7417 -1.1932
12223TIP3    H236606   2.878   5.613   5.218 -1.1419  0.5629  1.9531
12224TIP3   OH236607   2.857   5.601   5.753 -0.3644  0.1545 -0.5761
12224TIP3    H136608   2.929   5.540   5.742 -0.0533  0.0122  1.9171
12224TIP3    H236609   2.859   5.656   5.675  1.0832 -1.2233 -1.5261
12225TIP3   OH236610   0.759   7.942   6.693  0.5439 -0.0405 -0.2494
12225TIP3    H136611   0.809   8.014   6.730  1.4292 -1.6704  1.8118
12225TIP3    H236612   0.671   7.953   6.730  0.1638  1.0133 -1.4089
12226TIP3   OH236613   1.510   3.067   0.418 -0.9506 -0.4522  0.2890
12226TIP3    H136614   1.540   2.976   0.423  1.9603  0.3861 -0.8241
12226TIP3    H236615   1.418   3.061   0.395 -0.0776 -3.0910 -2.8663
12227TIP3   OH236616   0.129   2.481   1.286 -0.0096  0.1743  0.2175
12227TIP3    H136617   0.166   2.509   1.203 -1.2389  1.2144  0.0163
12227TIP3    H236618   0.202   2.438   1.332  0.6326 -0.5419 -1.4440
12228TIP3   OH236619   3.481   5.420   5.712  0.1205 -0.0113 -1.0402
12228TIP3    H136620   3.415   5.358   5.745  1.1250 -0.3965  0.3032
12228TIP3    H236621   3.482   5.490   5.777  1.2324 -0.1615 -0.8857
12229TIP3   OH236622   1.072   1.031   0.396 -0.4296  0.0924  0.2253
12229TIP3    H136623   1.164   1.006   0.409 -0.6062  0.4830  2.3017
12229TIP3    H236624   1.028   0.949   0.372  0.2733 -0.2748  0.1632
12230TIP3   OH236625   4.936   7.286   6.380  0.7237 -0.0599  0.3771
12230TIP3    H136626   4.994   7.244   6.316  0.0101  1.4591 -1.3047
12230TIP3    H236627   4.986   7.359   6.415  0.4922  0.1412  0.2928
12231TIP3   OH236628   7.919   4.258   0.493 -0.4292 -0.3075  0.2483
12231TIP3    H136629   7.891   4.258   0.401  1.1186 -2.9389 -0.2858
12231TIP3    H236630   7.855   4.202   0.537  1.6197 -3.1924 -0.2546
12232TIP3   OH236631   6.621   1.686   0.262  0.2221 -0.0335  0.2062
12232TIP3    H136632   6.624   1.607   0.316  1.1015 -0.4678 -0.4471
12232TIP3    H236633   6.712   1.697   0.232 -0.2238  0.2358 -1.0980
12233TIP3   OH236634   6.798   1.446   1.271 -0.0803 -0.7183 -0.7493
12233TIP3    H136635   6.835   1.487   1.192 -0.4641 -0.6870 -0.9155
12233TIP3    H236636   6.804   1.514   1.338 -2.6260  0.3595 -1.5533
12234TIP3   OH236637   3.688   5.849   4.665  0.4660  0.2227  0.4664
12234TIP3    H136638   3.661   5.792   4.592 -0.5397  0.7917  0.3812
12234TIP3    H236639   3.775   5.818   4.689  0.7084 -0.1178 -0.8328
12235TIP3   OH236640   7.421   6.038   5.684  0.0683  0.3813 -0.3056
12235TIP3    H136641   7.483   5.969   5.659 -0.0935  0.7672 -1.8209
12235TIP3    H236642   7.476   6.115   5.698  0.1411  0.2052  0.4076
12236TIP3   OH236643   0.458   7.332   6.063 -0.2421  0.2155 -0.0129
12236TIP3    H136644   0.444   7.238   6.049 -1.1582  0.5730 -1.6921
12236TIP3    H236645   0.374   7.372   6.039  0.6511  1.6037 -0.9120
12237TIP3   OH236646   0.703   2.086   0.377 -0.0111 -0.3605  0.0278
12237TIP3    H136647   0.681   1.994   0.362  0.1574 -0.5491  0.9342
12237TIP3    H236648   0.630   2.120   0.429  0.2864 -0.1783  0.3318
12238TIP3   OH236649   4.013   4.791   4.057  0.2527  0.6641 -0.1330
12238TIP3    H136650   4.056   4.874   4.078 -0.2444  1.3760 -1.8700
12238TIP3    H236651   4.035   4.775   3.965 -0.2829 -0.7576 -0.0253
12239TIP3   OH236652   1.563   7.087   6.628 -0.7390  0.2127  0.4751
12239TIP3    H136653   1.503   7.149   6.670 -0.4349 -1.0396  2.8397
12239TIP3    H236654   1.651   7.117   6.653 -0.5347 -0.3350  0.4293
12240TIP3   OH236655   2.732   7.918   5.431  0.1923  0.2319  0.2201
12240TIP3    H136656   2.726   7.944   5.522 -1.6538  1.4848 -0.2501
12240TIP3    H236657   2.796   7.978   5.393  2.0512 -1.2138  0.9884
12241TIP3   OH236658   6.843   0.737   0.598 -0.2238 -0.7487  0.1706
12241TIP3    H136659   6.920   0.718   0.651 -0.6360  0.8242  1.3728
12241TIP3    H236660   6.867   0.814   0.547 -0.4467 -1.2131 -0.6544
12242TIP3   OH236661   1.241   6.985   6.891  0.1450  0.2769 -0.4671
12242TIP3    H136662   1.246   7.069   6.844 -0.0302  0.8820  0.5800
12242TIP3    H236663   1.158   6.947   6.862 -0.7467  1.3926  0.5725
12243TIP3   OH236664   7.404   2.697   0.463 -0.2307 -0.3142 -0.0941
12243TIP3    H136665   7.480   2.638   0.465  0.4207  0.5386  0.3369
12243TIP3    H236666   7.397   2.724   0.371  0.0310 -0.3220 -0.1149
12244TIP3   OH236667   7.103   3.793   0.494  0.1346 -0.4242 -0.3127
12244TIP3    H136668   7.172   3.727   0.497 -0.5807 -1.2098 -0.9242
12244TIP3    H236669   7.147   3.874   0.520  1.1551 -1.0208 -0.1374
12245TIP3   OH236670   3.251   7.028   5.614  0.0238  0.2464  0.5527
12245TIP3    H136671   3.255   7.029   5.710 -0.7918  2.0324  0.6035
12245TIP3    H236672   3.178   6.969   5.594  1.4428 -1.6929  0.9320
12246TIP3   OH236673   1.005   2.532   0.754 -0.0757  0.7618  0.5736
12246TIP3    H136674   1.016   2.464   0.821 -1.4654 -0.8949 -0.8635
12246TIP3    H236675   1.082   2.523   0.698  0.0005  0.7361  0.6806
12247TIP3   OH236676   0.703   2.890   2.437 -0.0289  0.1161 -0.5678
12247TIP3    H136677   0.641   2.950   2.396  0.0106 -0.2081 -1.1137
12247TIP3    H236678   0.734   2.834   2.365  0.2527 -0.2794 -0.1476
12248TIP3   OH236679   2.416   5.800   5.917 -0.0929 -0.0125 -0.1154
12248TIP3    H136680   2.402   5.807   6.012  0.4895 -0.4796  0.0047
12248TIP3    H236681   2.477   5.728   5.907 -0.5559 -0.3055 -0.8895
12249TIP3   OH236682   2.560   5.925   6.791 -0.2930  0.5046  1.2157
12249TIP3    H136683   2.622   5.994   6.770 -0.4344  0.2254 -0.1176
12249TIP3    H236684   2.613   5.845   6.795 -0.3219  0.5013  1.6187
12250TIP3   OH236685   2.848   6.279   5.688 -0.2067  0.2630  0.2450
12250TIP3    H136686   2.803   6.328   5.756 -0.6524 -1.0641  0.9345
12250TIP3    H236687   2.793   6.202   5.674  1.3136 -0.8776  0.3924
12251TIP3   OH236688   4.764   6.925   6.169 -0.2743  0.7524 -0.2771
12251TIP3    H136689   4.810   6.887   6.244  0.6588  2.2985 -0.0322
12251TIP3    H236690   4.791   6.871   6.095 -0.2993 -0.0892  0.3209
12252TIP3   OH236691   3.422   0.103   6.465 -0.0773 -0.5321  0.0086
12252TIP3    H136692   3.402   0.017   6.429  0.4144  0.0741 -1.7550
12252TIP3    H236693   3.339   0.150   6.463  0.1359 -0.1855 -1.2526
12253TIP3   OH236694   5.819   0.612   5.906 -0.1523 -0.2697  0.3297
12253TIP3    H136695   5.885   0.544   5.889 -0.2716 -0.4570  0.6194
12253TIP3    H236696   5.764   0.611   5.827  1.3628  1.2544 -0.7910
12254TIP3   OH236697   3.325   0.341   5.222  0.3613 -0.6024 -0.0949
12254TIP3    H136698   3.311   0.420   5.275  0.3607 -0.9512  0.4378
12254TIP3    H236699   3.251   0.284   5.246 -0.2269 -0.3429 -1.2693
12255TIP3   OH236700   7.515   1.889   0.821  0.0826 -0.0059  0.2148
12255TIP3    H136701   7.563   1.955   0.772  2.6595 -0.8637  1.4752
12255TIP3    H236702   7.470   1.937   0.890  0.0365  0.7066 -0.3153
12256TIP3   OH236703   2.908   3.980   6.295 -0.1715  0.6556  0.4001
12256TIP3    H136704   2.993   3.996   6.335 -0.6709 -0.4246  1.9312
12256TIP3    H236705   2.920   4.005   6.203  1.4843  1.5079  0.8317
12257TIP3   OH236706   3.736   6.293   6.595  0.0132 -0.2919  0.4776
12257TIP3    H136707   3.794   6.219   6.611  0.2887 -0.2563 -0.3404
12257TIP3    H236708   3.794   6.367   6.582 -0.1993 -0.2808 -0.4796
12258TIP3   OH236709   3.450   4.159   6.798 -0.2387 -0.2322 -0.6093
12258TIP3    H136710   3.383   4.225   6.817  1.3345  0.8223  1.3743
12258TIP3    H236711   3.458   4.109   6.879  2.0291  0.2568 -0.5114
12259TIP3   OH236712   0.605   6.469   5.206  0.4651  0.0645 -0.1440
12259TIP3    H136713   0.673   6.536   5.205  1.1184 -0.5608  1.4464
12259TIP3    H236714   0.641   6.396   5.157  1.0974 -0.3866  0.9593
12260TIP3   OH236715   1.002   2.077   0.406 -0.4291 -0.4015  0.2663
12260TIP3    H136716   0.908   2.092   0.404  0.0059  2.3695 -1.3415
12260TIP3    H236717   1.040   2.164   0.424  1.7823 -1.6308  1.8024
12261TIP3   OH236718   1.015   2.320   0.505  0.2166 -0.5337  0.0550
12261TIP3    H136719   1.044   2.279   0.587  0.8515 -0.3676 -0.0873
12261TIP3    H236720   0.937   2.370   0.529 -0.3057 -1.4563  0.3243
12262TIP3   OH236721   0.057   6.876   4.699 -0.2817 -0.5621 -0.1806
12262TIP3    H136722   0.017   6.843   4.618  0.3948 -0.9016 -0.3844
12262TIP3    H236723  -0.000   6.843   4.768 -1.1614  0.1704 -0.5439
12263TIP3   OH236724   0.632   4.476   6.587  0.0553 -0.5160  0.2599
12263TIP3    H136725   0.719   4.438   6.601 -0.1419  0.0541  3.4550
12263TIP3    H236726   0.648   4.571   6.581 -0.3704 -0.3653  1.3684
12264TIP3   OH236727   1.935   5.730   2.049  0.3467 -0.1554 -0.0978
12264TIP3    H136728   1.994   5.791   2.005  1.3629 -1.2066 -0.2298
12264TIP3    H236729   1.969   5.643   2.026 -0.2039 -0.7452  1.2586
12265TIP3   OH236730   3.327   4.403   5.949 -0.1906  0.3066  0.5229
12265TIP3    H136731   3.267   4.383   5.877 -0.9639  2.1593  0.6156
12265TIP3    H236732   3.334   4.322   5.999 -2.2583 -0.0514  0.2452
12266TIP3   OH236733   3.233   6.842   5.890  0.0660  0.2629  0.1253
12266TIP3    H136734   3.198   6.783   5.956  2.2747 -1.0476  0.1518
12266TIP3    H236735   3.170   6.836   5.817 -1.6316  0.6688  1.5193
12267TIP3   OH236736   2.923   6.606   6.684 -0.3837 -0.1113  0.2318
12267TIP3    H136737   2.997   6.577   6.737 -1.2287  1.0408  2.1222
12267TIP3    H236738   2.910   6.536   6.620  1.4173 -0.9909  0.7854
12268TIP3   OH236739   1.652   5.972   6.922  0.7741 -0.5382 -0.7126
12268TIP3    H136740   1.720   5.980   6.855  0.7687  0.0420 -0.6575
12268TIP3    H236741   1.575   6.011   6.882  0.6793 -0.5009 -0.4948
12269TIP3   OH236742   0.427   3.872   0.830 -0.3144  0.1129  0.3879
12269TIP3    H136743   0.373   3.823   0.768 -0.2522  0.2101  0.2555
12269TIP3    H236744   0.423   3.821   0.911 -1.8063  0.9038  0.8192
12270TIP3   OH236745   0.570   3.075   1.525  0.1206  0.1626  0.1844
12270TIP3    H136746   0.542   3.165   1.541 -1.2006 -0.2857  0.4371
12270TIP3    H236747   0.625   3.081   1.446 -0.2830  1.1316 -0.0341
12271TIP3   OH236748   5.684   5.731   5.610  0.0426 -0.0285  0.3311
12271TIP3    H136749   5.684   5.692   5.697 -1.9605 -0.2028  0.2685
12271TIP3    H236750   5.592   5.745   5.589  0.5790  1.9727 -0.8901
12272TIP3   OH236751   4.179   5.871   6.337 -0.1091 -0.5629 -0.4293
12272TIP3    H136752   4.228   5.892   6.258 -2.1423  1.1883 -1.2554
12272TIP3    H236753   4.220   5.923   6.406  0.4852 -0.6860 -0.6872
12273TIP3   OH236754   4.226   5.418   5.268  0.4317 -0.1113  0.1811
12273TIP3    H136755   4.217   5.494   5.325 -0.7359 -1.2089  1.4811
12273TIP3    H236756   4.175   5.441   5.190  0.0796  0.4201  0.5615
12274TIP3   OH236757   6.143   6.898   6.069 -0.0536 -0.2618 -0.5291
12274TIP3    H136758   6.187   6.817   6.094  1.3633  0.5450 -0.3632
12274TIP3    H236759   6.127   6.889   5.975 -0.0929 -0.8252 -0.4684
12275TIP3   OH236760   3.461   3.071   0.158  0.7399 -0.2631 -0.1450
12275TIP3    H136761   3.394   3.129   0.120  0.4395 -0.5746 -0.0932
12275TIP3    H236762   3.542   3.099   0.116  0.8323  1.1134  0.8891
12276TIP3   OH236763   4.138   7.649   3.746 -0.0716  0.4762  0.6575
12276TIP3    H136764   4.131   7.574   3.686  0.1772  0.6250  0.4414
12276TIP3    H236765   4.056   7.696   3.735 -0.6841 -0.3713  1.6043
12277TIP3   OH236766   6.960   6.883   4.585 -0.5899 -0.7109  0.3383
12277TIP3    H136767   6.995   6.795   4.600 -2.2957 -1.4055  0.3587
12277TIP3    H236768   6.922   6.909   4.669 -0.8083 -0.2883  0.1118
12278TIP3   OH236769   4.891   7.085   6.585 -0.0154 -0.0094  0.3760
12278TIP3    H136770   4.894   7.140   6.507 -1.8010  0.2963  0.4971
12278TIP3    H236771   4.816   7.118   6.635 -3.2362 -4.4778 -1.0943
12279TIP3   OH236772   1.916   6.858   5.289 -0.3107 -0.4986  0.3467
12279TIP3    H136773   1.898   6.767   5.265  1.0583 -0.7725  0.3394
12279TIP3    H236774   2.007   6.858   5.318  0.1094  1.1268 -0.9160
12280TIP3   OH236775   2.170   2.482   0.385  0.0960  0.0088 -0.4785
12280TIP3    H136776   2.148   2.546   0.452 -0.2060  0.6784 -1.2082
12280TIP3    H236777   2.177   2.399   0.432  0.3371  0.5489  0.4488
12281TIP3   OH236778   4.214   6.527   4.157 -0.3027 -0.0059  0.1118
12281TIP3    H136779   4.189   6.439   4.130  0.6633 -0.7165  1.4325
12281TIP3    H236780   4.259   6.514   4.241 -1.3159  1.8826  0.9736
12282TIP3   OH236781   5.904   4.024   4.308 -0.2955 -0.4905 -0.3808
12282TIP3    H136782   5.933   4.075   4.232  1.7735 -0.0849  0.6421
12282TIP3    H236783   5.873   4.090   4.370  0.3701 -0.6357  0.1062
12283TIP3   OH236784   1.848   3.861   0.856  0.0053  0.5091  0.7511
12283TIP3    H136785   1.798   3.929   0.811  0.1959  0.4048  0.3754
12283TIP3    H236786   1.854   3.891   0.946  1.6681  1.9043  0.1974
12284TIP3   OH236787   4.661   4.654   5.054  0.1346 -0.8280  0.4215
12284TIP3    H136788   4.580   4.627   5.011  0.7277 -3.1252  0.6753
12284TIP3    H236789   4.642   4.648   5.148  1.0437 -3.0489  0.5209
12285TIP3   OH236790   1.297   2.701   1.543 -0.3973 -0.1063 -0.1900
12285TIP3    H136791   1.215   2.654   1.557 -0.5713  0.0266 -0.7259
12285TIP3    H236792   1.272   2.780   1.496 -0.1649  0.7900  1.1790
12286TIP3   OH236793   5.589   5.950   4.892  0.1852  0.1777  0.6738
12286TIP3    H136794   5.557   5.928   4.980 -1.1235  0.5274  0.2908
12286TIP3    H236795   5.549   6.034   4.873  0.5588  0.1516 -0.2220
12287TIP3   OH236796   0.346   1.514   0.364  0.0048 -0.2663 -0.3449
12287TIP3    H136797   0.439   1.506   0.343 -0.4784 -0.9107 -2.3313
12287TIP3    H236798   0.325   1.434   0.413  0.9975  0.9518  2.1446
12288TIP3   OH236799   5.126   7.501   4.231  0.3903 -0.1520  0.0006
12288TIP3    H136800   5.197   7.443   4.260 -0.1466 -1.1088 -0.5607
12288TIP3    H236801   5.047   7.464   4.272 -0.0609 -0.2436 -0.9295
12289TIP3   OH236802   4.981   4.839   5.977  0.0516 -0.1965 -0.3530
12289TIP3    H136803   5.056   4.785   6.001  0.7637  0.2497 -1.5387
12289TIP3    H236804   5.010   4.929   5.992 -1.4490 -0.1456  2.5126
12290TIP3   OH236805   4.218   5.820   5.795 -0.2339 -0.5406  0.0278
12290TIP3    H136806   4.165   5.803   5.717 -1.0538  0.2870  0.4114
12290TIP3    H236807   4.258   5.735   5.815 -0.6327 -0.9373 -0.8293
12291TIP3   OH236808   3.855   5.717   6.258  0.1622  0.0534  0.0644
12291TIP3    H136809   3.872   5.808   6.232 -0.9493  0.1224 -0.4368
12291TIP3    H236810   3.902   5.664   6.193 -0.6730  0.2532 -0.7096
12292TIP3   OH236811   3.258   7.235   5.891 -0.3715 -0.0455  0.5376
12292TIP3    H136812   3.278   7.150   5.929  0.8303 -0.6255 -1.3053
12292TIP3    H236813   3.196   7.275   5.952 -2.4344 -2.9817  0.4733
12293TIP3   OH236814   3.620   5.649   3.962  0.2848  0.1898  0.5606
12293TIP3    H136815   3.526   5.633   3.972  0.1575  0.7392  0.2549
12293TIP3    H236816   3.636   5.637   3.868  0.4629  0.3984  0.5650
12294TIP3   OH236817   5.714   5.319   5.859 -0.4810 -0.1721 -0.5648
12294TIP3    H136818   5.707   5.257   5.786  1.3921 -0.3460 -0.6132
12294TIP3    H236819   5.759   5.395   5.822 -0.1874  0.0420  0.2207
12295TIP3   OH236820   3.817   5.733   5.800  1.0318  0.1132  0.1656
12295TIP3    H136821   3.829   5.648   5.843 -3.7789 -0.9065 -0.2220
12295TIP3    H236822   3.783   5.790   5.869 -0.5843  0.2604 -0.7194
12296TIP3   OH236823   7.763   0.073   5.182  0.3883 -0.3797 -0.1033
12296TIP3    H136824   7.817   0.003   5.146  0.8982  0.6162 -1.3029
12296TIP3    H236825   7.825   0.143   5.203 -0.0485 -0.5002  1.6259
12297TIP3   OH236826   1.941   6.593   5.212 -0.4713  0.1442  0.1824
12297TIP3    H136827   1.976   6.514   5.253  0.8663  0.9314  0.5694
12297TIP3    H236828   1.865   6.562   5.161 -0.5726 -1.2231  1.1442
12298TIP3   OH236829   8.407   1.498   6.640  0.1066 -0.1827 -0.0146
12298TIP3    H136830   8.431   1.524   6.729  0.0330  0.9455 -0.3116
12298TIP3    H236831   8.466   1.548   6.584  0.6984 -1.5001 -0.5809
12299TIP3   OH236832   5.023   6.583   6.371 -0.2268  0.1264  0.9445
12299TIP3    H136833   5.003   6.492   6.394 -0.5763 -0.3609 -1.1778
12299TIP3    H236834   5.097   6.605   6.427  1.9929 -2.5721 -0.7734
12300TIP3   OH236835   4.943   6.228   5.257 -0.4949 -0.3864  0.5460
12300TIP3    H136836   4.889   6.152   5.272 -0.6972 -0.3553  0.0006
12300TIP3    H236837   4.923   6.287   5.329 -1.8542  0.0016 -0.1283
12301TIP3   OH236838   2.765   4.804   1.394  0.0995  0.6388 -0.3613
12301TIP3    H136839   2.728   4.808   1.483 -2.3175 -1.7548 -1.1595
12301TIP3    H236840   2.829   4.733   1.398 -0.0315  0.5116 -0.5374
12302TIP3   OH236841   6.136   6.043   5.091  0.1681 -0.1108  0.0081
12302TIP3    H136842   6.137   6.117   5.030 -2.6911 -1.0331 -1.2398
12302TIP3    H236843   6.187   5.975   5.047 -0.3108 -0.1288 -0.5273
12303TIP3   OH236844   3.528   6.606   5.225  0.5848  0.4899 -0.0549
12303TIP3    H136845   3.533   6.560   5.308 -0.5579  0.8380  0.2238
12303TIP3    H236846   3.592   6.563   5.169 -0.7771 -1.7472  0.0638
12304TIP3   OH236847   3.040   5.950   5.279 -0.1372 -0.0630 -0.0810
12304TIP3    H136848   3.063   5.859   5.260  0.5581 -0.1319  1.0536
12304TIP3    H236849   3.065   5.962   5.371 -1.9278  0.7297  0.3249
12305TIP3   OH236850   4.407   6.928   5.218 -0.4914  0.3101  0.0630
12305TIP3    H136851   4.331   6.874   5.198 -0.0673 -0.2413 -0.0693
12305TIP3    H236852   4.388   6.966   5.304 -0.7655 -0.0918  0.1767
12306TIP3   OH236853   3.652   5.813   5.605  0.1124  0.1785  0.1229
12306TIP3    H136854   3.707   5.757   5.659  0.9305  1.2312  0.3858
12306TIP3    H236855   3.704   5.892   5.591 -0.7451  0.5809 -0.8424
12307TIP3   OH236856   5.956   7.712   6.020 -0.2005 -0.1946  0.7714
12307TIP3    H136857   5.892   7.669   6.077 -1.3048  0.5511  0.1086
12307TIP3    H236858   5.905   7.777   5.972  1.1248  0.6466  0.4909
12308TIP3   OH236859   0.201   1.186   1.230  0.4183 -0.4686 -0.1408
12308TIP3    H136860   0.106   1.197   1.234  0.0493 -3.3002 -0.1030
12308TIP3    H236861   0.226   1.159   1.319  1.2078 -0.0948 -0.2429
12309TIP3   OH236862   4.377   7.025   4.254  0.0333 -0.3294 -0.2975
12309TIP3    H136863   4.312   6.967   4.216 -0.2240  0.1738 -0.6360
12309TIP3    H236864   4.333   7.067   4.328  0.2155 -0.5650 -0.0574
12310TIP3   OH236865   4.897   5.271   6.898  0.1262  0.5414  0.2063
12310TIP3    H136866   4.906   5.313   6.983  1.0808  2.5392 -0.8587
12310TIP3    H236867   4.899   5.177   6.918  1.7842  0.9592  2.2480
12311TIP3   OH236868   5.110   6.575   6.099 -0.4215 -0.1344 -0.5082
12311TIP3    H136869   5.085   6.660   6.064 -0.9426  0.9307  2.2998
12311TIP3    H236870   5.090   6.581   6.193  0.5497 -2.9651 -0.0723
12312TIP3   OH236871   3.636   5.702   4.446  0.3471  1.0794 -0.1785
12312TIP3    H136872   3.674   5.621   4.410  0.0772  0.9518 -0.1786
12312TIP3    H236873   3.633   5.762   4.371  1.9317  1.5947  0.1639
12313TIP3   OH236874   4.997   7.888   0.826  0.1230 -0.2795  0.0555
12313TIP3    H136875   4.943   7.914   0.752 -0.2466 -0.2042  0.3501
12313TIP3    H236876   5.087   7.901   0.796 -0.0463  1.3560  0.1776
12314TIP3   OH236877   3.150   5.748   5.686  0.1547 -0.6789  0.1329
12314TIP3    H136878   3.227   5.731   5.632 -1.6096 -1.4396 -2.2221
12314TIP3    H236879   3.127   5.663   5.723  0.3672 -0.4806  0.7179
12315TIP3   OH236880   0.262   2.972   0.019  0.4655 -0.3734  0.5490
12315TIP3    H136881   0.183   3.012  -0.018 -0.4020 -1.7566  0.8880
12315TIP3    H236882   0.315   3.047   0.048 -0.3941  0.5875 -0.3205
12316TIP3   OH236883   0.762   0.117   0.519 -0.1538  0.4869 -0.1979
12316TIP3    H136884   0.853   0.088   0.524 -0.2131  0.1707 -0.9459
12316TIP3    H236885   0.711   0.037   0.516 -0.3760  0.6677 -1.2442
12317TIP3   OH236886   5.189   7.344   5.192 -0.1763  0.2655 -0.1786
12317TIP3    H136887   5.096   7.325   5.197 -0.1967  0.3706 -0.1515
12317TIP3    H236888   5.194   7.438   5.176 -0.1081 -0.1145 -2.4743
12318TIP3   OH236889   5.217   5.982   5.005 -0.5289  0.1255  0.0389
12318TIP3    H136890   5.274   5.906   5.014 -0.3552  0.1943 -0.4705
12318TIP3    H236891   5.142   5.951   4.953 -0.3117  0.3716 -0.4331
12319TIP3   OH236892   4.617   6.082   6.780 -0.0496 -0.6828 -0.5392
12319TIP3    H136893   4.664   6.017   6.729  0.0875 -0.5309 -0.6077
12319TIP3    H236894   4.591   6.036   6.860  0.4930 -0.6836 -0.3570
12320TIP3   OH236895   3.047   6.242   4.042 -0.0611 -0.1893 -0.4474
12320TIP3    H136896   3.121   6.298   4.068  0.4368 -0.7241 -0.6869
12320TIP3    H236897   2.969   6.295   4.059  0.3478  0.1368  0.4430
12321TIP3   OH236898   3.827   6.486   5.862  0.7882  0.1664 -0.0928
12321TIP3    H136899   3.847   6.579   5.867 -3.0597  1.1084 -0.6891
12321TIP3    H236900   3.732   6.481   5.873  0.6149 -3.4776 -2.4365
12322TIP3   OH236901   0.261   5.884   4.138 -0.1290 -0.0998  1.0686
12322TIP3    H136902   0.343   5.835   4.143  1.0477  1.6379 -0.5659
12322TIP3    H236903   0.244   5.893   4.044 -0.8052  1.8243  1.3594
12323TIP3   OH236904   2.004   4.186   0.260 -0.1666 -0.2867 -0.0824
12323TIP3    H136905   2.071   4.158   0.323  0.2118  0.1348 -0.2928
12323TIP3    H236906   1.972   4.104   0.222  0.3813 -0.4819 -0.1276
12324TIP3   OH236907   4.456   4.973   6.819  0.2666  0.0497 -0.5910
12324TIP3    H136908   4.530   5.033   6.810  0.3815 -0.0900 -0.5718
12324TIP3    H236909   4.381   5.022   6.785  0.2067  0.5100  0.1949
12325TIP3   OH236910   3.765   6.917   5.049 -0.2784 -0.3513  0.3972
12325TIP3    H136911   3.694   6.875   5.001  0.5111 -0.3575 -0.8099
12325TIP3    H236912   3.757   7.010   5.028 -0.2596 -0.2799  0.7058
12326TIP3   OH236913   4.552   4.719   5.732  0.2695  0.0818 -0.0962
12326TIP3    H136914   4.637   4.678   5.748  0.3895  0.6695  0.8181
12326TIP3    H236915   4.489   4.659   5.772  0.3640  0.3004  0.3819
12327TIP3   OH236916   4.897   6.606   3.222 -0.0950 -0.1979 -0.6334
12327TIP3    H136917   4.917   6.685   3.273 -0.8432  0.2174 -0.9764
12327TIP3    H236918   4.852   6.549   3.284 -0.8082  0.2176 -0.7659
12328TIP3   OH236919   5.279   7.230   6.367 -0.4186 -0.2143 -0.3093
12328TIP3    H136920   5.278   7.324   6.348  1.2840 -0.4557 -1.7217
12328TIP3    H236921   5.312   7.189   6.287 -0.3500 -1.9479  0.5666
12329TIP3   OH236922   4.105   2.182   0.062  0.0681  0.0872  0.1400
12329TIP3    H136923   4.015   2.208   0.082 -0.0646 -0.6267  0.4798
12329TIP3    H236924   4.128   2.234  -0.015 -1.5044 -1.5535 -1.4938
12330TIP3   OH236925   4.105   4.796   5.137  0.5261 -0.3081  0.2023
12330TIP3    H136926   4.018   4.774   5.171  0.8786 -1.3973  0.4265
12330TIP3    H236927   4.117   4.737   5.063  0.3359  1.1014 -0.9884
12331TIP3   OH236928   4.806   3.789   4.625  0.3770  0.1606 -0.4668
12331TIP3    H136929   4.878   3.815   4.569  0.0860  1.1157 -0.3977
12331TIP3    H236930   4.826   3.827   4.710  0.4328 -0.6413 -0.1150
12332TIP3   OH236931   2.138   2.414   0.126 -0.2198  0.0960  0.0919
12332TIP3    H136932   2.115   2.445   0.214  0.8501 -1.8136  1.0737
12332TIP3    H236933   2.082   2.337   0.112  0.5669 -0.4082 -0.3456
12333TIP3   OH236934   3.532   5.955   5.017  0.5206  0.1519 -0.2665
12333TIP3    H136935   3.584   5.922   5.091 -0.9798  0.9737  1.1890
12333TIP3    H236936   3.547   5.891   4.947  1.6139 -0.8909  0.8812
12334TIP3   OH236937   2.763   6.059   6.547  0.3388 -0.0643  0.0767
12334TIP3    H136938   2.746   6.106   6.628  0.9754 -0.1912  0.2893
12334TIP3    H236939   2.857   6.043   6.548  0.4544  0.4680 -0.9759
12335TIP3   OH236940   6.233   4.741   4.963 -0.2760 -0.7327 -0.2179
12335TIP3    H136941   6.167   4.777   4.904  0.5792  1.4686  0.1009
12335TIP3    H236942   6.186   4.679   5.018 -2.6011  2.2639  1.3593
12336TIP3   OH236943   4.138   6.094   6.557 -0.3046 -0.5370 -0.1813
12336TIP3    H136944   4.070   6.079   6.623 -0.3798 -1.0938 -0.3901
12336TIP3    H236945   4.209   6.137   6.606 -1.0500  0.6366 -0.0895
12337TIP3   OH236946   3.863   4.384   4.860  0.1994  0.0022  0.1529
12337TIP3    H136947   3.923   4.335   4.916 -1.8393 -1.7671  0.8883
12337TIP3    H236948   3.908   4.391   4.776  2.2813  0.5764  1.2913
12338TIP3   OH236949   4.947   6.038   6.428 -0.0901 -0.0488 -0.2984
12338TIP3    H136950   4.985   5.954   6.402  0.3331  0.1241 -0.2475
12338TIP3    H236951   4.937   6.031   6.523 -0.6966 -0.3001 -0.3802
12339TIP3   OH236952   5.178   5.749   5.761  0.1715 -0.2580 -0.0356
12339TIP3    H136953   5.173   5.654   5.752 -0.7085 -0.6135  3.5355
12339TIP3    H236954   5.245   5.775   5.698  1.1135 -3.3591 -0.4179
12340TIP3   OH236955   4.259   5.947   6.057 -0.4079  0.0617 -0.0703
12340TIP3    H136956   4.347   5.982   6.048 -1.3214  1.9596 -2.2360
12340TIP3    H236957   4.251   5.884   5.985 -0.8424 -0.0187  0.0467
12341TIP3   OH236958   2.724   7.883   5.715 -0.2843  0.0534  0.3391
12341TIP3    H136959   2.770   7.965   5.734 -1.7173  2.0302 -4.0189
12341TIP3    H236960   2.640   7.891   5.759  0.0624  0.3674  0.9447
12342TIP3   OH236961   4.542   4.255   6.299 -0.0723 -0.3927 -0.3311
12342TIP3    H136962   4.534   4.202   6.219 -1.8547 -0.4457 -0.1395
12342TIP3    H236963   4.507   4.200   6.368  1.0971 -0.1881  0.4314
12343TIP3   OH236964   4.580   6.824   5.531 -0.7270  0.0363 -0.2855
12343TIP3    H136965   4.596   6.790   5.443 -0.2256  2.0916 -1.0394
12343TIP3    H236966   4.646   6.782   5.585 -0.1182 -0.1762 -1.1764
12344TIP3   OH236967   5.880   6.202   6.734  0.1630  0.4138  0.4501
12344TIP3    H136968   5.802   6.252   6.760 -0.5800 -0.6228  0.2177
12344TIP3    H236969   5.879   6.125   6.790 -0.0519 -0.5712 -0.9016
12345TIP3   OH236970   0.308   3.081   0.557  0.0880 -0.3063 -0.4707
12345TIP3    H136971   0.384   3.025   0.569  0.0336 -0.2951 -0.0766
12345TIP3    H236972   0.261   3.042   0.483  1.0522  0.3258 -1.4401
12346TIP3   OH236973   5.568   4.889   4.885  0.2884 -0.3762  0.0458
12346TIP3    H136974   5.563   4.888   4.790 -1.2789 -1.2206  0.1256
12346TIP3    H236975   5.565   4.797   4.911 -1.2171 -0.0784  0.9875
12347TIP3   OH236976   3.581   6.248   5.588 -0.4295  0.1617  0.2365
12347TIP3    H136977   3.665   6.278   5.621 -0.4876  1.5738 -0.8141
12347TIP3    H236978   3.519   6.270   5.657  0.0600 -0.9256  1.0301
12348TIP3   OH236979   4.140   6.955   5.793  0.1053 -0.1273  0.3384
12348TIP3    H136980   4.233   6.934   5.796 -0.1916 -1.3519  2.2383
12348TIP3    H236981   4.128   7.019   5.863 -0.1032  1.7138 -1.3610
12349TIP3   OH236982   6.337   6.186   6.146 -0.1582 -0.0405  0.0736
12349TIP3    H136983   6.291   6.227   6.219  1.2260  0.2763  0.7713
12349TIP3    H236984   6.287   6.213   6.069  0.5037  2.6515  0.5566
12350TIP3   OH236985   5.159   6.565   4.724 -0.2412  0.1434  0.0320
12350TIP3    H136986   5.226   6.613   4.676  0.1257 -1.5524 -1.2263
12350TIP3    H236987   5.087   6.555   4.661 -1.1502  0.8578  0.9581
12351TIP3   OH236988   3.468   6.870   3.606 -0.3853  0.1579  0.4436
12351TIP3    H136989   3.520   6.884   3.526 -0.8120  0.4784  0.2193
12351TIP3    H236990   3.393   6.817   3.576 -2.2470  2.9439 -0.0250
12352TIP3   OH236991   6.658   7.846   6.756  0.4372  0.0703  0.0138
12352TIP3    H136992   6.730   7.807   6.806  0.9368 -0.1198 -0.8407
12352TIP3    H236993   6.656   7.796   6.674 -0.0389  0.7214 -0.3736
12353TIP3   OH236994   7.137   5.732   5.440 -0.3430  0.0432  0.3294
12353TIP3    H136995   7.082   5.724   5.362  0.5502 -0.4217 -0.2564
12353TIP3    H236996   7.138   5.644   5.478 -0.1222  0.0888  0.4284
12354TIP3   OH236997   7.630   0.113   4.224  0.2041  0.0593  0.1560
12354TIP3    H136998   7.554   0.125   4.167  0.6353  0.9075 -0.2498
12354TIP3    H236999   7.673   0.035   4.189  1.3837  1.5137 -1.7467
12355TIP3   OH237000   2.450   2.214   2.373  0.0982 -0.1372 -0.5821
12355TIP3    H137001   2.477   2.189   2.462  1.0793  2.1590 -0.1991
12355TIP3    H237002   2.483   2.143   2.318 -0.8860 -1.8039  0.9113
12356TIP3   OH237003   4.043   5.296   5.680 -0.3081 -0.4419  0.5123
12356TIP3    H137004   4.138   5.282   5.676 -0.0493  0.7181  2.1201
12356TIP3    H237005   4.006   5.226   5.626  1.6355  1.2403 -3.1770
12357TIP3   OH237006   6.914   5.940   5.980  0.1556  0.0034 -0.3980
12357TIP3    H137007   6.946   5.978   6.062 -2.0501  0.9462  0.0577
12357TIP3    H237008   6.861   5.866   6.007 -1.1449  0.7247 -0.9228
12358TIP3   OH237009   5.522   6.432   5.291 -0.2066 -0.3210 -0.1164
12358TIP3    H137010   5.498   6.346   5.255  2.0499 -1.5604  1.2377
12358TIP3    H237011   5.601   6.457   5.243 -1.1492  1.2827 -0.8696
12359TIP3   OH237012   3.606   6.721   3.366  0.7206  0.3780 -0.8304
12359TIP3    H137013   3.588   6.638   3.411  0.8443  0.9601  0.3090
12359TIP3    H237014   3.557   6.714   3.284 -0.4584 -0.2269 -0.0962
12360TIP3   OH237015   6.207   0.090   4.301  0.1266  0.7319 -0.3073
12360TIP3    H137016   6.233   0.177   4.271  2.8073  0.1478  0.1608
12360TIP3    H237017   6.252   0.080   4.385  0.3154 -1.3157 -0.6422
12361TIP3   OH237018   4.503   6.489   5.289  0.0275  0.3869  0.4286
12361TIP3    H137019   4.576   6.464   5.232  0.3451 -0.8400  1.3429
12361TIP3    H237020   4.464   6.565   5.246  1.1977  0.4188 -0.6223
12362TIP3   OH237021   8.264   4.842   1.019  0.3295  0.1191  0.1196
12362TIP3    H137022   8.329   4.865   0.952 -0.5987  2.8697  0.0720
12362TIP3    H237023   8.312   4.788   1.081  1.4251 -1.8113 -2.3289
12363TIP3   OH237024   4.838   6.792   6.412  0.2678 -0.0595 -0.1816
12363TIP3    H137025   4.877   6.857   6.470  0.1282 -0.0007 -0.1538
12363TIP3    H237026   4.903   6.722   6.408  0.0714 -0.2791  0.4281
12364TIP3   OH237027   3.359   5.356   6.029  0.2883  0.1557  0.0646
12364TIP3    H137028   3.301   5.428   6.054 -2.4855 -3.2238  4.1995
12364TIP3    H237029   3.439   5.371   6.079  1.4662  2.6792 -2.5235
12365TIP3   OH237030   3.514   6.635   6.125 -0.0491  0.1753 -0.0755
12365TIP3    H137031   3.552   6.570   6.066  0.9264  0.3589  0.3516
12365TIP3    H237032   3.434   6.594   6.158 -0.4499 -0.0447 -1.3030
12366TIP3   OH237033   3.965   6.546   5.147  0.0751  0.2980 -0.4280
12366TIP3    H137034   3.996   6.486   5.215  0.1601  1.2196  0.3503
12366TIP3    H237035   3.872   6.525   5.138 -0.2973  1.2063  1.0738
12367TIP3   OH237036   3.963   6.539   4.669 -0.2004  0.1740 -0.2616
12367TIP3    H137037   3.967   6.598   4.745  2.9197  0.9441 -0.9337
12367TIP3    H237038   3.905   6.583   4.607  1.8225  2.4343 -0.6087
12368TIP3   OH237039   1.500   4.660   0.047 -0.5945 -0.5248  0.3147
12368TIP3    H137040   1.535   4.594  -0.014 -0.8814 -0.2676 -0.1254
12368TIP3    H237041   1.499   4.615   0.131  0.8973 -0.5074  0.3563
12369TIP3   OH237042   3.638   1.306   1.063 -0.5212  0.0329 -0.0923
12369TIP3    H137043   3.572   1.239   1.077  1.3761 -1.9462 -0.3198
12369TIP3    H237044   3.649   1.310   0.968  1.4904 -1.4880  0.0570
12370TIP3   OH237045   3.853   5.501   4.601 -0.1295 -0.3246  0.1236
12370TIP3    H137046   3.804   5.495   4.519 -0.4661 -0.1296  0.3102
12370TIP3    H237047   3.915   5.428   4.597  1.5601  1.1562 -1.4093
12371TIP3   OH237048   3.490   7.652   6.042 -0.3444 -0.0071  0.0434
12371TIP3    H137049   3.523   7.625   5.957 -2.7786 -0.7596 -0.7119
12371TIP3    H237050   3.456   7.741   6.028 -1.3787 -0.3998  0.0585
12372TIP3   OH237051   3.577   6.223   6.370  0.7240 -0.5089  0.1429
12372TIP3    H137052   3.651   6.235   6.430 -0.2420  0.1665  1.2182
12372TIP3    H237053   3.563   6.309   6.331  1.3476 -0.9461 -1.0753
12373TIP3   OH237054   3.153   5.657   4.374  0.3053  0.6390  0.3151
12373TIP3    H137055   3.231   5.705   4.349  0.0425  1.4534  1.0184
12373TIP3    H237056   3.094   5.724   4.410 -0.5053 -0.0369  0.2660
12374TIP3   OH237057   7.242   0.488   1.118  0.0130 -0.6249  0.1166
12374TIP3    H137058   7.301   0.440   1.176  0.2963 -1.7983 -1.1374
12374TIP3    H237059   7.198   0.550   1.176  1.5745 -0.5698  1.2850
12375TIP3   OH237060   5.305   3.872   6.132  0.1843  0.1991 -0.9815
12375TIP3    H137061   5.279   3.799   6.188  1.0067  0.3828 -0.3462
12375TIP3    H237062   5.400   3.873   6.136  0.2581  0.1316 -2.5073
12376TIP3   OH237063   3.944   7.034   4.154 -0.1535  0.2834 -0.0530
12376TIP3    H137064   3.951   7.054   4.061 -2.8306  0.6210 -0.2272
12376TIP3    H237065   4.010   6.966   4.169  0.1037  0.0181 -2.2414
12377TIP3   OH237066   2.605   1.774   1.100 -0.1111 -0.9368  0.1078
12377TIP3    H137067   2.563   1.818   1.173 -0.2716 -2.6792  1.1044
12377TIP3    H237068   2.554   1.694   1.088  0.0182 -0.7600 -1.8071
12378TIP3   OH237069   4.381   6.028   6.947  0.4802 -0.0585  0.3651
12378TIP3    H137070   4.375   5.945   6.900  1.6377  1.1154 -1.9168
12378TIP3    H237071   4.292   6.063   6.947  0.2258 -0.7059  0.2626
12379TIP3   OH237072   6.075   5.567   5.081  0.5525 -0.1127  0.1828
12379TIP3    H137073   6.136   5.498   5.053  0.4401 -0.0640 -0.1881
12379TIP3    H237074   5.993   5.545   5.037  0.1867 -0.4019  0.9929
12380TIP3   OH237075   4.922   4.781   6.482 -0.0905  0.1802 -0.0139
12380TIP3    H137076   4.987   4.850   6.476 -1.4716  1.5405  0.2255
12380TIP3    H237077   4.838   4.827   6.476 -1.0211 -1.5786 -0.8335
12381TIP3   OH237078   2.204   2.013   0.233 -0.2128 -0.4827  0.6106
12381TIP3    H137079   2.247   2.099   0.231  0.2146 -0.7018  0.4350
12381TIP3    H237080   2.111   2.034   0.239 -0.0887 -0.0041  0.9506
12382TIP3   OH237081   3.751   6.122   3.731 -0.3889 -0.3074 -0.1525
12382TIP3    H137082   3.804   6.129   3.651  0.0381  2.4013  0.3336
12382TIP3    H237083   3.705   6.206   3.736 -0.0173 -0.2452  2.7390
12383TIP3   OH237084   3.384   5.857   5.303  0.0160  0.0849  0.3705
12383TIP3    H137085   3.470   5.832   5.270  0.7233  0.0616  2.1821
12383TIP3    H237086   3.398   5.943   5.344 -1.4882  1.5275 -2.0397
12384TIP3   OH237087   3.432   5.864   6.713 -0.0527 -0.2088  0.1835
12384TIP3    H137088   3.347   5.881   6.754  0.3175  1.3914  0.3076
12384TIP3    H237089   3.435   5.925   6.639  1.9787  1.4470  1.5799
12385TIP3   OH237090   3.983   7.815   3.946 -0.2094  0.3433 -0.3246
12385TIP3    H137091   3.935   7.846   3.870 -0.0369  1.2807 -0.0577
12385TIP3    H237092   3.919   7.765   3.996 -0.9453  1.7082  0.0983
12386TIP3   OH237093   1.981   0.514   0.486  0.1407  0.5065  0.3407
12386TIP3    H137094   1.991   0.476   0.573  0.1580  1.5255  0.7828
12386TIP3    H237095   1.923   0.453   0.440 -0.5887  0.4358  1.3502
12387TIP3   OH237096   2.871   5.937   6.892 -1.0958  0.6886 -0.0067
12387TIP3    H137097   2.892   5.933   6.985  0.7821 -0.5803 -0.4575
12387TIP3    H237098   2.833   6.024   6.880 -2.8307  0.2872  2.2103
12388TIP3   OH237099   7.516   3.330   2.050 -0.1571  0.1462  0.5813
12388TIP3    H137100   7.575   3.284   1.990 -0.1859 -1.7067  1.9120
12388TIP3    H237101   7.565   3.408   2.077  1.4565 -1.0262  1.1644
12389TIP3   OH237102   2.559   7.456   6.086 -0.4886 -0.1979 -0.2628
12389TIP3    H137103   2.557   7.363   6.065 -1.9663 -0.3904  0.6761
12389TIP3    H237104   2.652   7.478   6.085 -0.1341 -1.6479 -0.6433
12390TIP3   OH237105   2.342   6.486   5.066  0.1460 -0.2249  0.0542
12390TIP3    H137106   2.410   6.526   5.014  0.3345 -0.6745 -0.0490
12390TIP3    H237107   2.336   6.540   5.145  2.1880 -1.4703  1.1053
12391TIP3   OH237108   3.975   5.334   6.613  0.5826 -0.0377 -0.2084
12391TIP3    H137109   4.048   5.374   6.566  0.9048 -0.7446 -0.3107
12391TIP3    H237110   3.927   5.285   6.546  0.5718 -0.3718  0.0434
12392TIP3   OH237111   4.117   5.881   5.351 -0.4908  0.0242  0.0280
12392TIP3    H137112   4.060   5.865   5.276 -1.0786  0.1258  0.4480
12392TIP3    H237113   4.121   5.977   5.358  0.7466  0.0334 -0.7655
12393TIP3   OH237114   1.124   4.048   3.106  0.0522  0.4139 -0.2838
12393TIP3    H137115   1.131   3.964   3.152  0.0032  0.8063  0.4446
12393TIP3    H237116   1.031   4.061   3.092 -0.1298  1.4793  1.7345
12394TIP3   OH237117   4.196   5.079   6.090  0.2036  0.0220 -0.2553
12394TIP3    H137118   4.107   5.096   6.060  0.6168  1.6071 -0.6058
12394TIP3    H237119   4.186   5.061   6.184 -0.6762 -1.5608 -0.6249
12395TIP3   OH237120   6.732   5.752   6.075 -0.6118  0.3431  0.2850
12395TIP3    H137121   6.676   5.677   6.057 -0.4315  0.0846  0.8034
12395TIP3    H237122   6.764   5.738   6.164  0.8802  0.1128 -0.2858
12396TIP3   OH237123   1.282   2.770   0.554 -0.3572  0.4870 -0.3079
12396TIP3    H137124   1.274   2.782   0.459  0.2988 -0.1693 -0.4491
12396TIP3    H237125   1.239   2.686   0.571 -0.3864  0.5565 -0.0392
12397TIP3   OH237126   2.260   4.565   0.045  0.0189  0.3880  0.0558
12397TIP3    H137127   2.210   4.595   0.121  0.4282  3.6357 -0.9048
12397TIP3    H237128   2.194   4.526  -0.012 -1.0753  2.2605 -0.0163
12398TIP3   OH237129   1.679   2.198   0.441  0.1246  0.0728  0.5777
12398TIP3    H137130   1.740   2.263   0.476  0.8423 -1.3667  2.1336
12398TIP3    H237131   1.656   2.229   0.354  2.4204  1.1005  0.3199
12399TIP3   OH237132   3.453   6.460   3.348 -0.6590 -0.9318 -0.4656
12399TIP3    H137133   3.389   6.425   3.287 -1.3722 -0.3933 -0.0284
12399TIP3    H237134   3.503   6.384   3.378 -0.3468 -1.2105 -1.6590
12400TIP3   OH237135   1.925   1.516   1.196  0.3811 -0.6435  0.1551
12400TIP3    H137136   1.897   1.601   1.161  0.4114 -0.0465  1.5547
12400TIP3    H237137   2.021   1.519   1.193  0.3709 -0.8973 -0.4271
12401TIP3   OH237138   4.309   7.064   6.659 -0.2227 -0.7689 -0.0572
12401TIP3    H137139   4.390   7.108   6.685 -2.1881  2.9671  0.2035
12401TIP3    H237140   4.335   7.005   6.589  2.5023  1.6342 -1.2042
12402TIP3   OH237141   0.775   3.071   0.026  0.7265  0.0977 -0.1985
12402TIP3    H137142   0.810   3.158   0.003 -0.7460  0.5716 -0.7079
12402TIP3    H237143   0.732   3.085   0.111 -1.3114  0.3674 -1.2536
12403TIP3   OH237144   4.431   6.918   3.955  0.2321 -0.1828 -0.0091
12403TIP3    H137145   4.437   6.983   4.025  1.6336 -0.9086  0.5743
12403TIP3    H237146   4.397   6.840   3.999  3.2477 -1.3371  0.3994
12404TIP3   OH237147   3.645   5.546   4.798  0.2936  0.2601  0.3336
12404TIP3    H137148   3.646   5.451   4.808  0.0975  0.3728  1.5011
12404TIP3    H237149   3.673   5.561   4.708 -0.8945 -0.9495 -0.2587
12405TIP3   OH237150   5.505   6.441   5.743 -0.4136  0.0185 -1.0833
12405TIP3    H137151   5.551   6.374   5.794  1.9699  1.6577 -0.9964
12405TIP3    H237152   5.574   6.488   5.697 -2.1876  1.3526 -2.4622
12406TIP3   OH237153   3.809   7.201   4.329  0.7423  0.1138 -0.3222
12406TIP3    H137154   3.824   7.118   4.283 -0.0870 -1.2955  1.8420
12406TIP3    H237155   3.896   7.239   4.339  1.1519 -0.5939 -1.1858
12407TIP3   OH237156   3.605   5.939   5.859 -0.2174 -0.0120  0.1382
12407TIP3    H137157   3.585   5.930   5.766 -0.3015 -0.4544  0.1991
12407TIP3    H237158   3.585   6.031   5.879  2.5313  0.8576 -0.9336
12408TIP3   OH237159   5.121   6.124   5.720 -0.5051  0.3460  0.1348
12408TIP3    H137160   5.080   6.204   5.754 -2.0709 -0.4010  0.0179
12408TIP3    H237161   5.183   6.156   5.654 -2.2243  1.3788 -0.9946
12409TIP3   OH237162   1.560   2.793   0.461  0.2407 -0.7919  0.2877
12409TIP3    H137163   1.627   2.791   0.530 -1.4553 -1.5191  1.9390
12409TIP3    H237164   1.506   2.716   0.477 -2.1262  0.7782  0.1040
12410TIP3   OH237165   2.784   5.448   6.793 -0.1555 -0.6088  0.1024
12410TIP3    H137166   2.708   5.420   6.741 -0.6818 -0.8512  0.9899
12410TIP3    H237167   2.854   5.458   6.729 -0.7613 -1.0294 -0.6419
12411TIP3   OH237168   1.078   2.177   0.741 -0.6818 -0.4444 -0.0748
12411TIP3    H137169   1.150   2.115   0.728 -0.3328 -0.0219 -0.1792
12411TIP3    H237170   1.108   2.233   0.813  0.6742  2.0208 -2.4881
12412TIP3   OH237171   4.105   4.452   6.464  0.2928 -0.0102 -0.0076
12412TIP3    H137172   4.103   4.364   6.427  2.3367  0.3667 -1.1134
12412TIP3    H237173   4.061   4.506   6.398  0.7280  0.0846 -0.2236
12413TIP3   OH237174   5.870   5.575   5.889 -0.3733  0.1233 -0.3814
12413TIP3    H137175   5.954   5.531   5.900  0.2476  1.1757 -0.7952
12413TIP3    H237176   5.812   5.534   5.953  1.0305  0.7997  1.3510
12414TIP3   OH237177   1.130   1.533   1.010 -0.1328  0.1734  0.2626
12414TIP3    H137178   1.218   1.550   1.043 -0.1958 -1.5321  1.3594
12414TIP3    H237179   1.144   1.494   0.924  0.2512 -1.4687  1.0517
12415TIP3   OH237180   4.719   4.337   6.893  0.1942  0.0668  0.2165
12415TIP3    H137181   4.798   4.328   6.840 -0.2018 -2.5298 -0.0034
12415TIP3    H237182   4.660   4.390   6.840  0.0065 -2.0200 -1.7165
12416TIP3   OH237183   0.935   1.969   1.805  0.6389  0.5064 -0.5537
12416TIP3    H137184   1.015   1.966   1.753  1.9438 -0.0463  1.4305
12416TIP3    H237185   0.926   1.881   1.842 -1.8690  0.0365 -2.1432
12417TIP3   OH237186   3.906   6.146   5.063 -0.3577  0.0579  0.2863
12417TIP3    H137187   3.896   6.170   4.971  0.0283 -0.4418  0.1101
12417TIP3    H237188   3.981   6.196   5.094 -0.4765  0.2129  0.3261
12418TIP3   OH237189   7.836   2.596   1.568 -0.5089 -0.1581  0.4135
12418TIP3    H137190   7.759   2.648   1.590  0.1261  0.9728  0.0407
12418TIP3    H237191   7.801   2.512   1.539 -1.6465  0.6096 -0.4893
12419TIP3   OH237192   3.528   4.668   6.868 -0.6004 -0.4961 -0.0440
12419TIP3    H137193   3.562   4.585   6.835  0.1325  0.1827 -1.0002
12419TIP3    H237194   3.474   4.702   6.797 -1.3430 -0.4030  0.5512
12420TIP3   OH237195   5.141   5.312   6.308  0.3655 -0.0748  0.0129
12420TIP3    H137196   5.173   5.275   6.226 -0.7059  1.9628 -1.3843
12420TIP3    H237197   5.194   5.269   6.376  1.7953 -1.2520 -1.7765
12421TIP3   OH237198   0.460   1.480   0.754  0.1791  0.3885  0.3884
12421TIP3    H137199   0.477   1.543   0.825 -1.2001  1.0047  0.1826
12421TIP3    H237200   0.393   1.422   0.789 -0.3380  0.5534 -0.3245
12422TIP3   OH237201   3.918   6.222   6.257  0.3897 -0.0452 -0.3781
12422TIP3    H137202   3.930   6.246   6.349 -0.2667  1.6585 -0.7109
12422TIP3    H237203   3.994   6.260   6.213  0.0988  0.1573 -0.7040
12423TIP3   OH237204   4.854   5.186   6.077 -0.0344 -0.0108 -0.1813
12423TIP3    H137205   4.869   5.252   6.146 -0.4966 -1.1380  1.0082
12423TIP3    H237206   4.942   5.162   6.048  0.1660  0.4015  0.0747
12424TIP3   OH237207   4.225   6.482   5.969  0.0941  0.1519 -0.0094
12424TIP3    H137208   4.227   6.392   6.002  0.4847 -0.4789 -1.6988
12424TIP3    H237209   4.311   6.517   5.991 -0.0877  0.1354  0.7257
12425TIP3   OH237210   4.771   7.039   3.984  0.4369 -0.5635 -0.6065
12425TIP3    H137211   4.721   7.001   4.057 -0.9376 -0.4845 -1.4817
12425TIP3    H237212   4.742   7.130   3.980  0.3035 -0.6385 -1.4200
12426TIP3   OH237213   2.393   5.973   4.787 -0.7031  0.2808  0.3928
12426TIP3    H137214   2.384   5.986   4.881  0.4836 -1.3381  0.7520
12426TIP3    H237215   2.487   5.968   4.772 -0.8331  1.8555 -1.0837
12427TIP3   OH237216   3.299   3.794   5.410 -0.1628 -0.4656  0.2393
12427TIP3    H137217   3.350   3.713   5.411  0.0059 -0.3737 -0.5189
12427TIP3    H237218   3.256   3.794   5.324  0.5182  0.6625 -0.1097
12428TIP3   OH237219   6.547   6.940   5.943 -0.3240 -0.4342  0.7122
12428TIP3    H137220   6.642   6.949   5.951  0.0358 -3.5148  0.3519
12428TIP3    H237221   6.522   7.011   5.883  1.6997  0.5036  0.9071
12429TIP3   OH237222   4.727   3.696   1.817 -0.2053  0.1311 -0.4458
12429TIP3    H137223   4.785   3.771   1.831 -1.1129  0.7148  0.2423
12429TIP3    H237224   4.780   3.620   1.841 -0.4946  0.8359  2.6096
12430TIP3   OH237225   0.034   1.943   0.228  0.2799  0.1629 -0.6379
12430TIP3    H137226   0.024   1.847   0.231 -2.8409  0.4643  0.0890
12430TIP3    H237227   0.068   1.966   0.314  0.0996 -0.2123 -0.4644
12431TIP3   OH237228   6.352   5.087   5.407 -0.5429 -0.2236  0.5990
12431TIP3    H137229   6.407   5.020   5.368 -0.2899  0.0440  0.4897
12431TIP3    H237230   6.326   5.051   5.492 -0.9894 -0.7562  0.2383
12432TIP3   OH237231   7.085   6.824   5.585  0.4215  0.5942  0.2458
12432TIP3    H137232   7.108   6.822   5.678 -2.0953  2.4262  0.9298
12432TIP3    H237233   7.140   6.893   5.549  0.1773  1.0428  0.7198
12433TIP3   OH237234   4.440   6.370   3.790  0.7269 -0.4963  0.1019
12433TIP3    H137235   4.516   6.422   3.764  0.9128 -0.7575  0.1193
12433TIP3    H237236   4.399   6.345   3.708  1.4577 -1.5334  0.0537
12434TIP3   OH237237   6.292   6.887   4.652  0.4516 -0.4886 -0.4860
12434TIP3    H137238   6.335   6.848   4.727  1.9276 -1.1524 -1.6531
12434TIP3    H237239   6.346   6.862   4.577 -1.8819 -1.2676 -1.9912
12435TIP3   OH237240   2.999   7.340   4.574  0.5346  0.4203  0.3202
12435TIP3    H137241   2.991   7.285   4.652 -0.2527  0.4402  0.2537
12435TIP3    H237242   3.074   7.303   4.527  0.5695 -0.0320  0.7253
12436TIP3   OH237243   7.740   5.020   6.567  0.1198 -0.1881  0.9533
12436TIP3    H137244   7.689   5.012   6.647 -2.1998 -0.4728 -0.4942
12436TIP3    H237245   7.675   5.012   6.497  1.7706  2.1962 -0.9257
12437TIP3   OH237246   1.202   1.866   0.384 -0.7255  0.0829  0.0536
12437TIP3    H137247   1.271   1.931   0.374  0.9265 -1.9220 -2.0071
12437TIP3    H237248   1.121   1.914   0.363  0.2153  1.9294  0.5088
12438TIP3   OH237249   8.028   6.791   5.453  0.4301 -0.0127  0.4863
12438TIP3    H137250   7.978   6.848   5.512  0.2993  0.8565 -0.4592
12438TIP3    H237251   7.975   6.712   5.445 -0.2672  0.4696  0.3470
12439TIP3   OH237252   4.886   4.321   4.565  0.3119 -0.1192 -0.3390
12439TIP3    H137253   4.860   4.318   4.657 -0.6900 -0.5530 -0.6327
12439TIP3    H237254   4.811   4.285   4.517  0.1536  1.6298 -1.4592
12440TIP3   OH237255   8.207   2.953   1.562  0.1776  0.2267 -0.2010
12440TIP3    H137256   8.270   2.889   1.530  1.2228  0.6295  1.0278
12440TIP3    H237257   8.135   2.900   1.597  1.5069 -0.3153  1.7748
12441TIP3   OH237258   4.094   6.150   5.380 -0.0197  0.3444 -0.2352
12441TIP3    H137259   4.142   6.197   5.312  0.2879  1.6283  0.8363
12441TIP3    H237260   4.010   6.196   5.385 -0.2695 -0.1225 -0.1704
12442TIP3   OH237261   4.554   4.344   5.950 -0.0656 -0.3876  0.3865
12442TIP3    H137262   4.519   4.411   6.009  1.4192 -0.2524  1.1659
12442TIP3    H237263   4.646   4.369   5.939  0.2538 -1.7639 -0.0916
12443TIP3   OH237264   4.611   4.467   5.400 -0.1013  0.5723 -0.0717
12443TIP3    H137265   4.670   4.523   5.450 -1.7075  2.0506  0.1970
12443TIP3    H237266   4.525   4.483   5.438 -1.0356  0.1616 -1.9827
12444TIP3   OH237267   0.327   2.293   1.686 -0.1290  0.1204 -0.6884
12444TIP3    H137268   0.288   2.212   1.720 -0.0683  0.4783  0.2423
12444TIP3    H237269   0.252   2.345   1.657 -0.2043 -0.0651 -0.8257
12445TIP3   OH237270   3.232   7.363   5.573 -0.0821  0.2827 -0.6891
12445TIP3    H137271   3.149   7.367   5.620 -0.3081 -0.1078 -1.0470
12445TIP3    H237272   3.209   7.329   5.486  0.7173 -1.6500 -0.1693
12446TIP3   OH237273   0.199   1.676   0.664  0.4045  0.1945 -0.4397
12446TIP3    H137274   0.131   1.608   0.662 -0.0699  0.6754 -0.8804
12446TIP3    H237275   0.272   1.638   0.614 -0.2694  0.4305 -1.6341
12447TIP3   OH237276   5.742   2.456   3.432 -0.2017 -0.2262  0.1996
12447TIP3    H137277   5.790   2.404   3.368  0.4281  0.7539 -0.1318
12447TIP3    H237278   5.702   2.527   3.382 -0.5099 -0.0081  0.7441
12448TIP3   OH237279   0.703   2.089   1.027  0.3246  0.3881  0.1404
12448TIP3    H137280   0.622   2.105   0.978 -0.1047  1.8231  1.2792
12448TIP3    H237281   0.688   2.006   1.072 -0.7641  0.9263  0.8000
12449TIP3   OH237282   3.229   7.300   6.384  0.1254 -0.2153 -0.7147
12449TIP3    H137283   3.201   7.227   6.440 -0.7504  2.3642  2.3760
12449TIP3    H237284   3.324   7.300   6.390  0.1029 -0.7793 -0.2723
12450TIP3   OH237285   2.451   5.924   5.669  0.0402  0.3820  0.0673
12450TIP3    H137286   2.477   5.851   5.613 -0.5952 -0.6588  1.0916
12450TIP3    H237287   2.438   5.884   5.756  0.0133  1.7714  0.7158
12451TIP3   OH237288   5.166   2.523   1.069  0.1822 -0.2113  0.0647
12451TIP3    H137289   5.118   2.589   1.120 -0.5408  1.2328 -2.3692
12451TIP3    H237290   5.202   2.572   0.995 -0.2605 -2.5298 -1.7448
12452TIP3   OH237291   6.686   0.230   6.874  0.1566  0.1242 -0.0351
12452TIP3    H137292   6.593   0.227   6.849  0.2438 -0.2013 -0.3233
12452TIP3    H237293   6.723   0.151   6.836  0.6869  0.5653 -0.4442
12453TIP3   OH237294   3.795   6.764   4.370  0.0934 -0.0443  0.0707
12453TIP3    H137295   3.737   6.714   4.427 -0.7642  0.0625 -0.7008
12453TIP3    H237296   3.829   6.701   4.308  1.2969 -0.2267  0.8930
12454TIP3   OH237297   2.971   7.418   5.738 -0.3682  0.5554  0.4037
12454TIP3    H137298   2.933   7.478   5.801 -0.5230 -0.4487  1.2805
12454TIP3    H237299   2.939   7.448   5.653 -2.8173 -0.0443  1.0793
12455TIP3   OH237300  -0.002   1.719   1.269 -1.6876 -0.0801  0.1329
12455TIP3    H137301  -0.047   1.762   1.196 -0.8251 -1.9168 -1.5372
12455TIP3    H237302   0.050   1.650   1.227  1.1548  0.7478  2.2157
12456TIP3   OH237303   6.111   1.447   6.016  0.1412  0.0159 -0.0703
12456TIP3    H137304   6.027   1.486   6.040  0.6616  0.5212  0.9365
12456TIP3    H237305   6.114   1.454   5.920 -0.7948  0.3394 -0.0774
12457TIP3   OH237306   4.493   7.708   5.870  0.1607 -0.1880  0.3526
12457TIP3    H137307   4.452   7.704   5.956 -1.2311 -1.6331 -0.3327
12457TIP3    H237308   4.558   7.638   5.872  1.0808  0.6727  0.6914
12458TIP3   OH237309   3.877   7.979   6.324  0.2315  0.3153  0.1636
12458TIP3    H137310   3.891   8.054   6.266  0.3012  0.1615 -0.0156
12458TIP3    H237311   3.791   7.995   6.363  0.6886  1.0178  0.9101
12459TIP3   OH237312   1.272   1.023   1.233  0.1331  0.5665 -0.2829
12459TIP3    H137313   1.223   1.052   1.156  1.3925  1.4938 -0.7592
12459TIP3    H237314   1.211   1.033   1.306 -0.3520  1.8084 -0.8498
12460TIP3   OH237315   6.060   4.237   6.036  0.1690 -0.2308  0.2196
12460TIP3    H137316   5.985   4.281   6.077 -0.9059 -1.3926 -0.4634
12460TIP3    H237317   6.088   4.172   6.100 -1.6689 -2.2186 -0.9264
12461TIP3   OH237318   7.058   6.668   6.039 -0.7066 -0.6408  0.2754
12461TIP3    H137319   7.021   6.641   5.954 -0.8644 -0.3833  0.2628
12461TIP3    H237320   7.056   6.763   6.037 -0.5695 -0.6332  0.5096
12462TIP3   OH237321   8.239   3.172   0.448 -0.2759  0.2761  0.0467
12462TIP3    H137322   8.303   3.101   0.462 -0.6065  0.4382  2.5967
12462TIP3    H237323   8.158   3.126   0.426 -0.0492 -0.0474 -0.1373
12463TIP3   OH237324   4.231   6.520   4.431  0.2705  0.1732 -0.3558
12463TIP3    H137325   4.326   6.524   4.420  0.0363  0.5140 -2.4334
12463TIP3    H237326   4.218   6.503   4.524  2.3778 -0.5819 -0.1823
12464TIP3   OH237327   0.501   0.977   0.274  0.0575 -0.0594 -0.5520
12464TIP3    H137328   0.486   0.977   0.369  1.6148 -1.3652 -0.2958
12464TIP3    H237329   0.566   0.909   0.260 -0.0437  0.2415 -2.5574
12465TIP3   OH237330   4.686   5.769   6.466 -0.1840 -0.3571  0.2027
12465TIP3    H137331   4.742   5.757   6.389  1.7932  2.5130  1.1100
12465TIP3    H237332   4.701   5.690   6.519 -0.2478 -1.5555 -1.5131
12466TIP3   OH237333   4.971   6.800   4.904  0.0165  0.4541 -0.2049
12466TIP3    H137334   4.964   6.886   4.862 -2.1362  0.7153  0.6390
12466TIP3    H237335   5.065   6.789   4.919  0.4040  2.2967 -1.0616
12467TIP3   OH237336   3.693   6.591   4.550  0.5665  0.2612 -0.1630
12467TIP3    H137337   3.644   6.570   4.630  1.1151  0.8358  0.3265
12467TIP3    H237338   3.727   6.506   4.521  0.1498  0.0100  0.0721
12468TIP3   OH237339   5.142   3.426   4.381  0.2163 -0.4885  0.6329
12468TIP3    H137340   5.133   3.373   4.302  0.6484 -0.5223  0.6063
12468TIP3    H237341   5.151   3.362   4.452 -1.3316 -0.4792  0.8615
12469TIP3   OH237342   5.878   6.214   6.421 -0.3019 -0.1632 -0.5609
12469TIP3    H137343   5.906   6.292   6.469 -0.7295 -0.0466 -0.5012
12469TIP3    H237344   5.851   6.152   6.488 -0.5858 -0.1218 -0.6377
12470TIP3   OH237345   4.680   6.728   4.055  0.0223  0.4458  0.2823
12470TIP3    H137346   4.599   6.676   4.048  0.8378 -0.8945  0.6295
12470TIP3    H237347   4.684   6.775   3.972 -2.4447  2.5278  1.2756
12471TIP3   OH237348   3.352   5.732   6.395  0.6252 -0.4606 -0.1076
12471TIP3    H137349   3.300   5.672   6.449  1.5154  0.6559  2.0254
12471TIP3    H237350   3.442   5.704   6.410  0.8396 -0.5826 -1.5827
12472TIP3   OH237351   2.692   0.662   0.498  0.2310 -0.4481  0.0342
12472TIP3    H137352   2.699   0.568   0.477 -2.2942 -0.5596 -0.4726
12472TIP3    H237353   2.696   0.705   0.413  1.8460 -0.0420  0.3037
12473TIP3   OH237354   5.986   5.283   4.758  0.1753 -0.6002  0.5281
12473TIP3    H137355   5.949   5.276   4.670  0.0659 -3.3041  0.7271
12473TIP3    H237356   5.927   5.343   4.804  0.0145  0.5435 -1.1155
12474TIP3   OH237357   3.325   6.931   3.296 -0.1787  0.1515 -0.3281
12474TIP3    H137358   3.412   6.915   3.260 -0.2851  0.7311 -0.8445
12474TIP3    H237359   3.300   6.847   3.335  1.5685  0.5956  1.8662
12475TIP3   OH237360   3.499   2.084   1.568  0.0239  0.3080 -0.3031
12475TIP3    H137361   3.511   2.006   1.514  2.0230  1.0879 -1.0168
12475TIP3    H237362   3.414   2.070   1.611  0.7735 -2.6755  0.3094
12476TIP3   OH237363   4.571   7.126   6.780  0.8323 -0.1412 -0.1442
12476TIP3    H137364   4.577   7.155   6.871 -1.1300 -1.2958  0.3965
12476TIP3    H237365   4.593   7.033   6.783 -0.3592 -0.4551 -0.6433
12477TIP3   OH237366   7.470   5.789   4.340 -0.0336 -0.2399  0.0145
12477TIP3    H137367   7.400   5.853   4.355  1.0316  1.1658 -0.8718
12477TIP3    H237368   7.533   5.805   4.410  0.2143 -0.3521 -0.1812
12478TIP3   OH237369   3.558   2.829  -0.025  0.3405  0.3735 -0.0441
12478TIP3    H137370   3.583   2.762   0.038 -1.9895 -0.8383 -0.3554
12478TIP3    H237371   3.519   2.899   0.029  1.9777  1.1187  0.1984
12479TIP3   OH237372   4.553   5.693   4.678  0.3088  0.4216  0.4502
12479TIP3    H137373   4.605   5.693   4.758  1.7173 -0.5376 -0.4366
12479TIP3    H237374   4.608   5.738   4.614 -0.3884  0.3092 -0.2381
12480TIP3   OH237375   5.176   7.286   4.855  0.4197 -0.2617 -0.0879
12480TIP3    H137376   5.097   7.243   4.824 -0.9276  1.7613  0.4608
12480TIP3    H237377   5.181   7.263   4.948 -0.0737  0.4113  0.1081
12481TIP3   OH237378   4.526   5.642   3.971  0.2515 -0.1057 -0.9987
12481TIP3    H137379   4.515   5.585   3.896  0.8520  1.3026 -2.1798
12481TIP3    H237380   4.546   5.728   3.934 -0.1684  0.7763  0.7475
12482TIP3   OH237381   5.215   5.813   4.702 -0.2147  0.1570  0.1934
12482TIP3    H137382   5.228   5.727   4.744  0.7797 -0.0944 -0.6170
12482TIP3    H237383   5.144   5.853   4.752  0.2056 -0.5966  1.4249
12483TIP3   OH237384   3.725   7.567   3.995 -0.4742 -0.0154  0.4320
12483TIP3    H137385   3.704   7.496   3.934  1.9898  0.7997 -1.4661
12483TIP3    H237386   3.801   7.535   4.044 -1.1799  0.1448  1.6363
12484TIP3   OH237387   1.368   1.362   4.851 -0.2591 -0.0494  0.4532
12484TIP3    H137388   1.365   1.267   4.865  1.4957  0.1567  2.5583
12484TIP3    H237389   1.454   1.378   4.814 -0.3390  0.7750  0.6076
12485TIP3   OH237390   0.444   6.087   5.832  0.2171 -0.0874 -0.1454
12485TIP3    H137391   0.422   6.121   5.746  0.8715 -0.8548 -0.6270
12485TIP3    H237392   0.455   5.993   5.819  0.6479 -0.1660  0.7069
12486TIP3   OH237393   7.669   5.713   6.463  0.0352  0.4303  0.3652
12486TIP3    H137394   7.649   5.798   6.423  1.6604  1.3379  1.4264
12486TIP3    H237395   7.612   5.708   6.539 -0.8064  0.0927 -0.2774
12487TIP3   OH237396   7.418   6.222   5.360  0.1877  0.5471 -0.4650
12487TIP3    H137397   7.349   6.158   5.379 -0.0800  1.2039  0.8400
12487TIP3    H237398   7.395   6.299   5.412  1.2803  1.1969 -0.9133
12488TIP3   OH237399   7.723   7.403   5.477 -0.5773 -0.2495 -0.5806
12488TIP3    H137400   7.750   7.403   5.385  0.1243 -2.7746 -0.4054
12488TIP3    H237401   7.630   7.425   5.474 -1.6825 -4.5217 -2.3251
12489TIP3   OH237402   5.966   5.940   5.741 -0.3607 -0.0537  0.0366
12489TIP3    H137403   6.012   5.860   5.714 -3.1603 -2.1746  1.2029
12489TIP3    H237404   6.011   5.969   5.819  1.2606  0.0452 -0.9201
12490TIP3   OH237405   4.439   6.593   5.726 -0.0753 -0.7060  0.1618
12490TIP3    H137406   4.361   6.567   5.678  1.0727 -1.4678 -1.3168
12490TIP3    H237407   4.408   6.660   5.787 -1.7095 -0.3516 -1.0182
12491TIP3   OH237408   7.166   7.319   5.397  0.4905 -0.5400 -0.0881
12491TIP3    H137409   7.086   7.352   5.357  0.3048  0.1475  0.8447
12491TIP3    H237410   7.216   7.282   5.324 -0.1786  0.0256 -0.8324
12492TIP3   OH237411   4.525   1.670   1.035 -0.8818 -0.2651  0.6270
12492TIP3    H137412   4.462   1.695   0.968  1.7170 -0.3453 -1.9832
12492TIP3    H237413   4.550   1.580   1.012 -0.3354 -0.4770  2.0107
12493TIP3   OH237414   1.400   0.171   3.208 -0.0064 -0.3518  0.4414
12493TIP3    H137415   1.466   0.204   3.147  0.6855 -1.1145  0.7527
12493TIP3    H237416   1.421   0.078   3.217 -0.6495 -0.4348  1.1474
12494TIP3   OH237417   7.535   6.891   5.767 -0.3130 -0.1782 -0.0722
12494TIP3    H137418   7.509   6.829   5.699 -0.4240  1.0910 -1.2166
12494TIP3    H237419   7.553   6.972   5.719  2.5939 -0.0957  1.0455
12495TIP3   OH237420   6.795   5.582   3.706  0.1606 -0.0154 -0.2420
12495TIP3    H137421   6.734   5.656   3.710  0.7494  0.3803  2.9282
12495TIP3    H237422   6.881   5.623   3.714  0.5499 -0.9495  0.4105
12496TIP3   OH237423   4.727   5.737   5.556  0.4166 -0.1418 -0.0508
12496TIP3    H137424   4.722   5.700   5.468  1.1367  2.1923 -1.1299
12496TIP3    H237425   4.754   5.828   5.542 -1.1530  0.7763  2.4704
12497TIP3   OH237426   4.716   7.291   4.759  0.1585 -0.2716 -0.1906
12497TIP3    H137427   4.642   7.235   4.733 -0.6569  0.6294  0.1720
12497TIP3    H237428   4.787   7.229   4.779  0.0103 -1.0772 -2.0842
12498TIP3   OH237429   2.830   6.160   4.846 -0.1267  0.0901  0.5125
12498TIP3    H137430   2.883   6.158   4.926  0.3961 -1.3282  0.1464
12498TIP3    H237431   2.893   6.146   4.775 -1.0660 -2.3838  0.1242
12499TIP3   OH237432   4.788   4.903   4.765 -0.4273  0.4578  0.1445
12499TIP3    H137433   4.749   4.882   4.680 -1.7940 -1.8741  1.2957
12499TIP3    H237434   4.775   4.997   4.775 -0.3662  0.7414 -2.1502
12500TIP3   OH237435   6.052   6.954   2.967  0.4507  0.2758 -0.2061
12500TIP3    H137436   6.070   6.887   2.900 -1.1382 -1.5327  1.1086
12500TIP3    H237437   6.132   7.005   2.972  0.6133  0.4613 -3.5081
12501TIP3   OH237438   6.979   7.182   3.761  0.4484 -0.1592  0.7626
12501TIP3    H137439   7.050   7.203   3.822  0.9451 -0.4918  0.3023
12501TIP3    H237440   6.962   7.263   3.715  0.6936 -0.1396  0.7060
12502TIP3   OH237441   8.336   7.694   5.840 -0.0529  0.4385  0.0044
12502TIP3    H137442   8.309   7.609   5.876 -0.0511  0.6020  0.3890
12502TIP3    H237443   8.277   7.708   5.766  1.2452 -0.8315 -1.3007
12503TIP3   OH237444   6.354   7.571   6.330  0.4369  0.2382 -0.4062
12503TIP3    H137445   6.273   7.527   6.354  0.0595  1.6427  0.9262
12503TIP3    H237446   6.370   7.633   6.400  1.9567  0.9268 -1.3327
12504TIP3   OH237447   0.245   0.357   5.504  0.1926 -0.0922 -0.3050
12504TIP3    H137448   0.281   0.398   5.583  0.6945 -0.8467 -0.1356
12504TIP3    H237449   0.317   0.362   5.441 -0.1806  0.4341 -0.6882
12505TIP3   OH237450   6.211   6.512   5.968 -0.0003 -0.3137 -0.1805
12505TIP3    H137451   6.302   6.542   5.971  0.1417 -0.8291  2.6970
12505TIP3    H237452   6.217   6.421   5.937  0.7184 -0.9786  1.7804
12506TIP3   OH237453   7.858   6.576   5.466 -0.3075 -0.0694  0.2555
12506TIP3    H137454   7.869   6.603   5.557 -0.8137 -1.6709  0.8054
12506TIP3    H237455   7.886   6.485   5.464  1.5947  0.4996 -1.6170
12507TIP3   OH237456   7.166   1.449   6.135 -0.7561 -0.1366 -0.0464
12507TIP3    H137457   7.244   1.505   6.128 -1.2120  0.3055 -2.0147
12507TIP3    H237458   7.099   1.496   6.086 -2.8891  0.4535  3.3301
12508TIP3   OH237459   7.590   6.400   6.298 -0.3529  0.2271 -0.5805
12508TIP3    H137460   7.626   6.487   6.313 -1.4349  0.4598  0.7371
12508TIP3    H237461   7.530   6.410   6.225 -1.4341  0.8572  0.3882
12509TIP3   OH237462   8.009   1.371   6.758  0.4188  0.0763 -0.1336
12509TIP3    H137463   8.041   1.386   6.669 -0.9049  3.9674 -0.0390
12509TIP3    H237464   7.920   1.407   6.759  0.3771  0.0582  2.7460
12510TIP3   OH237465   6.226   7.980   5.669 -0.7464  0.0122  0.1990
12510TIP3    H137466   6.254   7.907   5.613 -1.1871 -0.5456  0.7043
12510TIP3    H237467   6.192   7.938   5.748 -0.9373  0.7719  0.5222
12511TIP3   OH237468   6.011   6.447   6.187 -0.4358  0.2271 -0.0411
12511TIP3    H137469   6.044   6.490   6.108  0.5573 -1.8083 -0.7560
12511TIP3    H237470   5.916   6.463   6.185 -0.1544  1.9453 -0.5245
12512TIP3   OH237471   6.523   7.993   4.705 -0.0681  0.4318 -0.2879
12512TIP3    H137472   6.463   7.967   4.636 -2.1767  2.4871  0.7081
12512TIP3    H237473   6.610   7.978   4.669 -1.1301 -3.5930 -1.3778
12513TIP3   OH237474   4.309   4.729   5.384 -0.2055 -0.0986  0.4653
12513TIP3    H137475   4.399   4.713   5.353 -0.1339 -0.4495  0.8486
12513TIP3    H237476   4.320   4.786   5.460 -0.3659  0.5828 -0.0249
12514TIP3   OH237477   5.298   7.656   5.723  0.5636  0.2560 -0.3605
12514TIP3    H137478   5.327   7.724   5.784 -1.2592  1.5110 -0.8537
12514TIP3    H237479   5.343   7.676   5.641  2.2040 -0.8134  0.2552
12515TIP3   OH237480   5.780   6.400   3.837 -0.1918  0.0572  0.2656
12515TIP3    H137481   5.706   6.459   3.848  1.0641  1.4040  1.5358
12515TIP3    H237482   5.772   6.368   3.746 -0.4613  2.7596 -0.6963
12516TIP3   OH237483   5.375   6.186   3.923  0.2245 -0.2511 -0.2928
12516TIP3    H137484   5.419   6.242   3.860  3.2190 -0.4265  1.5085
12516TIP3    H237485   5.397   6.097   3.895 -1.1872 -0.4223 -0.8700
12517TIP3   OH237486   7.771   6.999   5.205 -0.2945 -0.0063 -0.1916
12517TIP3    H137487   7.689   7.048   5.206  0.0173  0.5105 -0.0211
12517TIP3    H237488   7.794   6.987   5.297 -0.3341 -0.4114 -0.2336
12518TIP3   OH237489   8.167   0.336   6.545  0.0766 -0.2625 -0.3996
12518TIP3    H137490   8.103   0.293   6.601 -0.0487  0.9958  0.4464
12518TIP3    H237491   8.193   0.415   6.593  0.6568  0.3611 -1.6864
12519TIP3   OH237492   7.628   5.822   5.559  0.2405  0.1771 -0.3939
12519TIP3    H137493   7.695   5.756   5.537 -1.6385 -2.4395  1.3980
12519TIP3    H237494   7.569   5.822   5.484  0.0709 -0.4252 -0.2617
12520TIP3   OH237495   5.753   4.630   3.376 -0.1818 -0.1052 -0.1000
12520TIP3    H137496   5.790   4.565   3.436 -1.4402  0.5511  1.4425
12520TIP3    H237497   5.681   4.670   3.426  0.5622  2.4570 -1.0075
12521TIP3   OH237498   7.768   6.261   3.207 -0.5655  0.3579 -0.3833
12521TIP3    H137499   7.739   6.172   3.226  0.0448  0.2781  0.2125
12521TIP3    H237500   7.730   6.314   3.277  1.0585  0.1810  0.6726
12522TIP3   OH237501   3.073   2.671   0.512  0.0030  0.2343  0.3567
12522TIP3    H137502   3.094   2.763   0.529  0.8923  0.0402  0.3546
12522TIP3    H237503   3.152   2.624   0.538  0.1171 -0.3915 -1.0920
12523TIP3   OH237504   7.217   7.065   5.544  0.0389 -0.2065  0.4466
12523TIP3    H137505   7.158   7.099   5.477 -1.9452 -3.6025  0.3539
12523TIP3    H237506   7.303   7.065   5.503 -0.8930 -0.8021 -1.5317
12524TIP3   OH237507   7.608   6.387   6.626  0.0362 -0.1539  0.3763
12524TIP3    H137508   7.594   6.292   6.633 -1.2249  0.1017  1.4635
12524TIP3    H237509   7.701   6.399   6.645  0.3226 -1.2281 -0.3083
12525TIP3   OH237510   5.955   7.300   5.136 -0.1127  0.1818 -0.5689
12525TIP3    H137511   5.988   7.357   5.067 -0.0190  0.3368 -0.3947
12525TIP3    H237512   5.997   7.215   5.118  0.4768  0.4058 -0.2782
12526TIP3   OH237513   7.824   5.324   6.224  0.2872 -0.4151  0.0344
12526TIP3    H137514   7.798   5.289   6.139 -2.2442 -0.6465  0.8658
12526TIP3    H237515   7.776   5.407   6.232 -0.4191 -0.9569  1.7150
12527TIP3   OH237516   6.021   6.897   3.796 -0.4938  0.2337  0.1297
12527TIP3    H137517   6.081   6.930   3.729  1.0147  0.0508  1.3560
12527TIP3    H237518   5.954   6.964   3.803 -0.8903  0.0846 -1.8271
12528TIP3   OH237519   7.888   5.485   3.807 -0.1665 -0.2378  0.3736
12528TIP3    H137520   7.919   5.508   3.895  0.7265  2.1607 -0.5361
12528TIP3    H237521   7.936   5.404   3.786  1.8856  0.8060  0.9107
12529TIP3   OH237522   7.028   4.703   4.461 -0.0150  0.2633  0.0832
12529TIP3    H137523   6.989   4.779   4.505 -0.6694  0.2594 -0.4722
12529TIP3    H237524   7.057   4.647   4.533 -2.1017 -0.2772  0.5480
12530TIP3   OH237525   1.178   0.763   5.256  0.1864 -0.9053 -0.3351
12530TIP3    H137526   1.174   0.685   5.201  2.1846 -2.6522  1.8996
12530TIP3    H237527   1.149   0.734   5.342 -1.1873  1.3750  0.0373
12531TIP3   OH237528   6.051   5.646   4.679 -0.6103  0.5369  0.0174
12531TIP3    H137529   6.104   5.591   4.622 -0.8479  1.0738 -0.7273
12531TIP3    H237530   6.113   5.683   4.742 -0.5269 -0.9533  0.8228
12532TIP3   OH237531   7.155   4.701   5.851 -0.0222  0.7540  0.1798
12532TIP3    H137532   7.195   4.734   5.771  0.2375 -1.0735 -0.4596
12532TIP3    H237533   7.214   4.632   5.882 -0.2852  1.2115  1.7797
12533TIP3   OH237534   5.829   6.757   5.963 -0.9371 -0.2701  0.3471
12533TIP3    H137535   5.888   6.811   5.912 -1.7982  1.6152  1.3138
12533TIP3    H237536   5.863   6.668   5.954  1.1911  0.5985 -0.2548
12534TIP3   OH237537   3.585   3.355   5.118 -0.0884  0.2432 -0.0521
12534TIP3    H137538   3.619   3.266   5.105 -1.0524 -0.0612 -0.5161
12534TIP3    H237539   3.636   3.389   5.191  0.7768 -0.4381 -0.3189
12535TIP3   OH237540   0.833   6.012   5.228 -0.5525 -0.6641 -0.1185
12535TIP3    H137541   0.776   6.035   5.154  0.8785  1.7708 -0.5178
12535TIP3    H237542   0.869   6.096   5.257  3.2391 -2.1645 -0.1947
12536TIP3   OH237543   8.006   0.242   6.768  0.0896  0.4129  0.0269
12536TIP3    H137544   7.979   0.157   6.733  1.2961  0.3515 -0.7895
12536TIP3    H237545   7.928   0.276   6.812  0.0504 -1.8409  1.7893
12537TIP3   OH237546   4.809   6.355   4.874  0.3547  0.0671  0.8142
12537TIP3    H137547   4.831   6.448   4.866  0.7530  0.0315  1.4589
12537TIP3    H237548   4.893   6.310   4.876  0.1684 -0.2815  0.7871
12538TIP3   OH237549   7.885   6.498   6.682  0.6046 -0.2588  0.3268
12538TIP3    H137550   7.812   6.557   6.701 -0.0774 -1.5009  1.6326
12538TIP3    H237551   7.953   6.522   6.745 -0.0983 -1.5862  1.6327
12539TIP3   OH237552   5.676   6.923   3.838 -0.4446  0.0049  0.0727
12539TIP3    H137553   5.724   6.847   3.870 -0.8146 -1.0119 -1.6966
12539TIP3    H237554   5.594   6.922   3.887  0.4833  0.6001  1.6723
12540TIP3   OH237555   0.819   2.545   0.272 -0.4260  0.1651  0.1781
12540TIP3    H137556   0.743   2.522   0.218 -0.2699 -0.0227  0.0374
12540TIP3    H237557   0.794   2.520   0.361  0.1655 -1.5809 -0.1322
12541TIP3   OH237558   5.597   4.484   2.049 -1.0382  0.6584 -0.5786
12541TIP3    H137559   5.587   4.389   2.058  1.1291  0.6714  2.4558
12541TIP3    H237560   5.539   4.521   2.115  2.5850  1.2305  2.4172
12542TIP3   OH237561   6.430   4.559   6.253 -0.0132 -0.6631  0.1631
12542TIP3    H137562   6.521   4.537   6.232  0.5980 -0.9864  2.9379
12542TIP3    H237563   6.381   4.479   6.235  0.7782 -1.5046  1.6070
12543TIP3   OH237564   3.167   5.719   5.233 -0.1996 -0.2050 -0.5045
12543TIP3    H137565   3.246   5.761   5.266 -0.0148 -0.9547  0.0286
12543TIP3    H237566   3.190   5.690   5.145 -0.2537  0.5970 -0.7838
12544TIP3   OH237567   5.677   2.243   0.120 -0.5652  0.0783 -0.2113
12544TIP3    H137568   5.608   2.194   0.075  0.9154 -1.7616 -0.5022
12544TIP3    H237569   5.725   2.287   0.050  0.1968 -0.7925 -0.2482
12545TIP3   OH237570   4.873   7.536   4.692 -0.2742  0.3009 -0.0717
12545TIP3    H137571   4.920   7.497   4.618  1.7128 -0.0025  1.2917
12545TIP3    H237572   4.802   7.475   4.711  0.9080 -1.0679  0.0524
12546TIP3   OH237573   8.360   7.294   6.273 -0.0363 -0.0973  0.0461
12546TIP3    H137574   8.331   7.203   6.268  0.1349 -0.1227 -0.5324
12546TIP3    H237575   8.454   7.289   6.288 -0.2406 -0.0142  1.4314
12547TIP3   OH237576   5.820   6.210   4.975  0.3342  0.0030 -0.4778
12547TIP3    H137577   5.818   6.140   5.040  2.0853  1.8180  1.5997
12547TIP3    H237578   5.739   6.258   4.988 -0.9111 -1.6499 -1.9642
12548TIP3   OH237579   4.464   7.608   5.180  0.0249  0.5096  0.1658
12548TIP3    H137580   4.456   7.703   5.165  1.8475  0.7474  0.5767
12548TIP3    H237581   4.497   7.601   5.269  1.1132 -0.4764 -0.3134
12549TIP3   OH237582   5.757   7.775   6.566  0.1843  0.0850 -0.2214
12549TIP3    H137583   5.693   7.846   6.570  0.6253  0.6498 -2.3467
12549TIP3    H237584   5.818   7.802   6.497  1.4666 -1.4647  0.2712
12550TIP3   OH237585   3.637   1.972   0.070  0.1912  0.5008  0.4583
12550TIP3    H137586   3.609   2.059   0.043  0.2020 -0.0691 -1.4503
12550TIP3    H237587   3.555   1.927   0.092  0.0478  0.5337  0.0078
12551TIP3   OH237588   5.776   5.098   4.602  0.2266  0.5022 -0.0492
12551TIP3    H137589   5.735   5.148   4.672  0.6987  0.1984  0.4440
12551TIP3    H237590   5.845   5.154   4.569  0.0488  0.6163 -0.2309
12552TIP3   OH237591   5.328   7.229   3.744  0.2481 -0.2840  0.3171
12552TIP3    H137592   5.398   7.170   3.715  0.2788 -0.2167  0.2540
12552TIP3    H237593   5.268   7.233   3.669  0.1638 -0.3611  0.3798
12553TIP3   OH237594   5.268   7.281   6.035 -0.4654  0.4028  0.3117
12553TIP3    H137595   5.364   7.283   6.036 -0.4672  1.9380 -0.1076
12553TIP3    H237596   5.242   7.363   6.077 -1.5482  1.0736 -1.5701
12554TIP3   OH237597   4.451   4.704   0.213  0.0931 -0.0383 -0.3598
12554TIP3    H137598   4.396   4.680   0.138  0.1026 -0.2513 -0.2991
12554TIP3    H237599   4.529   4.742   0.173 -1.0770  2.4097 -0.4016
12555TIP3   OH237600   6.051   5.355   6.787 -0.1002  0.2085 -0.1643
12555TIP3    H137601   6.144   5.339   6.802 -0.3119  1.0206  2.2775
12555TIP3    H237602   6.013   5.268   6.777  0.6954 -0.2067  0.3167
12556TIP3   OH237603   8.272   6.183   5.934 -0.1100 -0.5743  0.2918
12556TIP3    H137604   8.284   6.103   5.883  0.7738  0.3254 -0.9464
12556TIP3    H237605   8.194   6.166   5.987 -1.4943 -1.2887 -1.9021
12557TIP3   OH237606   5.911   6.446   4.078  0.1256  0.5769  0.0284
12557TIP3    H137607   5.857   6.508   4.127 -2.4782 -1.8429  0.3193
12557TIP3    H237608   5.859   6.426   4.000  0.5407 -1.9056  0.3742
12558TIP3   OH237609   5.750   5.797   5.346 -0.3257 -0.3965 -0.6571
12558TIP3    H137610   5.735   5.797   5.440  0.5906 -1.1407 -0.5036
12558TIP3    H237611   5.777   5.708   5.325  3.7502  0.7569 -0.8890
12559TIP3   OH237612   2.561   7.091   3.689 -0.5449 -0.6635  0.2584
12559TIP3    H137613   2.595   7.130   3.609 -1.3888 -0.8029 -0.1770
12559TIP3    H237614   2.530   7.004   3.662 -0.2408 -0.9695  0.8686
12560TIP3   OH237615   3.795   7.039   3.783  0.1249 -0.2039  0.3995
12560TIP3    H137616   3.802   6.970   3.717 -0.7488  0.8534 -0.8038
12560TIP3    H237617   3.721   7.013   3.837 -0.1898 -0.2298 -0.0408
12561TIP3   OH237618   4.004   2.963   0.696  1.0163  0.2842 -0.5724
12561TIP3    H137619   4.080   2.944   0.751  1.2146 -0.1487 -0.9872
12561TIP3    H237620   4.006   2.895   0.629 -1.9851 -2.2053  1.6904
12562TIP3   OH237621   8.063   6.953   4.782 -0.1682  0.3276 -0.1231
12562TIP3    H137622   8.018   7.037   4.786 -0.2159  0.2864  0.2372
12562TIP3    H237623   8.126   6.956   4.854 -0.9360 -0.3854  0.5849
12563TIP3   OH237624   7.239   6.244   3.687  0.1997  0.1606 -0.5851
12563TIP3    H137625   7.219   6.268   3.777 -0.3744 -0.4806 -0.5341
12563TIP3    H237626   7.181   6.300   3.634  0.4298  0.4321 -0.5486
12564TIP3   OH237627   5.845   2.323   0.540 -0.4830  0.3971  0.6468
12564TIP3    H137628   5.889   2.282   0.615 -1.6541  1.2797  1.8450
12564TIP3    H237629   5.887   2.408   0.531 -0.3995  0.3244  0.3547
12565TIP3   OH237630   8.018   4.440   3.660  0.1946  0.1056 -0.5619
12565TIP3    H137631   7.969   4.458   3.741  0.7741 -1.3110  0.1100
12565TIP3    H237632   7.957   4.463   3.590 -0.0479  2.1164  0.2459
12566TIP3   OH237633   7.619   5.733   5.172  0.0247  0.4964 -0.1445
12566TIP3    H137634   7.581   5.787   5.103 -1.2776  2.2195  1.8837
12566TIP3    H237635   7.571   5.757   5.251  0.7189 -2.2642  1.1768
12567TIP3   OH237636   4.607   6.080   4.102 -0.1913 -0.1702 -0.0226
12567TIP3    H137637   4.662   6.008   4.072 -1.5482 -1.3793  0.3553
12567TIP3    H237638   4.606   6.072   4.198 -1.5632 -0.5858 -0.0555
12568TIP3   OH237639   3.869   5.691   5.279  0.4735  0.4221 -0.5322
12568TIP3    H137640   3.812   5.615   5.284 -0.9014  1.4553 -0.0314
12568TIP3    H237641   3.924   5.685   5.357  1.6586 -1.0380 -1.4604
12569TIP3   OH237642   4.993   5.958   5.507  0.1514  0.1097  0.0723
12569TIP3    H137643   5.065   5.902   5.479  0.2789  0.5538 -0.5003
12569TIP3    H237644   4.939   5.968   5.429  1.5463  2.9536 -0.5763
12570TIP3   OH237645   6.885   7.376   5.585  0.1894 -0.1364  0.7405
12570TIP3    H137646   6.897   7.431   5.663 -0.9649 -0.6747  1.3071
12570TIP3    H237647   6.859   7.291   5.620 -0.9769 -0.1966 -0.2665
12571TIP3   OH237648   3.849   6.521   4.276 -0.1944 -0.4313  0.2728
12571TIP3    H137649   3.775   6.461   4.268 -0.9093  0.6134 -1.3226
12571TIP3    H237650   3.894   6.515   4.191  0.2953  0.5357  0.4531
12572TIP3   OH237651   1.048   0.112   6.635  0.4481  0.5964  0.1610
12572TIP3    H137652   1.040   0.023   6.668 -1.8930  0.4494 -0.6994
12572TIP3    H237653   1.057   0.102   6.540 -1.3063  1.2880 -0.1062
12573TIP3   OH237654   7.283   7.389   3.843 -0.5750  0.4598  0.5525
12573TIP3    H137655   7.204   7.433   3.875 -1.4594 -1.0958  0.5447
12573TIP3    H237656   7.288   7.413   3.750 -1.9169 -0.6739  0.1689
12574TIP3   OH237657   5.899   7.654   5.478 -0.1553 -0.2166 -0.5658
12574TIP3    H137658   5.857   7.579   5.437 -1.7920  0.1689  0.3703
12574TIP3    H237659   5.983   7.662   5.433 -0.1616 -2.3091 -1.0039
12575TIP3   OH237660   8.245   7.460   3.572 -0.3800  0.0462  0.2902
12575TIP3    H137661   8.303   7.416   3.634  2.4794  0.8041 -1.7652
12575TIP3    H237662   8.262   7.416   3.488 -1.8442  1.1415 -0.5942
12576TIP3   OH237663   6.132   7.895   5.897  0.3295  0.5907  0.0540
12576TIP3    H137664   6.089   7.840   5.961 -0.5483 -0.0002 -1.0351
12576TIP3    H237665   6.169   7.967   5.948  1.1384 -0.7867  1.4246
12577TIP3   OH237666   5.335   7.203   4.253  0.1316 -0.5271 -0.2734
12577TIP3    H137667   5.335   7.213   4.158 -1.2946 -1.5479 -0.3920
12577TIP3    H237668   5.391   7.274   4.284 -0.4046  0.5892 -1.7945
12578TIP3   OH237669   2.314   5.871   6.195 -0.3126  0.0829  0.6572
12578TIP3    H137670   2.259   5.810   6.243  0.6950 -0.8512  0.6393
12578TIP3    H237671   2.384   5.894   6.256  0.6433 -0.6507 -0.1405
12579TIP3   OH237672   3.418   6.736   4.062  0.4939  0.4617 -0.2339
12579TIP3    H137673   3.489   6.797   4.082  1.0290 -0.2779  0.1149
12579TIP3    H237674   3.413   6.679   4.139 -0.6818  0.7057 -0.1196
12580TIP3   OH237675   6.877   6.748   5.413  0.1553  0.0983  0.1425
12580TIP3    H137676   6.832   6.694   5.478  0.6722  0.3181  0.6823
12580TIP3    H237677   6.959   6.773   5.455 -1.1461  3.3600  0.8544
12581TIP3   OH237678   5.812   7.311   4.516 -0.1322  0.0036 -0.4081
12581TIP3    H137679   5.773   7.392   4.484 -1.1439  0.3631  1.6309
12581TIP3    H237680   5.831   7.329   4.609  0.8601 -1.6479 -0.2695
12582TIP3   OH237681   6.452   6.776   5.705 -0.3866 -0.2366 -0.4020
12582TIP3    H137682   6.362   6.753   5.728  0.1630 -0.7920  1.3010
12582TIP3    H237683   6.491   6.805   5.787  1.4829 -1.6647 -0.7465
12583TIP3   OH237684   5.298   5.721   5.122  0.6133 -0.3269 -0.0273
12583TIP3    H137685   5.255   5.699   5.039  0.7959 -0.3529 -0.1165
12583TIP3    H237686   5.342   5.639   5.147 -1.1612 -0.9479  1.1676
12584TIP3   OH237687   6.200   7.037   3.608 -0.1083 -0.0919 -0.1634
12584TIP3    H137688   6.216   7.123   3.646 -2.8565 -0.7450  2.6298
12584TIP3    H237689   6.287   6.999   3.595  0.9841  1.1307  3.2510
12585TIP3   OH237690   5.802   5.975   5.144 -0.3685  0.0453  0.4454
12585TIP3    H137691   5.819   5.922   5.067 -0.1936  1.4853 -0.5290
12585TIP3    H237692   5.747   5.920   5.200  1.6054 -2.0002  0.4709
12586TIP3   OH237693   6.394   6.608   5.386 -0.8820  0.2105 -0.2579
12586TIP3    H137694   6.472   6.599   5.332 -0.7368 -0.1755  0.0159
12586TIP3    H237695   6.365   6.518   5.403 -0.1052  0.2741  1.4981
12587TIP3   OH237696   5.608   6.956   6.144 -0.1607 -0.0411  0.0019
12587TIP3    H137697   5.514   6.949   6.132 -0.1049  0.5023 -0.8293
12587TIP3    H237698   5.619   7.012   6.221 -0.5206  0.7512 -0.5139
12588TIP3   OH237699   8.108   0.071   6.147 -0.0889 -0.9737  0.2467
12588TIP3    H137700   8.031   0.096   6.199  0.5393  1.8139 -0.0847
12588TIP3    H237701   8.081   0.085   6.056  0.8531  0.2394  0.1383
12589TIP3   OH237702   4.307   3.128   0.473  0.4224  0.1330  0.3440
12589TIP3    H137703   4.243   3.057   0.464  2.1698 -1.6662  1.7535
12589TIP3    H237704   4.344   3.116   0.560  2.5920  1.2219 -0.4007
12590TIP3   OH237705   7.811   4.297   5.177  0.7694 -0.3271  0.2004
12590TIP3    H137706   7.840   4.343   5.098 -0.9406  1.1556  0.3782
12590TIP3    H237707   7.811   4.365   5.245  0.3128 -1.1152  0.9934
12591TIP3   OH237708   5.429   7.379   5.308 -0.0219  0.0862  0.0906
12591TIP3    H137709   5.468   7.292   5.300 -0.1690  0.0194  0.1151
12591TIP3    H237710   5.335   7.364   5.306 -0.0708  0.0982  1.4674
12592TIP3   OH237711   4.780   5.209   4.863  0.2463 -0.0076 -0.2705
12592TIP3    H137712   4.694   5.178   4.894 -0.3782 -0.7022 -2.5960
12592TIP3    H237713   4.831   5.221   4.943 -1.9746  0.2809  1.1574
12593TIP3   OH237714   4.856   5.665   3.229 -0.6050 -0.5735 -0.5733
12593TIP3    H137715   4.813   5.584   3.200 -0.3432 -1.2981  1.0036
12593TIP3    H237716   4.803   5.696   3.302  0.2751 -0.2552 -0.0588
12594TIP3   OH237717   2.378   0.774   3.956 -0.3188 -0.2119 -0.1555
12594TIP3    H137718   2.403   0.695   4.003  1.2550  0.8207  0.7757
12594TIP3    H237719   2.326   0.824   4.018  1.6124  1.0725  0.4883
12595TIP3   OH237720   7.060   6.056   5.152  0.3061 -0.0285 -0.2551
12595TIP3    H137721   7.138   6.010   5.120  0.6114 -1.6427  2.6489
12595TIP3    H237722   6.990   5.990   5.148 -0.7496  1.1483 -1.9823
12596TIP3   OH237723   8.485   0.343   5.659  0.6235  0.0036  0.6706
12596TIP3    H137724   8.439   0.414   5.615 -0.8329 -0.3050  1.6667
12596TIP3    H237725   8.563   0.328   5.606 -0.6354  0.2505 -1.2893
12597TIP3   OH237726   7.094   7.955   6.199 -0.1505  0.8460 -0.2723
12597TIP3    H137727   7.178   7.940   6.156 -0.5773  1.0357 -1.1719
12597TIP3    H237728   7.036   7.985   6.129 -0.7106  1.6303  0.5239
12598TIP3   OH237729   4.640   7.427   6.099 -0.0496  0.1932 -0.5799
12598TIP3    H137730   4.655   7.343   6.141 -0.1140  0.0261 -0.8860
12598TIP3    H237731   4.669   7.492   6.163 -0.0084 -0.0615 -0.3404
12599TIP3   OH237732   5.237   6.179   6.138 -0.6871  0.0436 -0.2134
12599TIP3    H137733   5.248   6.233   6.216  0.1996  0.1671 -0.4126
12599TIP3    H237734   5.146   6.151   6.140 -0.6069 -0.1296  0.9759
12600TIP3   OH237735   0.872   0.313   6.121 -0.1589  0.5849  0.4860
12600TIP3    H137736   0.819   0.352   6.051  1.5161  2.0431 -0.0196
12600TIP3    H237737   0.851   0.365   6.199  0.2906  0.9829  0.3476
12601TIP3   OH237738   3.067   1.128   4.270  0.2662  0.0163  0.4555
12601TIP3    H137739   3.082   1.033   4.272  2.8714  0.4203  2.0412
12601TIP3    H237740   3.059   1.149   4.177 -0.9690 -1.8337  0.1217
12602TIP3   OH237741   5.566   6.632   5.042 -0.7143 -0.4120  0.3167
12602TIP3    H137742   5.561   6.727   5.056 -0.7496 -0.6157  1.7050
12602TIP3    H237743   5.475   6.604   5.034 -0.6894 -0.2768 -0.4685
12603TIP3   OH237744   4.210   5.652   3.764  0.0858  0.1249 -0.5535
12603TIP3    H137745   4.174   5.606   3.840  0.7823 -1.3196 -1.0832
12603TIP3    H237746   4.244   5.734   3.800 -1.8916  0.6149  0.2781
12604TIP3   OH237747   1.203   0.228   4.982 -0.3171 -0.1916  0.2621
12604TIP3    H137748   1.258   0.293   4.939  1.2903 -0.9308  1.1420
12604TIP3    H237749   1.262   0.156   5.002 -1.5895 -0.9660  1.3461
12605TIP3   OH237750   5.030   7.083   3.377 -0.1451  0.2821  0.0290
12605TIP3    H137751   5.070   7.142   3.313  1.5665 -0.1271  0.6921
12605TIP3    H237752   5.010   7.140   3.452  0.0959  0.2982  0.0800
12606TIP3   OH237753   1.643   2.389   4.086  0.6497  0.0170 -0.1426
12606TIP3    H137754   1.619   2.477   4.115  0.7450 -0.2512  0.7470
12606TIP3    H237755   1.655   2.339   4.166 -0.1284 -1.0130 -0.6563
12607TIP3   OH237756   6.467   5.980   4.778 -0.5110  0.2668 -0.3348
12607TIP3    H137757   6.425   5.995   4.693  0.4085  1.8175 -0.5296
12607TIP3    H237758   6.520   5.902   4.765  0.3180  0.9867 -1.4742
12608TIP3   OH237759   5.081   6.557   4.434 -0.4369 -0.3518  0.7226
12608TIP3    H137760   5.150   6.573   4.369  0.2122  0.6564  1.6362
12608TIP3    H237761   5.082   6.462   4.447 -0.0713 -0.4844 -0.1911
12609TIP3   OH237762   5.999   1.680   0.482  0.5806  0.0180  0.0155
12609TIP3    H137763   6.004   1.648   0.392 -0.2083 -0.1855  0.0455
12609TIP3    H237764   5.931   1.628   0.523 -1.1057  2.0713 -0.0975
12610TIP3   OH237765   4.645   5.153   4.310 -0.4962  0.1792  0.3566
12610TIP3    H137766   4.675   5.225   4.364 -0.2861  0.3962 -0.0445
12610TIP3    H237767   4.714   5.141   4.245 -0.6848 -0.1606  0.2139
12611TIP3   OH237768   7.720   7.886   6.846 -0.3590 -0.2135 -0.0114
12611TIP3    H137769   7.740   7.792   6.847  1.4413  0.0749 -2.3422
12611TIP3    H237770   7.744   7.916   6.933  1.3996 -1.5167  0.0041
12612TIP3   OH237771   5.949   5.777   3.787 -0.3363 -0.1556 -0.3610
12612TIP3    H137772   5.976   5.819   3.869  0.7851  0.4017 -0.9909
12612TIP3    H237773   5.860   5.807   3.773 -0.1733  0.5890  0.1275
12613TIP3   OH237774   7.674   6.644   6.085  0.1237  0.1805 -0.3428
12613TIP3    H137775   7.583   6.653   6.112  0.2514 -1.8728  0.8761
12613TIP3    H237776   7.723   6.641   6.168  0.9306 -2.0083 -0.8506
12614TIP3   OH237777   6.166   7.993   6.532  0.1492  0.2371  0.1370
12614TIP3    H137778   6.112   7.953   6.464 -1.3272 -2.1209  2.5936
12614TIP3    H237779   6.256   7.971   6.508 -0.5474 -3.7712  0.7914
12615TIP3   OH237780   2.444   1.098   6.084  0.0310 -0.3086  0.2946
12615TIP3    H137781   2.393   1.021   6.058  0.9063 -1.0132  0.6374
12615TIP3    H237782   2.379   1.167   6.095 -0.7823 -1.0359  0.1282
12616TIP3   OH237783   1.171   0.843   5.901 -0.8319  0.1428 -0.1105
12616TIP3    H137784   1.182   0.769   5.961 -1.3052  0.7305  0.7084
12616TIP3    H237785   1.239   0.905   5.927 -0.2190 -0.1444 -1.0161
12617TIP3   OH237786   7.091   7.010   6.476 -0.0289  0.1080  0.2993
12617TIP3    H137787   7.085   7.100   6.444 -0.8119  0.1553  0.5890
12617TIP3    H237788   7.153   6.968   6.415 -0.0926  0.6864 -0.1720
12618TIP3   OH237789   6.525   5.110   5.004  0.4220 -0.2946 -0.6062
12618TIP3    H137790   6.446   5.152   5.038 -0.1334 -0.2695 -1.8685
12618TIP3    H237791   6.492   5.033   4.957  1.4172 -2.0825  1.5545
12619TIP3   OH237792   3.945   6.821   5.262  0.5446  0.3907  0.2963
12619TIP3    H137793   3.927   6.733   5.231  0.8956  1.0862 -1.9271
12619TIP3    H237794   3.912   6.879   5.193 -1.6263  2.0982  2.6393
12620TIP3   OH237795   6.510   7.219   5.770 -0.0947 -0.2455  0.2888
12620TIP3    H137796   6.566   7.196   5.696  0.6036  0.5947  0.5403
12620TIP3    H237797   6.421   7.202   5.740  0.1811  0.1567 -0.7784
12621TIP3   OH237798   6.865   7.738   4.525 -0.1828 -0.4607  0.0122
12621TIP3    H137799   6.959   7.727   4.537  0.0632  0.6880 -0.8431
12621TIP3    H237800   6.826   7.676   4.588  1.1225 -0.3490  0.9553
12622TIP3   OH237801   5.784   4.442   5.286 -0.3838  0.3426  0.0113
12622TIP3    H137802   5.693   4.413   5.282 -0.0573 -0.6655 -0.2072
12622TIP3    H237803   5.834   4.361   5.299  0.4317  0.9500  0.7158
12623TIP3   OH237804   4.066   1.493   1.146 -0.2715 -0.1282  0.2484
12623TIP3    H137805   4.102   1.510   1.232  0.7096  0.7404 -0.3254
12623TIP3    H237806   4.085   1.400   1.130 -0.7828 -0.3873  1.1065
12624TIP3   OH237807   6.517   7.326   4.388  0.7013 -0.1410  0.0925
12624TIP3    H137808   6.533   7.275   4.309 -0.0426  0.3493 -0.3811
12624TIP3    H237809   6.487   7.262   4.452  0.4126 -0.4098 -0.3030
12625TIP3   OH237810   3.362   4.823   5.081  0.0323 -0.0440 -0.0364
12625TIP3    H137811   3.273   4.795   5.061 -0.2126  1.6117 -1.4537
12625TIP3    H237812   3.361   4.918   5.067  1.3754  0.3877  2.4375
12626TIP3   OH237813   6.410   6.981   5.051 -0.2661 -0.1878  0.0553
12626TIP3    H137814   6.437   6.919   5.118 -0.2843 -1.1175 -0.7745
12626TIP3    H237815   6.321   6.955   5.029  0.1469 -0.6387 -1.1443
12627TIP3   OH237816   7.185   7.236   6.250 -0.8526  0.0359  0.0805
12627TIP3    H137817   7.147   7.314   6.290 -0.2877 -0.0360  0.7889
12627TIP3    H237818   7.190   7.256   6.157  0.4257  1.3346  0.4102
12628TIP3   OH237819   7.838   7.719   3.646  0.2542 -0.5172  0.3962
12628TIP3    H137820   7.763   7.667   3.674  0.7453 -1.7351 -0.5408
12628TIP3    H237821   7.911   7.659   3.648  0.9903  0.3576  0.1197
12629TIP3   OH237822   1.879   2.671   2.362  0.1661  0.5735  0.4568
12629TIP3    H137823   1.796   2.709   2.389 -0.5134 -1.1575  0.8732
12629TIP3    H237824   1.923   2.650   2.445  0.7303  0.8741  0.2348
12630TIP3   OH237825   4.682   7.216   3.670 -0.8166 -0.3925  0.0409
12630TIP3    H137826   4.774   7.192   3.671 -0.0617  2.3495 -0.6566
12630TIP3    H237827   4.666   7.253   3.757 -0.5025  1.7611 -0.7910
12631TIP3   OH237828   6.377   5.500   5.942  0.3127 -0.1268 -0.1637
12631TIP3    H137829   6.412   5.466   5.859  0.8474  0.6249 -0.2628
12631TIP3    H237830   6.300   5.447   5.960 -0.1311  0.0574 -1.4433
12632TIP3   OH237831   2.416   0.741   6.570  1.1273  0.3917  0.1433
12632TIP3    H137832   2.334   0.719   6.614  0.3160  0.5571 -1.2571
12632TIP3    H237833   2.476   0.672   6.596  0.4148  0.0263  0.8350
12633TIP3   OH237834   1.665   1.493   4.463  0.2731 -0.0014  0.3702
12633TIP3    H137835   1.689   1.421   4.405 -2.7261 -0.3148 -0.5353
12633TIP3    H237836   1.683   1.572   4.412 -0.9231 -0.2417 -0.4451
12634TIP3   OH237837   6.781   5.013   3.269 -0.4780  0.5239  0.5498
12634TIP3    H137838   6.856   5.049   3.222  0.4202 -0.5893  1.0956
12634TIP3    H237839   6.715   4.999   3.201  0.4725 -0.1999 -0.2529
12635TIP3   OH237840   6.196   6.442   3.992 -0.0046 -0.3088  0.1334
12635TIP3    H137841   6.167   6.382   3.924  0.1039 -0.1280 -0.0730
12635TIP3    H237842   6.116   6.461   4.043  0.0634 -1.0095  0.5018
12636TIP3   OH237843   6.577   7.177   4.954 -0.0774  0.6746 -0.1530
12636TIP3    H137844   6.652   7.120   4.971 -0.8096 -0.1073  0.5190
12636TIP3    H237845   6.504   7.134   4.998 -0.5402  2.4139  0.8339
12637TIP3   OH237846   2.259   5.591   4.407 -0.5106 -0.2093  0.4295
12637TIP3    H137847   2.215   5.662   4.360  0.5258  0.8830  1.0908
12637TIP3    H237848   2.271   5.624   4.496 -1.5984 -1.8943  1.2269
12638TIP3   OH237849   6.501   6.285   4.464 -0.7740  0.4278 -0.2317
12638TIP3    H137850   6.419   6.321   4.431 -1.2660  0.9934  1.5514
12638TIP3    H237851   6.518   6.333   4.545  1.9135  1.1199 -1.1455
12639TIP3   OH237852   7.923   5.934   5.025  0.3159 -0.2012  0.1171
12639TIP3    H137853   7.971   5.939   4.943  0.9742 -1.3358  0.4220
12639TIP3    H237854   7.908   5.840   5.038 -2.2316  0.1484 -0.1090
12640TIP3   OH237855   6.974   5.599   3.409 -0.2682  0.0339 -0.3443
12640TIP3    H137856   6.919   5.520   3.405  0.0060 -0.1855  0.2299
12640TIP3    H237857   6.911   5.671   3.415 -0.5045 -0.1978  0.0062
12641TIP3   OH237858   6.981   6.995   5.173 -0.5494  0.3910  0.2839
12641TIP3    H137859   6.978   6.942   5.093 -2.7979  2.1350 -0.8434
12641TIP3    H237860   7.034   7.071   5.149 -0.5828  0.5438  0.6936
12642TIP3   OH237861   6.387   5.423   4.001 -0.0636 -0.0221  0.6257
12642TIP3    H137862   6.395   5.362   3.928 -1.1860 -1.1729  1.4469
12642TIP3    H237863   6.408   5.509   3.963  3.3414 -1.1063 -0.1301
12643TIP3   OH237864   6.222   7.177   5.750 -0.2950 -0.1355  0.1227
12643TIP3    H137865   6.216   7.174   5.846  0.1916  1.2408  0.2091
12643TIP3    H237866   6.179   7.259   5.726 -0.5014 -0.5232 -0.8554
12644TIP3   OH237867   5.424   7.767   5.503 -0.5159 -0.0245 -0.2859
12644TIP3    H137868   5.485   7.716   5.450 -1.7016 -0.8800 -0.8515
12644TIP3    H237869   5.364   7.807   5.439  0.1725  1.7913  0.1765
12645TIP3   OH237870   8.062   6.081   6.084 -0.0389 -0.3613  0.0786
12645TIP3    H137871   8.085   5.993   6.113  0.0996 -0.8354 -1.4452
12645TIP3    H237872   8.047   6.129   6.165  2.5479 -1.0420  1.0254
12646TIP3   OH237873   8.277   5.343   5.652 -0.6034  0.4343  0.1626
12646TIP3    H137874   8.286   5.436   5.675 -0.2041  0.4455 -0.0355
12646TIP3    H237875   8.337   5.298   5.711 -1.5200  0.1969  0.9348
12647TIP3   OH237876   6.227   5.006   6.380  0.4625  0.2017  0.1234
12647TIP3    H137877   6.181   5.070   6.325  1.1259  1.9792  1.5756
12647TIP3    H237878   6.213   4.922   6.336 -2.1164  1.0468 -0.7535
12648TIP3   OH237879   8.385   0.162   6.184 -0.6073  0.1922 -0.2902
12648TIP3    H137880   8.398   0.221   6.110 -1.2223  0.4654 -0.1890
12648TIP3    H237881   8.300   0.121   6.167 -0.0206 -0.9423 -0.5511
12649TIP3   OH237882   8.122   7.515   5.544 -0.0020  0.5141 -0.0170
12649TIP3    H137883   8.088   7.490   5.458  0.4427  2.4048 -0.7598
12649TIP3    H237884   8.052   7.490   5.605 -0.8730  0.3500 -1.0580
12650TIP3   OH237885   7.653   6.001   3.091  0.1290 -0.2926 -0.5108
12650TIP3    H137886   7.660   6.064   3.019 -0.1490  1.3153  0.8332
12650TIP3    H237887   7.628   5.919   3.049 -0.5007  0.7352 -2.1877
12651TIP3   OH237888   2.895   5.714   5.491 -0.3472 -1.0794  0.1797
12651TIP3    H137889   2.966   5.772   5.464 -3.8087  2.3508 -2.2579
12651TIP3    H237890   2.899   5.641   5.429 -0.1648  0.1531 -1.3013
12652TIP3   OH237891   6.221   7.470   2.418 -0.0011 -0.4264  0.4989
12652TIP3    H137892   6.273   7.480   2.337  0.2521  0.5591  0.7765
12652TIP3    H237893   6.282   7.494   2.488 -0.7280  0.3786  0.8567
12653TIP3   OH237894   5.932   6.150   5.548  0.3165  0.5162 -0.2967
12653TIP3    H137895   5.929   6.170   5.454 -3.6339 -0.9975 -0.5678
12653TIP3    H237896   5.979   6.066   5.553 -0.0086  0.2912 -0.9862
12654TIP3   OH237897   0.286   0.264   6.005  0.1532 -0.0161  0.1060
12654TIP3    H137898   0.201   0.261   6.048 -0.4398 -0.7368 -1.0862
12654TIP3    H237899   0.337   0.194   6.046  0.0960  0.2730  0.6673
12655TIP3   OH237900   4.649   2.324   0.467 -0.5076 -0.5399  0.0462
12655TIP3    H137901   4.600   2.368   0.397  1.9229  0.4565 -1.0593
12655TIP3    H237902   4.705   2.262   0.421  1.1372  0.1477  1.1074
12656TIP3   OH237903   0.101   0.668   6.652 -0.7930  0.2277 -0.2224
12656TIP3    H137904   0.158   0.722   6.707 -0.5140 -0.6794  0.3946
12656TIP3    H237905   0.154   0.650   6.574 -0.6744  0.3729 -0.1768
12657TIP3   OH237906   5.923   7.339   5.579  0.5083  0.1918  0.2673
12657TIP3    H137907   5.971   7.256   5.567  0.3659  0.3911 -1.8825
12657TIP3    H237908   5.991   7.401   5.606  0.5922 -0.6471  2.0421
12658TIP3   OH237909   1.253   5.551   5.753 -0.9946 -0.4129 -0.0115
12658TIP3    H137910   1.162   5.546   5.785 -0.9432 -0.3751  0.1390
12658TIP3    H237911   1.265   5.644   5.730 -1.1226 -0.4942 -0.4077
12659TIP3   OH237912   5.722   7.640   4.071 -0.4721 -0.5911  0.5384
12659TIP3    H137913   5.628   7.624   4.065 -1.2415  3.4089 -0.1120
12659TIP3    H237914   5.747   7.669   3.983  0.7418  1.0945  1.3976
12660TIP3   OH237915   5.539   6.953   4.958 -0.0754 -0.7611  0.2983
12660TIP3    H137916   5.599   6.899   4.906 -0.1281 -0.4701 -0.0702
12660TIP3    H237917   5.532   7.035   4.908 -1.1205 -0.9531  0.1191
12661TIP3   OH237918   6.576   6.212   4.856  0.1049  0.3843  0.5532
12661TIP3    H137919   6.547   6.129   4.818 -1.7704  1.1107  0.3621
12661TIP3    H237920   6.523   6.223   4.935 -0.5460  1.9715 -0.0652
12662TIP3   OH237921   5.697   3.483   1.066  0.0576 -0.1162  0.5675
12662TIP3    H137922   5.743   3.562   1.039 -1.1785  0.7151  0.8107
12662TIP3    H237923   5.635   3.465   0.995  0.5992 -1.0882  0.3352
12663TIP3   OH237924   3.908   7.512   4.193  0.1023 -0.4898  0.0209
12663TIP3    H137925   3.951   7.430   4.218 -0.3841 -0.7268  0.0761
12663TIP3    H237926   3.895   7.558   4.276  1.3298  0.1168 -0.1082
12664TIP3   OH237927   3.671   2.631   0.430  0.2089 -0.0215  0.3965
12664TIP3    H137928   3.669   2.538   0.453  2.3368 -0.1609  0.0867
12664TIP3    H237929   3.665   2.676   0.515  0.8995 -0.4700  0.6917
12665TIP3   OH237930   3.929   2.681   4.048  0.5425 -0.9201 -0.0618
12665TIP3    H137931   3.864   2.614   4.027 -0.7020  0.6567 -1.3655
12665TIP3    H237932   4.012   2.634   4.048 -0.5955 -3.0408  1.9445
12666TIP3   OH237933   5.952   6.152   5.276  0.4267  0.2516 -0.3422
12666TIP3    H137934   5.881   6.099   5.239 -0.1909  0.3446  0.6781
12666TIP3    H237935   6.028   6.132   5.222 -0.4769  0.4656 -1.7190
12667TIP3   OH237936   5.557   6.699   6.067 -0.3552  0.0453  0.0869
12667TIP3    H137937   5.496   6.730   6.000  0.2999 -0.2422 -0.6599
12667TIP3    H237938   5.513   6.625   6.107  0.0004 -0.9521 -1.3093
12668TIP3   OH237939   5.732   1.486   0.189  0.3790  0.3550 -0.3566
12668TIP3    H137940   5.652   1.468   0.138  1.1455  2.1492 -2.2698
12668TIP3    H237941   5.722   1.577   0.216  0.7695 -0.0922  1.2930
12669TIP3   OH237942   0.214   0.028   2.683  0.0336  0.1317  0.2262
12669TIP3    H137943   0.292   0.057   2.636  0.9066 -0.1713  1.4663
12669TIP3    H237944   0.235   0.044   2.775 -1.3890  0.0879  0.5608
12670TIP3   OH237945   1.019   1.078   0.025  0.0607  0.1456 -0.3492
12670TIP3    H137946   0.968   1.034  -0.043 -0.1547  1.3314 -0.9751
12670TIP3    H237947   1.017   1.018   0.099 -0.3622 -0.8157 -1.1276
12671TIP3   OH237948   6.003   6.390   5.049  0.4421  0.0782  0.0053
12671TIP3    H137949   5.960   6.309   5.024 -0.3571  0.8421 -1.1733
12671TIP3    H237950   5.938   6.437   5.101  0.3164  0.6396 -0.6402
12672TIP3   OH237951   6.153   5.259   5.323  0.5153  0.2331 -0.1982
12672TIP3    H137952   6.075   5.238   5.375  0.6705 -1.7502 -0.6956
12672TIP3    H237953   6.223   5.209   5.364  1.7299  2.5985  0.7017
12673TIP3   OH237954   6.209   6.523   5.169  0.0377  0.2094 -0.3425
12673TIP3    H137955   6.144   6.464   5.132 -0.4634  0.7815 -0.3947
12673TIP3    H237956   6.263   6.468   5.225 -0.4867 -0.2765 -0.3130
12674TIP3   OH237957   7.439   7.624   2.766 -0.1267 -0.1437 -0.4010
12674TIP3    H137958   7.345   7.618   2.748 -0.3901 -0.7674  1.0958
12674TIP3    H237959   7.453   7.715   2.793 -0.0675  0.2797 -1.8161
12675TIP3   OH237960   2.644   7.996   4.057  0.2865  0.4290  0.5759
12675TIP3    H137961   2.737   7.979   4.071  0.1620 -1.5635 -0.7788
12675TIP3    H237962   2.604   7.909   4.056 -1.3555  1.1747 -0.4854
12676TIP3   OH237963   5.951   7.390   3.488 -0.0257 -0.2145  0.6493
12676TIP3    H137964   6.027   7.339   3.459  1.2613  2.3620 -0.6558
12676TIP3    H237965   5.878   7.329   3.479  1.3982 -1.7335 -1.2324
12677TIP3   OH237966   4.775   6.734   4.728 -0.4544 -0.1123  0.6875
12677TIP3    H137967   4.832   6.747   4.805  0.2903 -1.0768  0.3187
12677TIP3    H237968   4.836   6.733   4.654 -0.9710 -1.0210  0.2734
12678TIP3   OH237969   5.168   5.773   5.406 -0.0214  0.6500 -0.0842
12678TIP3    H137970   5.146   5.682   5.385 -0.4256  0.7169  0.0450
12678TIP3    H237971   5.216   5.804   5.330 -0.0129  0.3717 -0.1929
12679TIP3   OH237972   7.531   6.739   5.149 -0.0312 -0.0633  0.2485
12679TIP3    H137973   7.441   6.731   5.118 -0.1314 -1.4627  0.8857
12679TIP3    H237974   7.569   6.652   5.136  0.4056 -0.2380  2.4953
12680TIP3   OH237975   6.363   5.747   5.823 -0.4872 -0.3362  0.5659
12680TIP3    H137976   6.445   5.793   5.844 -0.4435  0.7863 -1.9041
12680TIP3    H237977   6.371   5.664   5.869  1.5356  0.2212  1.3188
12681TIP3   OH237978   7.867   6.274   5.784  0.4467 -0.7714 -0.9380
12681TIP3    H137979   7.950   6.290   5.738  2.1356 -0.0503  2.2284
12681TIP3    H237980   7.857   6.350   5.841 -2.8361 -0.4847 -1.8263
12682TIP3   OH237981   5.547   6.710   6.859 -0.1609 -0.0622  0.3356
12682TIP3    H137982   5.567   6.651   6.786  0.3408  0.2947  0.1849
12682TIP3    H237983   5.627   6.711   6.912  0.3974  1.7440 -0.5172
12683TIP3   OH237984   8.351   7.036   5.834 -0.8000 -0.2188 -0.1736
12683TIP3    H137985   8.423   7.046   5.896 -2.8690 -0.0323  2.2376
12683TIP3    H237986   8.327   6.943   5.840  0.0405 -0.5878 -1.9476
12684TIP3   OH237987   0.502   7.881   3.659 -0.0853  0.1752  0.3337
12684TIP3    H137988   0.533   7.864   3.748  0.2709 -1.3072 -0.0594
12684TIP3    H237989   0.417   7.837   3.655  0.3387 -0.5824 -0.3549
12685TIP3   OH237990   0.965   6.768   4.576  0.2690  0.3746 -0.2501
12685TIP3    H137991   0.893   6.830   4.579 -0.4373 -0.4019 -0.9119
12685TIP3    H237992   1.016   6.794   4.499  0.9421  1.1780  0.4542
12686TIP3   OH237993   6.953   4.809   6.212  0.0897 -0.2421  0.5905
12686TIP3    H137994   6.887   4.878   6.200  0.2473 -0.3019 -0.7884
12686TIP3    H237995   6.930   4.744   6.146  2.5635  0.5568 -1.1415
12687TIP3   OH237996   7.453   6.842   2.665 -0.0236  0.4992 -0.2988
12687TIP3    H137997   7.530   6.798   2.629  1.5769  1.7392  1.5321
12687TIP3    H237998   7.480   6.933   2.678 -0.8945  0.3838  2.8352
12688TIP3   OH237999   6.778   7.025   3.614 -0.5559 -0.1417 -0.6916
12688TIP3    H138000   6.729   6.955   3.656 -1.1070 -0.6139 -2.0898
12688TIP3    H238001   6.840   7.055   3.681 -1.3377 -0.9398  0.3993
12689TIP3   OH238002   0.607   6.994   5.429  0.7092 -0.0719  0.5638
12689TIP3    H138003   0.560   7.071   5.397 -1.6235 -1.4633  0.5172
12689TIP3    H238004   0.659   6.963   5.354  0.8957  0.8752  0.3031
12690TIP3   OH238005   1.110   7.574   4.879 -0.4479  0.5319 -0.1098
12690TIP3    H138006   1.052   7.647   4.856  0.2982  0.9612 -0.6525
12690TIP3    H238007   1.134   7.590   4.970 -1.3472  0.2302  0.1937
12691TIP3   OH238008   0.418   7.383   3.593  0.0978 -0.2453 -0.7154
12691TIP3    H138009   0.381   7.318   3.653  0.6985  0.1171  0.0407
12691TIP3    H238010   0.341   7.422   3.551 -0.3669  0.2408  0.5857
12692TIP3   OH238011   2.559   0.672   2.037  0.2625 -0.6088 -0.0163
12692TIP3    H138012   2.551   0.760   1.999 -0.8486 -0.0741  1.3903
12692TIP3    H238013   2.606   0.621   1.971 -0.3653  0.6641 -1.4785
12693TIP3   OH238014   1.256   6.821   3.588  0.3704 -0.7629  0.1240
12693TIP3    H138015   1.345   6.836   3.620  0.4262  0.1292 -0.4266
12693TIP3    H238016   1.224   6.748   3.641  1.9334 -2.0367 -0.6507
12694TIP3   OH238017   6.280   1.127   0.469  0.3955 -0.1511  0.1410
12694TIP3    H138018   6.345   1.129   0.539  2.0757  1.7168 -1.4418
12694TIP3    H238019   6.328   1.149   0.390 -2.1582  1.2909 -1.0763
12695TIP3   OH238020   6.691   7.753   4.285  0.6075 -0.5073 -0.7006
12695TIP3    H138021   6.683   7.661   4.310 -2.0076  0.4367  2.1860
12695TIP3    H238022   6.764   7.786   4.336 -0.7519 -0.1276  1.0331
12696TIP3   OH238023   6.641   7.567   6.294  0.8739 -0.3944 -0.6215
12696TIP3    H138024   6.587   7.492   6.269  0.9453  0.3258 -3.0651
12696TIP3    H238025   6.592   7.643   6.264  1.3914  0.4998  0.7357
12697TIP3   OH238026   1.612   0.950   2.807 -0.6867  0.3857 -0.2149
12697TIP3    H138027   1.638   0.969   2.897  0.6486  1.7411 -0.8726
12697TIP3    H238028   1.529   0.903   2.815 -2.6978  4.0311  1.5849
12698TIP3   OH238029   7.095   7.723   2.951 -0.1774  0.6563  0.0223
12698TIP3    H138030   7.004   7.717   2.922 -0.4502 -1.1620  1.2396
12698TIP3    H238031   7.126   7.633   2.956  0.7957  1.0784  2.4465
12699TIP3   OH238032   0.367   6.650   5.568  0.2837  0.0335 -0.1471
12699TIP3    H138033   0.346   6.557   5.578  0.3875 -0.1758 -1.8461
12699TIP3    H238034   0.288   6.695   5.598 -0.5994 -0.6465 -1.3873
12700TIP3   OH238035   6.434   2.639   0.190 -0.4613  0.0852  0.2437
12700TIP3    H138036   6.427   2.693   0.269 -2.6856 -1.7154  1.3118
12700TIP3    H238037   6.345   2.609   0.173  0.1338 -0.2779 -2.4720
12701TIP3   OH238038   6.030   7.498   2.628  0.0122 -0.3702 -0.4393
12701TIP3    H138039   6.077   7.466   2.552 -2.4043 -2.4702 -1.1294
12701TIP3    H238040   6.002   7.419   2.674 -0.4634  0.8495  1.4430
12702TIP3   OH238041   6.516   7.524   5.810  0.6829  0.0878  0.1414
12702TIP3    H138042   6.549   7.434   5.812  1.4781  0.3474 -0.9758
12702TIP3    H238043   6.508   7.548   5.903 -0.7476 -1.5466  0.4677
12703TIP3   OH238044   2.998   0.659   3.540 -0.0778  0.5226  0.0141
12703TIP3    H138045   3.087   0.680   3.511  0.0446 -1.2991 -1.0159
12703TIP3    H238046   3.011   0.604   3.617 -0.3309  0.3826 -0.0465
12704TIP3   OH238047   4.036   0.071   4.827 -0.1031  0.2536  0.3098
12704TIP3    H138048   4.016   0.029   4.911  0.3603 -0.0761  0.2590
12704TIP3    H238049   4.082   0.004   4.777  0.3413  0.7099  0.0964
12705TIP3   OH238050   0.367   7.368   5.051  0.4552 -0.0432  0.0273
12705TIP3    H138051   0.437   7.307   5.072  0.3495 -0.0671  0.3138
12705TIP3    H238052   0.301   7.352   5.118  0.2177  0.0451 -0.1856
12706TIP3   OH238053   7.681   6.158   5.994  0.3894 -0.3855  0.1221
12706TIP3    H138054   7.746   6.190   5.931  0.1762 -1.6791 -0.7723
12706TIP3    H238055   7.722   6.173   6.080  0.5243  1.7178 -0.2880
12707TIP3   OH238056   6.650   7.937   2.181 -0.6822  0.3784  0.2580
12707TIP3    H138057   6.736   7.978   2.192 -0.4223 -0.1945  0.3887
12707TIP3    H238058   6.644   7.918   2.088 -1.2069  1.5858  0.0405
12708TIP3   OH238059   7.397   6.577   6.611 -0.3721  0.5180  0.5629
12708TIP3    H138060   7.474   6.520   6.614 -1.0399 -0.4024  0.1553
12708TIP3    H238061   7.383   6.594   6.518 -1.8262 -0.9151  0.4961
12709TIP3   OH238062   7.111   6.959   6.776 -0.7324 -0.3007 -0.1113
12709TIP3    H138063   7.178   7.028   6.782 -0.9284 -0.1788  0.6700
12709TIP3    H238064   7.074   6.970   6.688 -1.3741  1.1647  0.3287
12710TIP3   OH238065   2.888   1.527   1.203 -0.1616  0.1691  0.0645
12710TIP3    H138066   2.854   1.451   1.249  2.4534 -0.9722  0.1863
12710TIP3    H238067   2.899   1.594   1.271 -0.7442  0.0702  0.2609
12711TIP3   OH238068   0.029   5.952   6.381  0.3663 -0.5179  0.7568
12711TIP3    H138069   0.049   6.005   6.458 -0.5991 -0.6669  1.1217
12711TIP3    H238070   0.017   5.863   6.415 -1.0309 -0.4030  0.5761
12712TIP3   OH238071   7.710   7.035   4.425  0.2248 -0.4855 -0.3568
12712TIP3    H138072   7.685   7.078   4.507  0.0600 -1.3798  0.0701
12712TIP3    H238073   7.682   7.096   4.356  0.0918  0.1348  0.2394
12713TIP3   OH238074   1.438   7.145   2.755  0.2416 -0.4084  0.6653
12713TIP3    H138075   1.419   7.092   2.678  1.6944  1.6420 -1.1564
12713TIP3    H238076   1.505   7.095   2.803 -0.3615 -1.4796  0.3968
12714TIP3   OH238077   7.526   7.324   3.989 -0.1435 -0.2328  0.1147
12714TIP3    H138078   7.449   7.350   3.937 -0.5678  0.0416  0.8803
12714TIP3    H238079   7.564   7.250   3.940  0.1091  0.7490 -1.1830
12715TIP3   OH238080   0.073   7.842   3.531  0.0329 -0.1355 -0.2107
12715TIP3    H138081   0.052   7.788   3.455  0.8667 -2.1756  0.9588
12715TIP3    H238082   0.161   7.813   3.557 -0.4050  0.2365  1.7647
12716TIP3   OH238083   8.365   6.247   4.286 -0.3476 -0.1005  0.1934
12716TIP3    H138084   8.410   6.192   4.350  0.8913  0.1917 -0.4125
12716TIP3    H238085   8.298   6.294   4.337  0.3900 -0.1366  1.2024
12717TIP3   OH238086   2.737   0.075   1.879  0.2400 -0.7524  0.1146
12717TIP3    H138087   2.730   0.137   1.951  0.1678 -0.1078 -0.4509
12717TIP3    H238088   2.748  -0.010   1.922 -1.4625 -0.5932  0.9153
12718TIP3   OH238089   6.371   7.144   4.583  0.0389 -0.5354  0.4837
12718TIP3    H138090   6.300   7.199   4.616  0.7061  1.0431 -0.6948
12718TIP3    H238091   6.357   7.059   4.625 -0.5179  0.7508  2.9586
12719TIP3   OH238092   7.059   6.631   4.648 -0.0910 -0.1569  0.5341
12719TIP3    H138093   6.977   6.593   4.678  0.4785 -0.0462  2.3113
12719TIP3    H238094   7.076   6.590   4.563 -1.5440 -0.7946  0.5526
12720TIP3   OH238095   1.497   0.323   6.474 -0.6914  0.0142  0.1089
12720TIP3    H138096   1.502   0.228   6.463 -0.6935  0.1806 -1.4946
12720TIP3    H238097   1.589   0.352   6.478 -0.6725  0.0918 -0.8399
12721TIP3   OH238098   7.534   4.430   6.096  0.0615  0.1418  0.0605
12721TIP3    H138099   7.523   4.519   6.127 -2.1286 -0.7282  1.9697
12721TIP3    H238100   7.609   4.396   6.144  1.4144  1.1830 -1.2812
12722TIP3   OH238101   8.378   5.780   2.112 -0.0694  0.5411  0.0434
12722TIP3    H138102   8.413   5.854   2.063 -0.0606  1.6834  1.7671
12722TIP3    H238103   8.390   5.803   2.204  1.3061 -2.2602  0.6079
12723TIP3   OH238104   8.295   7.950   3.846 -0.0602  0.0407 -0.8578
12723TIP3    H138105   8.357   7.885   3.813 -2.1025 -2.4073 -0.0126
12723TIP3    H238106   8.218   7.899   3.873 -0.2381  2.3436  3.4936
12724TIP3   OH238107   7.590   7.804   4.036 -0.1068 -0.3764  0.2034
12724TIP3    H138108   7.543   7.784   3.955  0.3829 -2.4935  0.4039
12724TIP3    H238109   7.590   7.721   4.084  0.2153  0.6799  2.0608
12725TIP3   OH238110   7.432   7.738   3.564  0.1615  0.2866 -0.4164
12725TIP3    H138111   7.471   7.824   3.549  0.6805  0.3155  1.0368
12725TIP3    H238112   7.495   7.676   3.526  0.9628  0.4192  0.6696
12726TIP3   OH238113   2.044   0.054   5.887  0.1555  0.6330 -0.4168
12726TIP3    H138114   2.097   0.043   5.965 -0.6172 -1.3372 -0.1441
12726TIP3    H238115   1.978  -0.015   5.893  0.4067  0.1069 -3.0406
12727TIP3   OH238116   3.872   0.339   5.705  0.7161 -0.2128 -0.1876
12727TIP3    H138117   3.806   0.401   5.675  1.2745 -0.2203 -1.4553
12727TIP3    H238118   3.925   0.389   5.768 -0.5907 -0.2613  0.9781
12728TIP3   OH238119   7.760   5.380   5.544  0.6746 -0.1427 -0.1734
12728TIP3    H138120   7.796   5.463   5.513 -0.9103 -0.2627 -2.4054
12728TIP3    H238121   7.724   5.402   5.630  1.0383  1.2619 -0.3500
12729TIP3   OH238122  -0.021   7.305   4.036  0.7975  0.0435  0.0679
12729TIP3    H138123   0.016   7.218   4.052  1.7521  0.7823  2.1034
12729TIP3    H238124   0.055   7.361   4.024  0.2281  0.9385  0.6411
12730TIP3   OH238125   7.577   6.764   3.891  0.1465 -0.1055 -0.0753
12730TIP3    H138126   7.580   6.763   3.987 -0.5555  0.0693 -0.0518
12730TIP3    H238127   7.499   6.815   3.870  0.4215  0.0424 -0.7457
12731TIP3   OH238128   5.825   5.238   4.136  0.4229  0.2337 -0.6571
12731TIP3    H138129   5.763   5.274   4.199  0.4920 -0.4987 -0.1598
12731TIP3    H238130   5.793   5.268   4.051  0.7773  1.8808 -0.2267
12732TIP3   OH238131   6.804   6.601   1.749 -0.5659  0.0584  0.1781
12732TIP3    H138132   6.758   6.588   1.832 -2.0391 -0.6887 -0.7329
12732TIP3    H238133   6.749   6.662   1.700  0.0510  0.1423 -0.4192
12733TIP3   OH238134   1.103   6.841   6.186  0.3025  0.4090 -0.5036
12733TIP3    H138135   1.054   6.762   6.207  0.2146  1.1021  2.0984
12733TIP3    H238136   1.143   6.823   6.101  1.4386 -2.9915  0.6925
12734TIP3   OH238137   1.613   6.495   4.074 -0.5078  0.0033  0.1193
12734TIP3    H138138   1.559   6.540   4.008 -0.0203 -0.7038 -0.7842
12734TIP3    H238139   1.702   6.499   4.039 -0.3053 -0.7375  0.5339
12735TIP3   OH238140   1.772   1.001   2.115 -0.0461  0.5188 -0.0351
12735TIP3    H138141   1.767   0.999   2.020 -1.3258 -3.4067  0.0143
12735TIP3    H238142   1.865   1.013   2.134  0.6217 -1.4953 -1.8315
12736TIP3   OH238143   5.996   7.738   2.740 -0.2932 -0.0573  0.2024
12736TIP3    H138144   6.081   7.740   2.783  0.7397  2.1713 -1.8144
12736TIP3    H238145   6.002   7.663   2.680 -0.5450 -1.1428  1.4934
12737TIP3   OH238146   7.774   7.679   5.255 -0.6270 -0.2153 -0.1670
12737TIP3    H138147   7.732   7.681   5.341 -1.4543 -1.9031 -0.5185
12737TIP3    H238148   7.721   7.738   5.201 -1.0299 -0.3693  0.0626
12738TIP3   OH238149   0.921   7.761   4.795 -0.0796  0.3486  0.6368
12738TIP3    H138150   0.850   7.815   4.829 -1.0778 -0.8333  0.4521
12738TIP3    H238151   0.895   7.741   4.705  1.2815  1.2648  0.0228
12739TIP3   OH238152   7.884   6.630   4.360 -0.0993  0.0737 -0.3103
12739TIP3    H138153   7.945   6.564   4.392 -0.5451  0.0188  0.4213
12739TIP3    H238154   7.933   6.678   4.293  0.0954 -1.2528 -1.1168
12740TIP3   OH238155   6.210   7.382   3.992 -0.3960 -0.0455  0.3069
12740TIP3    H138156   6.238   7.431   4.069 -0.2660  1.1376 -0.4676
12740TIP3    H238157   6.135   7.330   4.021  1.4120 -1.7880  1.9258
12741TIP3   OH238158   7.707   6.684   3.046 -0.5813  0.5020 -0.2076
12741TIP3    H138159   7.686   6.742   3.119  0.3304  0.2211  0.2813
12741TIP3    H238160   7.630   6.687   2.990 -0.4670  2.3281 -0.2800
12742TIP3   OH238161   4.046   0.221   2.360 -0.4737 -0.4057 -0.5390
12742TIP3    H138162   4.021   0.247   2.449 -1.0935  1.8340 -1.3501
12742TIP3    H238163   4.140   0.237   2.356 -0.6058  0.3623 -0.5806
12743TIP3   OH238164   0.486   6.100   4.711 -0.3653 -0.4932  0.1401
12743TIP3    H138165   0.539   6.126   4.635  0.4029 -1.2131  0.4251
12743TIP3    H238166   0.397   6.093   4.677 -0.4066  1.4194 -0.1978
12744TIP3   OH238167   7.070   6.565   1.689  0.0718 -0.3735 -0.0885
12744TIP3    H138168   6.985   6.549   1.730 -0.5654  0.0606 -1.2467
12744TIP3    H238169   7.117   6.482   1.698 -0.6066 -0.7219  0.2209
12745TIP3   OH238170   6.244   6.277   4.908  0.1625  0.2647  0.5567
12745TIP3    H138171   6.233   6.230   4.826  1.3271  1.7945 -0.4903
12745TIP3    H238172   6.186   6.354   4.900  1.4623  1.2550  0.4947
12746TIP3   OH238173   6.496   6.711   3.111  0.3603 -0.1897 -0.0365
12746TIP3    H138174   6.578   6.755   3.133  0.5298 -0.3469 -0.3548
12746TIP3    H238175   6.493   6.712   3.016 -0.2895  0.3229 -0.0069
12747TIP3   OH238176   7.660   4.198   5.496  0.0795  0.1211  0.7546
12747TIP3    H138177   7.699   4.180   5.410 -2.5422  1.9529 -0.8791
12747TIP3    H238178   7.725   4.252   5.541  1.2338 -0.3872 -0.2647
12748TIP3   OH238179   6.828   6.133   3.993  0.1261  0.0172 -0.5826
12748TIP3    H138180   6.807   6.089   3.910 -1.2277  0.0179 -0.2554
12748TIP3    H238181   6.886   6.072   4.038 -0.4794 -0.7405 -0.8138
12749TIP3   OH238182   6.681   5.488   4.937  1.0683 -0.0325  0.2840
12749TIP3    H138183   6.640   5.517   4.856  2.2714 -0.1935 -0.3929
12749TIP3    H238184   6.608   5.481   5.000  0.0535 -0.4676 -0.9261
12750TIP3   OH238185   2.487   6.330   3.269  0.2055  0.5415 -0.0578
12750TIP3    H138186   2.467   6.415   3.307  2.3450  1.0306 -0.0015
12750TIP3    H238187   2.425   6.322   3.195 -0.9444  1.5009  0.7804
12751TIP3   OH238188   6.559   7.384   6.861 -0.1856  0.1077 -0.3957
12751TIP3    H138189   6.517   7.438   6.928  0.1843  0.2662 -0.2907
12751TIP3    H238190   6.617   7.444   6.814 -0.6935  0.0665 -1.0763
12752TIP3   OH238191   0.852   7.152   3.506 -0.2474  0.1637  0.2702
12752TIP3    H138192   0.880   7.210   3.435 -2.2248  0.1107 -0.5623
12752TIP3    H238193   0.869   7.064   3.473 -0.4185  0.1625  0.1878
12753TIP3   OH238194   7.027   7.177   5.981 -0.1364 -0.4412  0.0307
12753TIP3    H138195   6.942   7.196   5.939 -0.3593 -2.6025 -0.5490
12753TIP3    H238196   7.092   7.198   5.913 -0.2475  0.4774  0.2061
12754TIP3   OH238197   7.678   7.483   2.817  0.4401 -0.0524 -0.4446
12754TIP3    H138198   7.711   7.519   2.735 -0.7820  1.8064 -0.1387
12754TIP3    H238199   7.591   7.522   2.827 -0.5857 -2.4446  0.3142
12755TIP3   OH238200   2.202   0.830   3.584  0.2126 -0.4320 -0.0954
12755TIP3    H138201   2.215   0.737   3.600 -0.1585 -0.3380  0.7547
12755TIP3    H238202   2.159   0.863   3.663  0.5976  0.5147 -0.2699
12756TIP3   OH238203   6.959   4.989   1.501  0.5518 -0.1824  0.0742
12756TIP3    H138204   6.970   4.981   1.596 -1.2473 -0.7320  0.2702
12756TIP3    H238205   6.940   5.082   1.487 -0.2201 -0.2903  0.3850
12757TIP3   OH238206   0.086   6.177   4.452  0.1109 -0.3821  0.4832
12757TIP3    H138207   0.115   6.086   4.444  1.6207  0.0991  0.4388
12757TIP3    H238208   0.095   6.212   4.363  0.6083  0.1290  0.7353
12758TIP3   OH238209   0.361   6.751   3.763  0.4620 -0.0273 -0.1135
12758TIP3    H138210   0.288   6.717   3.712  0.6053 -2.0235  0.9947
12758TIP3    H238211   0.409   6.807   3.701 -1.2967  0.3336 -1.1813
12759TIP3   OH238212   1.537   0.371   5.748 -0.1826  0.1392 -0.7991
12759TIP3    H138213   1.547   0.454   5.794 -1.2557 -0.9183  1.4576
12759TIP3    H238214   1.624   0.331   5.751 -0.2885 -0.0103  0.5431
12760TIP3   OH238215   8.152   5.815   6.132 -0.2093 -0.2119 -0.2871
12760TIP3    H138216   8.245   5.802   6.114 -0.1359 -1.1871  0.7239
12760TIP3    H238217   8.110   5.734   6.103 -1.0281  1.0214 -2.6265
12761TIP3   OH238218   0.764   6.866   5.228 -0.7072 -0.3576 -0.0206
12761TIP3    H138219   0.780   6.829   5.315  1.2516  1.0958  0.2801
12761TIP3    H238220   0.851   6.892   5.197 -1.2091 -1.8941 -2.9101
12762TIP3   OH238221   4.459   0.125   4.997 -0.0570 -0.0329  0.6503
12762TIP3    H138222   4.463   0.162   4.909 -2.2269  0.0743  0.5715
12762TIP3    H238223   4.540   0.153   5.039  0.4804  0.8515 -0.9574
12763TIP3   OH238224   7.895   7.762   2.882  0.7890  0.5015  0.8118
12763TIP3    H138225   7.973   7.720   2.919 -0.0681 -0.8620  1.1162
12763TIP3    H238226   7.902   7.854   2.909  1.8624  0.2131  1.5599
12764TIP3   OH238227   4.658   0.074   3.055  0.0484  0.2089  0.0139
12764TIP3    H138228   4.632   0.070   3.147  1.0689  0.5723  0.3316
12764TIP3    H238229   4.670   0.167   3.037 -0.0316  0.1305 -0.4485
12765TIP3   OH238230   3.343   3.189   6.721  0.0112 -0.0291  0.3128
12765TIP3    H138231   3.287   3.257   6.757  1.1486  0.0707  1.9624
12765TIP3    H238232   3.326   3.112   6.775 -0.8158 -0.9047 -1.1551
12766TIP3   OH238233   6.289   7.661   3.626 -0.6066  0.3520 -0.3491
12766TIP3    H138234   6.249   7.661   3.539 -0.3687  0.0435 -0.4621
12766TIP3    H238235   6.217   7.643   3.686 -0.6476 -0.1589 -0.5471
12767TIP3   OH238236   2.692   0.572   6.668 -0.1565  0.0795 -0.5281
12767TIP3    H138237   2.688   0.657   6.713  1.9180 -0.6665  1.0945
12767TIP3    H238238   2.766   0.581   6.607 -0.5079 -0.2699 -1.0120
12768TIP3   OH238239   5.468   7.547   4.322 -0.3794  0.1816  0.0884
12768TIP3    H138240   5.419   7.604   4.381 -1.5017 -0.5627 -0.1005
12768TIP3    H238241   5.550   7.529   4.367 -2.1022 -2.1499  2.4442
12769TIP3   OH238242   4.811   7.670   3.211 -0.1164 -0.1431 -0.0840
12769TIP3    H138243   4.804   7.642   3.303  2.6598 -0.1883  0.1625
12769TIP3    H238244   4.876   7.610   3.173 -1.5417 -0.3787 -2.1991
12770TIP3   OH238245   6.248   6.173   4.288  0.5799  0.0479 -0.1257
12770TIP3    H138246   6.268   6.266   4.298  0.4625  0.0606 -0.0143
12770TIP3    H238247   6.182   6.155   4.355 -1.4124  0.5099 -1.8895
12771TIP3   OH238248   7.160   5.509   1.756 -0.0654 -0.5977 -0.0091
12771TIP3    H138249   7.153   5.550   1.670  1.9352 -1.1714 -0.4777
12771TIP3    H238250   7.204   5.426   1.739  2.4490  0.3010  1.8346
12772TIP3   OH238251   0.688   6.252   3.437 -0.1986 -0.5054 -0.2523
12772TIP3    H138252   0.655   6.178   3.489 -0.0265  0.5416  1.3682
12772TIP3    H238253   0.753   6.212   3.379 -1.4592 -1.9351 -0.7292
12773TIP3   OH238254   7.427   6.276   4.514 -0.1582 -0.0340 -0.7400
12773TIP3    H138255   7.475   6.340   4.461 -0.2958  0.8417  0.1758
12773TIP3    H238256   7.386   6.327   4.583 -0.2370 -1.1181  0.0395
12774TIP3   OH238257   7.287   7.194   3.341 -0.6038  0.5797 -0.2528
12774TIP3    H138258   7.378   7.214   3.319 -0.7839  0.6011 -1.0080
12774TIP3    H238259   7.287   7.100   3.361 -0.3642  0.6420  0.0389
12775TIP3   OH238260   7.490   6.137   3.758  0.2561  0.3347  0.3775
12775TIP3    H138261   7.426   6.196   3.718  0.5911  0.5356  0.1336
12775TIP3    H238262   7.551   6.117   3.687  0.3849  0.0353  0.5751
12776TIP3   OH238263   7.183   5.397   5.587  0.2847 -0.4474 -0.1145
12776TIP3    H138264   7.154   5.335   5.655  0.5397 -0.2513  0.1748
12776TIP3    H238265   7.186   5.345   5.507 -0.2341 -0.6300 -0.0207
12777TIP3   OH238266   7.068   7.846   2.692  0.6450  0.6948 -0.0735
12777TIP3    H138267   7.042   7.934   2.719 -0.0745  0.3899  0.2513
12777TIP3    H238268   7.114   7.809   2.767  1.1498  0.8760 -0.2925
12778TIP3   OH238269   7.392   7.806   6.368  0.1769 -0.1581 -0.2701
12778TIP3    H138270   7.428   7.865   6.302  0.4893 -2.1022 -1.8831
12778TIP3    H238271   7.385   7.722   6.324 -0.0211 -1.4098  2.0536
12779TIP3   OH238272   6.623   6.337   5.614 -0.0217  0.3626 -0.2392
12779TIP3    H138273   6.681   6.331   5.690  0.8698  0.5824 -0.8956
12779TIP3    H238274   6.599   6.429   5.609  1.9860  0.8560 -1.7186
12780TIP3   OH238275   5.456   7.926   4.672 -0.2270  0.7255 -0.5367
12780TIP3    H138276   5.483   8.015   4.695 -1.9261  0.9367  0.6766
12780TIP3    H238277   5.428   7.887   4.754  2.1387 -1.5590 -0.7179
12781TIP3   OH238278   6.991   6.660   3.693  0.0279 -0.2670  0.0770
12781TIP3    H138279   6.912   6.650   3.745 -1.2496  1.3977 -1.4868
12781TIP3    H238280   7.060   6.678   3.757 -1.1728 -0.0440  1.3189
12782TIP3   OH238281   6.762   5.156   3.811  0.3419  0.2889  0.5286
12782TIP3    H138282   6.743   5.182   3.901  1.1535 -0.4440  0.9129
12782TIP3    H238283   6.763   5.239   3.762  1.6888  0.8799  1.5199
12783TIP3   OH238284   7.133   7.868   4.276  1.0414  0.0337  0.1639
12783TIP3    H138285   7.222   7.894   4.253  1.7080 -1.0554  1.4316
12783TIP3    H238286   7.144   7.812   4.353 -0.5725 -1.5303 -0.6987
12784TIP3   OH238287   0.194   7.127   2.776  0.1679 -0.1731  0.6495
12784TIP3    H138288   0.103   7.156   2.777  0.3370  0.3871 -0.1902
12784TIP3    H238289   0.234   7.172   2.851  0.0946  0.7225  0.1671
12785TIP3   OH238290   1.968   7.025   5.066  0.0762 -0.0033 -0.3673
12785TIP3    H138291   1.945   7.011   5.158 -0.7093  1.4829 -0.3294
12785TIP3    H238292   2.063   7.028   5.065  0.0931 -0.2519  0.3566
12786TIP3   OH238293   5.069   2.327   0.265  0.1484  0.7467  0.0950
12786TIP3    H138294   5.132   2.273   0.313  0.9682  0.4041 -1.3609
12786TIP3    H238295   5.064   2.288   0.178  0.3230  2.6618 -0.8123
12787TIP3   OH238296   0.847   5.209   3.258 -0.3989  0.1036  0.0706
12787TIP3    H138297   0.941   5.220   3.241 -0.6276  2.5834  0.2187
12787TIP3    H238298   0.805   5.234   3.176 -1.0173  1.5134  0.7969
12788TIP3   OH238299   3.373   0.105   3.301  0.1704 -0.3372  0.4880
12788TIP3    H138300   3.458   0.132   3.267  0.8227 -3.9638 -0.9132
12788TIP3    H238301   3.310   0.152   3.245  1.2522  0.3384 -0.1839
12789TIP3   OH238302   6.593   1.322   1.117  0.3125 -0.4931  0.2260
12789TIP3    H138303   6.649   1.365   1.182 -1.4344 -0.8664  2.0264
12789TIP3    H238304   6.591   1.230   1.144 -2.1318 -0.2654  0.9358
12790TIP3   OH238305   2.125   5.790   4.263 -0.0425  0.2930 -0.0920
12790TIP3    H138306   2.144   5.755   4.176 -0.1020  1.3088 -0.5304
12790TIP3    H238307   2.174   5.873   4.266 -1.4909  1.1521  0.1485
12791TIP3   OH238308   7.625   6.628   4.666  0.3823  0.5474  0.0908
12791TIP3    H138309   7.568   6.633   4.589 -2.6005  0.8504  2.2714
12791TIP3    H238310   7.669   6.713   4.668 -0.6349  1.0969 -0.4478
12792TIP3   OH238311   6.238   6.349   6.408 -0.1748  0.4296  0.0785
12792TIP3    H138312   6.195   6.273   6.445 -0.7931  0.4922 -0.5159
12792TIP3    H238313   6.183   6.423   6.433  0.4213  0.6870  0.6546
12793TIP3   OH238314   5.583   6.263   4.160  0.5009 -0.0347 -0.0587
12793TIP3    H138315   5.543   6.348   4.172  1.2604  0.1873  0.9409
12793TIP3    H238316   5.512   6.200   4.173  0.4137  0.3656  1.4268
12794TIP3   OH238317   6.477   4.815   5.885  0.5678  0.2411 -0.1372
12794TIP3    H138318   6.557   4.774   5.852  0.8596  0.0869  0.7399
12794TIP3    H238319   6.493   4.825   5.979 -0.1312  0.9327 -0.0906
12795TIP3   OH238320   6.440   6.801   4.413  0.5413  0.4165  0.3134
12795TIP3    H138321   6.418   6.736   4.346  1.3719 -1.8206  2.1267
12795TIP3    H238322   6.524   6.838   4.384  0.4660  0.0910 -0.3286
12796TIP3   OH238323   6.604   5.301   5.347 -0.3566 -0.7168  0.3767
12796TIP3    H138324   6.696   5.278   5.346  0.1864  1.2175  1.5867
12796TIP3    H238325   6.589   5.348   5.265 -0.3674 -1.3723  0.0033
12797TIP3   OH238326   2.032   0.178   6.480 -0.3438 -0.3313  0.6100
12797TIP3    H138327   2.064   0.090   6.494  0.9371  0.1065  0.4616
12797TIP3    H238328   2.109   0.234   6.490 -0.9057  0.6620 -0.4268
12798TIP3   OH238329   6.968   6.192   5.388 -0.2539  0.2769 -0.9002
12798TIP3    H138330   7.000   6.143   5.313 -0.0054  2.5114 -2.2886
12798TIP3    H238331   7.046   6.222   5.433 -0.3782  1.4970 -1.4746
12799TIP3   OH238332   0.816   5.430   4.294  0.0977  0.0675 -0.4880
12799TIP3    H138333   0.811   5.339   4.264 -2.3988 -0.2861  0.9272
12799TIP3    H238334   0.854   5.424   4.381 -1.4784  0.2169  0.2233
12800TIP3   OH238335   8.161   6.778   4.317 -0.8824 -0.5376 -0.7378
12800TIP3    H138336   8.138   6.689   4.344 -0.7373 -0.4325 -0.2600
12800TIP3    H238337   8.215   6.811   4.389  0.3720 -0.6121 -1.6418
12801TIP3   OH238338   8.487   5.472   4.188  0.0837 -0.1372 -0.3231
12801TIP3    H138339   8.523   5.528   4.119 -0.5337  1.7922  0.9106
12801TIP3    H238340   8.449   5.398   4.140 -1.0665  1.5759 -2.1446
12802TIP3   OH238341   8.106   6.333   5.684  0.1829 -0.3259 -0.2184
12802TIP3    H138342   8.102   6.367   5.595  0.8103 -1.9658 -0.8776
12802TIP3    H238343   8.147   6.247   5.676 -0.5363 -0.8606  1.5472
12803TIP3   OH238344   6.829   7.024   4.901 -0.1064 -0.4496  0.5067
12803TIP3    H138345   6.917   7.051   4.874 -1.1536  0.3882 -2.2728
12803TIP3    H238346   6.843   6.942   4.948  1.9982 -1.4871 -1.7816
12804TIP3   OH238347   1.305   6.824   2.887 -0.5086 -0.6921  0.3434
12804TIP3    H138348   1.350   6.856   2.809  0.5251 -0.9884  0.8089
12804TIP3    H238349   1.212   6.829   2.865 -0.3202  1.2237 -0.1386
12805TIP3   OH238350   0.685   4.682   4.188  0.0469  0.0389  0.1910
12805TIP3    H138351   0.722   4.735   4.118  0.3750 -0.8447 -0.3148
12805TIP3    H238352   0.626   4.741   4.235  1.0148  1.0571  0.1257
12806TIP3   OH238353   1.043   0.320   5.574  0.3085 -0.2507  1.0926
12806TIP3    H138354   1.037   0.415   5.582 -0.0453  0.0460 -1.9458
12806TIP3    H238355   1.137   0.303   5.566  0.2981 -0.0201  0.4312
12807TIP3   OH238356   7.666   6.952   3.629 -0.0990  0.1131 -0.2662
12807TIP3    H138357   7.731   6.906   3.682 -1.3040 -1.5859 -0.1763
12807TIP3    H238358   7.633   6.885   3.569 -0.2504  1.4828 -1.7495
12808TIP3   OH238359   7.731   4.287   3.721  0.3421 -0.2266  0.3670
12808TIP3    H138360   7.721   4.234   3.800  0.4410  0.2678  0.7114
12808TIP3    H238361   7.771   4.369   3.752  2.2407 -0.8051 -0.4654
12809TIP3   OH238362   6.991   7.399   4.758  0.1658  0.0958 -0.1369
12809TIP3    H138363   6.979   7.413   4.852  1.5868 -0.4296  0.1284
12809TIP3    H238364   7.017   7.485   4.724  1.1987 -0.0779  0.2093
12810TIP3   OH238365   7.975   7.723   4.654 -0.0909 -0.0000  0.6020
12810TIP3    H138366   7.962   7.744   4.747  0.1314  0.8839  0.4351
12810TIP3    H238367   8.050   7.664   4.653  1.1433  1.5302  0.8207
12811TIP3   OH238368   7.865   6.653   5.732  0.1066 -0.0825 -0.0566
12811TIP3    H138369   7.936   6.636   5.794  1.5055 -0.1384 -1.6552
12811TIP3    H238370   7.787   6.619   5.776  0.7808  1.4187  2.4060
12812TIP3   OH238371   6.439   7.120   2.078  0.5573 -0.2877 -0.2088
12812TIP3    H138372   6.520   7.166   2.102  1.3303 -2.1123  0.8149
12812TIP3    H238373   6.441   7.040   2.131 -1.5493 -0.7181 -0.7555
12813TIP3   OH238374   5.653   0.525   3.785  0.3950  0.2791  0.0989
12813TIP3    H138375   5.587   0.456   3.776  0.1822  0.8391 -3.4397
12813TIP3    H238376   5.735   0.482   3.762  0.7709  0.4100  1.1750
12814TIP3   OH238377   7.342   3.824   1.175 -0.0377 -0.1286 -0.1032
12814TIP3    H138378   7.250   3.816   1.148 -0.0306  0.4537 -0.3034
12814TIP3    H238379   7.354   3.754   1.239 -0.8177  0.2369  0.4505
12815TIP3   OH238380   4.996   1.465   4.582  0.0047  0.2838  0.1419
12815TIP3    H138381   4.951   1.460   4.666  0.7688  1.3231  0.6211
12815TIP3    H238382   4.947   1.531   4.532 -0.4824 -0.3723 -0.2657
12816TIP3   OH238383   5.565   0.723   4.073  0.4411 -0.3915 -0.2742
12816TIP3    H138384   5.601   0.648   4.119 -0.5609 -0.5476  0.2661
12816TIP3    H238385   5.577   0.703   3.980  0.4677 -1.0751 -0.1211
12817TIP3   OH238386   5.701   0.703   3.567  0.0425  0.3542 -0.0152
12817TIP3    H138387   5.684   0.645   3.642 -1.7275  0.7629 -0.0672
12817TIP3    H238388   5.749   0.648   3.505  0.7235 -0.2644  1.0426
12818TIP3   OH238389   6.941   0.052   5.647 -0.4302  0.3288 -0.1938
12818TIP3    H138390   6.943   0.052   5.743  1.5205 -2.6187 -0.1836
12818TIP3    H238391   6.979   0.136   5.623  1.5425  0.0077  1.6189
12819TIP3   OH238392   0.219   6.625   6.625  0.6664  0.5257  0.3500
12819TIP3    H138393   0.196   6.537   6.593  2.0825 -0.0217  0.8114
12819TIP3    H238394   0.135   6.665   6.646  0.0890 -1.3917  1.8593
12820TIP3   OH238395   7.889   7.401   5.695 -0.1691 -0.0697 -0.2748
12820TIP3    H138396   7.825   7.403   5.623 -0.5520 -1.6142 -0.0026
12820TIP3    H238397   7.845   7.446   5.767 -0.0969  0.7792 -0.7512
12821TIP3   OH238398   0.433   7.768   4.833 -0.3669 -0.6485 -0.4000
12821TIP3    H138399   0.356   7.826   4.841  0.0522 -0.0151 -0.9358
12821TIP3    H238400   0.501   7.813   4.884 -0.0926 -0.7606 -0.6726
12822TIP3   OH238401   1.185   6.506   4.187  0.1577 -0.1072  0.0666
12822TIP3    H138402   1.134   6.427   4.171  0.8848 -0.3387 -1.1759
12822TIP3    H238403   1.122   6.569   4.221 -0.8170 -0.5897 -0.8324
12823TIP3   OH238404   3.702   0.255   5.041 -0.2576 -0.3910  0.0385
12823TIP3    H138405   3.780   0.241   5.095  0.9072  0.2651 -1.4437
12823TIP3    H238406   3.673   0.343   5.064 -0.7595 -0.7372  0.7925
12824TIP3   OH238407   5.995   1.368   6.933  0.5280  0.1890 -0.0536
12824TIP3    H138408   5.971   1.451   6.892 -0.7551 -0.6523 -1.0290
12824TIP3    H238409   6.059   1.330   6.874 -0.7088 -0.6424 -0.8702
12825TIP3   OH238410   6.374   4.716   0.623  0.2189 -0.3032 -0.1907
12825TIP3    H138411   6.463   4.747   0.606  0.2894 -1.2544 -1.6366
12825TIP3    H238412   6.370   4.630   0.581 -1.3481 -0.3199 -0.0312
12826TIP3   OH238413   0.493   5.815   6.700  0.2185 -0.0551  0.4723
12826TIP3    H138414   0.520   5.820   6.608 -1.1146  0.4820  0.1034
12826TIP3    H238415   0.551   5.749   6.738  0.5509 -0.5347 -0.8332
12827TIP3   OH238416   4.356   0.987   5.242 -0.1802 -0.6730 -0.1986
12827TIP3    H138417   4.273   0.944   5.221  0.9116 -2.5614 -0.7558
12827TIP3    H238418   4.367   0.972   5.336 -0.8595  0.2976  0.0439
12828TIP3   OH238419   2.533   0.286   3.379 -0.1998  0.2652 -0.2392
12828TIP3    H138420   2.605   0.296   3.442 -0.9380 -1.7049  0.9924
12828TIP3    H238421   2.554   0.205   3.332 -1.9869 -0.7409  0.6634
12829TIP3   OH238422   4.427   0.629   5.791  0.0169  0.5475  0.1902
12829TIP3    H138423   4.511   0.670   5.772 -0.1986  0.0583 -1.9245
12829TIP3    H238424   4.449   0.541   5.822  0.2972  0.6462  0.2720
12830TIP3   OH238425   2.078   7.683   6.212 -0.0920 -0.3850  0.3997
12830TIP3    H138426   1.986   7.700   6.196  0.3369  0.2731 -1.5766
12830TIP3    H238427   2.109   7.761   6.258 -0.2259 -0.0174 -0.1326
12831TIP3   OH238428   5.557   1.062   2.012 -0.1710  0.0350 -0.6945
12831TIP3    H138429   5.498   1.136   1.995 -1.7603 -1.0551 -0.0714
12831TIP3    H238430   5.551   1.009   1.933 -1.8976 -1.2837  0.2778
12832TIP3   OH238431   0.897   7.059   6.519 -0.2351  0.8992 -0.6078
12832TIP3    H138432   0.947   6.982   6.547  0.4594  1.6088  0.1341
12832TIP3    H238433   0.819   7.023   6.477 -0.1673 -0.2075  0.1935
12833TIP3   OH238434   1.713   7.816   6.402 -0.3397 -0.7477  0.4669
12833TIP3    H138435   1.734   7.747   6.465 -1.5037 -0.6517  0.9699
12833TIP3    H238436   1.621   7.838   6.420 -0.6752 -0.6795 -1.2086
12834TIP3   OH238437   2.903   1.119   6.415 -0.0655 -0.7847 -0.1254
12834TIP3    H138438   2.829   1.073   6.376  1.4180 -2.4324 -1.0267
12834TIP3    H238439   2.918   1.194   6.357 -0.9854 -0.4654  0.0407
12835TIP3   OH238440   1.520   6.954   6.417  0.1518 -0.4244  0.5674
12835TIP3    H138441   1.540   7.007   6.494 -0.5873 -0.7601  0.9948
12835TIP3    H238442   1.426   6.935   6.425 -0.9235  2.9641 -2.5299
12836TIP3   OH238443   8.220   3.862   1.104 -0.1910 -0.1492 -0.4470
12836TIP3    H138444   8.269   3.900   1.177 -0.7103 -0.2556 -0.0402
12836TIP3    H238445   8.240   3.768   1.108  1.6318  0.1590 -1.8672
12837TIP3   OH238446   3.244   6.906   6.392  0.5389 -0.2472 -0.4807
12837TIP3    H138447   3.232   6.974   6.458  0.0921 -0.7565 -0.0290
12837TIP3    H238448   3.164   6.854   6.397  0.3495 -0.0838 -1.6690
12838TIP3   OH238449   8.184   3.400   0.620  0.0512 -0.1319 -0.3080
12838TIP3    H138450   8.090   3.413   0.606 -0.6118 -2.5724  1.7008
12838TIP3    H238451   8.206   3.324   0.567  0.9168  0.3893 -0.7177
12839TIP3   OH238452   2.175   6.765   6.363 -0.4317  0.1067  0.9542
12839TIP3    H138453   2.158   6.679   6.324  0.1977 -0.1630  1.2640
12839TIP3    H238454   2.201   6.820   6.289  0.1304 -0.2339  0.8947
12840TIP3   OH238455   2.362   7.567   6.696  0.1400  0.2420 -0.1819
12840TIP3    H138456   2.457   7.572   6.693  0.3128 -2.2547 -0.0548
12840TIP3    H238457   2.338   7.616   6.775  1.3807  0.1328  0.2702
12841TIP3   OH238458   4.638   0.551   6.654 -0.0057 -0.1956 -0.2271
12841TIP3    H138459   4.560   0.589   6.696 -0.0816  0.1342 -0.6719
12841TIP3    H238460   4.656   0.608   6.580  2.2632  1.3013  1.3981
12842TIP3   OH238461   1.182   7.698   5.130  0.6033 -0.4983  0.1402
12842TIP3    H138462   1.272   7.721   5.151  0.3922  2.1049 -1.5739
12842TIP3    H238463   1.142   7.675   5.214  1.9388  1.7071  1.4073
12843TIP3   OH238464   6.193   0.218   5.893  0.5160 -0.7345 -0.1695
12843TIP3    H138465   6.282   0.233   5.860  0.0055  1.8296 -0.4983
12843TIP3    H238466   6.165   0.137   5.850  0.4985  1.6018 -4.8695
12844TIP3   OH238467   5.162   1.279   4.915  0.2213  0.0955 -0.0979
12844TIP3    H138468   5.121   1.196   4.890 -0.4241  0.5486 -0.5568
12844TIP3    H238469   5.254   1.268   4.890 -0.0850 -0.0744 -1.1700
12845TIP3   OH238470   1.450   7.573   6.204 -0.2370  0.1316 -0.6661
12845TIP3    H138471   1.517   7.615   6.259 -1.3101  2.4515 -1.0827
12845TIP3    H238472   1.487   7.487   6.184  0.7771 -0.2565  2.5612
12846TIP3   OH238473   2.840   7.237   5.978 -0.4206  0.0670 -0.4712
12846TIP3    H138474   2.859   7.296   5.905 -2.0793 -0.7720 -1.6123
12846TIP3    H238475   2.749   7.211   5.965 -0.0319 -1.9192  0.6038
12847TIP3   OH238476   5.778   1.362   5.111 -0.2560 -0.4509 -0.0058
12847TIP3    H138477   5.794   1.270   5.091  1.2460 -0.0575 -0.6926
12847TIP3    H238478   5.776   1.404   5.025 -0.1762  0.2715  0.3456
12848TIP3   OH238479   0.513   3.106   1.224  0.1214 -0.1222 -0.1352
12848TIP3    H138480   0.462   3.066   1.153 -1.2352 -0.9769  1.2959
12848TIP3    H238481   0.600   3.067   1.216 -0.2121 -0.7056 -0.9314
12849TIP3   OH238482   4.011   6.658   3.900  0.1664  0.2079  0.0064
12849TIP3    H138483   4.027   6.658   3.806  2.3176  0.1760  0.3434
12849TIP3    H238484   4.022   6.567   3.927 -3.9780 -0.4556 -0.2150
12850TIP3   OH238485   7.886   3.443   1.024 -0.0340 -0.2930  0.1794
12850TIP3    H138486   7.948   3.471   0.956  0.1360 -2.1731 -0.4650
12850TIP3    H238487   7.820   3.392   0.977 -0.6121 -0.5401  1.2434
12851TIP3   OH238488   6.099   0.663   6.484  0.2836  0.5550  0.0233
12851TIP3    H138489   6.165   0.600   6.455  1.2236  1.6181 -0.1831
12851TIP3    H238490   6.143   0.712   6.553 -1.3861 -0.8792  2.1663
12852TIP3   OH238491   2.922   0.081   6.870 -0.4610 -0.0226  0.4376
12852TIP3    H138492   2.928   0.072   6.775 -1.2429  1.4261  0.2250
12852TIP3    H238493   2.999   0.035   6.903 -0.2694 -0.6910 -0.8884
12853TIP3   OH238494   5.050   0.071   3.716  0.2310 -0.2633  0.2070
12853TIP3    H138495   5.142   0.092   3.705  0.0953  0.9657  1.3651
12853TIP3    H238496   5.041   0.048   3.808 -0.4813 -1.0595 -0.0602
12854TIP3   OH238497   4.765   1.701   6.686  0.6791 -0.3259  0.0930
12854TIP3    H138498   4.751   1.638   6.757 -0.1407 -1.1948 -0.8113
12854TIP3    H238499   4.846   1.746   6.709 -0.6534  0.8832  2.6322
12855TIP3   OH238500   6.055   2.057   0.139  0.2036 -0.0698 -0.1589
12855TIP3    H138501   6.058   2.151   0.158 -1.5216  0.2034 -1.0760
12855TIP3    H238502   6.089   2.049   0.050 -1.5917 -0.0159 -0.8886
12856TIP3   OH238503   6.589   4.888   0.581 -0.2305 -0.3985 -0.6728
12856TIP3    H138504   6.610   4.881   0.674 -0.4534 -0.1340 -0.6025
12856TIP3    H238505   6.674   4.888   0.538 -0.0107  1.8292 -0.3117
12857TIP3   OH238506   4.643   0.506   4.861  0.2201 -0.3101  0.0433
12857TIP3    H138507   4.645   0.470   4.949  2.4304  1.0865  0.6041
12857TIP3    H238508   4.594   0.441   4.809 -0.9369 -1.2163  2.2245
12858TIP3   OH238509   3.046   6.527   3.925  0.5469 -0.0165 -0.7163
12858TIP3    H138510   3.129   6.484   3.946  0.8543 -0.4058 -2.7056
12858TIP3    H238511   3.058   6.617   3.956  0.8825 -0.6182  1.0047
12859TIP3   OH238512   0.106   3.594   2.519  0.6218 -0.2020 -0.4849
12859TIP3    H138513   0.177   3.530   2.519  1.1591  0.3895 -0.0984
12859TIP3    H238514   0.065   3.585   2.433  2.2273  0.6314 -1.3626
12860TIP3   OH238515   3.456   2.188   4.161  0.1307 -0.0317  0.3252
12860TIP3    H138516   3.474   2.110   4.213  0.6249  1.1838  2.0450
12860TIP3    H238517   3.389   2.235   4.210 -1.0219  0.0549 -1.2965
12861TIP3   OH238518   0.083   3.318   0.064  0.2963 -0.0954  0.1391
12861TIP3    H138519   0.095   3.382   0.133 -1.4555  0.9649 -0.5283
12861TIP3    H238520   0.011   3.262   0.094  0.6616 -0.6873 -0.0636
12862TIP3   OH238521   8.248   4.518   1.020 -0.1119 -0.0570 -0.2477
12862TIP3    H138522   8.341   4.516   1.042  0.0872 -0.4789 -1.1071
12862TIP3    H238523   8.243   4.477   0.934 -0.9485  1.0169 -0.7282
12863TIP3   OH238524   3.001   7.311   4.964 -0.4372 -0.0790 -0.5812
12863TIP3    H138525   3.012   7.238   4.902  1.2133 -1.2603  1.0131
12863TIP3    H238526   3.064   7.377   4.935  0.2673 -0.5922 -0.2405
12864TIP3   OH238527   6.858   1.181   5.924 -0.4509 -0.1640 -0.1946
12864TIP3    H138528   6.844   1.161   6.016  2.0782 -2.5671 -0.2801
12864TIP3    H238529   6.814   1.110   5.877  0.4436 -0.3519 -0.7591
12865TIP3   OH238530   8.290   4.375   0.782 -0.0818  0.3476  0.3554
12865TIP3    H138531   8.197   4.350   0.786 -0.0161  0.1693  0.7900
12865TIP3    H238532   8.311   4.371   0.689 -0.8902  1.7890  0.0995
12866TIP3   OH238533   2.182   7.977   4.473 -0.0453 -0.1131  0.1068
12866TIP3    H138534   2.266   7.931   4.465 -0.4245 -0.6408 -0.7974
12866TIP3    H238535   2.177   8.000   4.566  1.1814  0.0663  0.1464
12867TIP3   OH238536   0.702   4.303   1.175  0.0475  0.2744  0.3821
12867TIP3    H138537   0.744   4.272   1.095  0.8566 -0.9568  1.2492
12867TIP3    H238538   0.716   4.232   1.238  1.2433  2.0567  2.2071
12868TIP3   OH238539   0.630   3.052   0.284  0.0471 -0.1986 -0.3659
12868TIP3    H138540   0.568   3.125   0.283  2.1020  1.6199 -2.0624
12868TIP3    H238541   0.665   3.050   0.373 -0.4785  0.5006 -0.1457
12869TIP3   OH238542   6.277   2.973   5.571  0.6779  0.1885 -0.0886
12869TIP3    H138543   6.192   2.989   5.530  0.0559  0.5229  1.3257
12869TIP3    H238544   6.276   2.880   5.593  1.0080  0.0111 -0.8146
12870TIP3   OH238545   3.376   0.232   4.616 -0.4767 -0.3905  0.0239
12870TIP3    H138546   3.314   0.212   4.686 -1.5462 -0.4382 -0.9275
12870TIP3    H238547   3.439   0.160   4.619  0.0743  0.1260  1.5841
12871TIP3   OH238548   5.487   2.111   5.383  0.3803 -0.4982 -0.9153
12871TIP3    H138549   5.486   2.032   5.436  1.0722 -0.0530 -0.2296
12871TIP3    H238550   5.549   2.092   5.313  1.6231 -0.0553  0.0520
12872TIP3   OH238551   4.533   1.771   5.129  0.0175 -0.0243  0.2479
12872TIP3    H138552   4.449   1.762   5.174  0.3220 -0.1180  0.8028
12872TIP3    H238553   4.580   1.690   5.151  0.3184  0.1088  0.0818
12873TIP3   OH238554   2.920   7.530   5.498 -0.0765 -0.2674 -0.1931
12873TIP3    H138555   2.984   7.589   5.458 -0.5275 -0.4441 -1.1927
12873TIP3    H238556   2.848   7.526   5.435 -0.7898 -0.5771  0.6335
12874TIP3   OH238557   6.305   1.188   5.987  0.1169 -0.6440 -0.1789
12874TIP3    H138558   6.245   1.121   5.953 -0.6860  0.7500 -1.5879
12874TIP3    H238559   6.253   1.235   6.052  0.3821 -0.7910  0.1405
12875TIP3   OH238560   3.571   2.099   5.604  0.1609  0.0179 -0.0038
12875TIP3    H138561   3.655   2.074   5.566 -0.1279  0.2475 -0.8255
12875TIP3    H238562   3.511   2.101   5.529 -0.9507 -1.7415  0.7992
12876TIP3   OH238563   6.107   0.354   4.152  0.3530  0.3060  0.3171
12876TIP3    H138564   6.042   0.346   4.082 -0.3943  0.4802  0.9880
12876TIP3    H238565   6.192   0.352   4.107 -0.1320  0.5667 -0.6031
12877TIP3   OH238566   4.030   0.449   6.155 -0.1695  0.3028  0.6721
12877TIP3    H138567   3.942   0.486   6.162 -0.3262 -0.0991  0.8173
12877TIP3    H238568   4.046   0.409   6.240 -0.3346 -0.7138  0.2285
12878TIP3   OH238569   5.829   0.538   5.420 -0.6098 -0.4939 -0.3174
12878TIP3    H138570   5.748   0.567   5.463 -0.3390 -1.7633  1.1192
12878TIP3    H238571   5.813   0.551   5.327 -2.8488 -1.5582 -0.1248
12879TIP3   OH238572   1.928   7.041   5.889 -0.1473 -0.2833 -0.1388
12879TIP3    H138573   1.915   6.993   5.807 -1.9142  0.1459 -0.1338
12879TIP3    H238574   1.992   7.108   5.869 -3.2996  2.2484 -2.2296
12880TIP3   OH238575   7.195   0.384   4.014  0.1537  0.1381 -0.1802
12880TIP3    H138576   7.252   0.324   3.965  2.5286  1.7239  0.5704
12880TIP3    H238577   7.142   0.427   3.947 -1.0354 -2.1770 -0.7963
12881TIP3   OH238578   4.013   5.994   4.024  0.0517  0.3317 -0.4940
12881TIP3    H138579   3.986   5.926   3.962 -0.7324 -0.6438  0.8756
12881TIP3    H238580   3.977   5.965   4.108 -0.4548  2.5663  0.0888
12882TIP3   OH238581   1.001   7.379   6.734 -0.3306 -0.2303  0.1956
12882TIP3    H138582   1.056   7.457   6.733 -1.0400  0.2685 -0.3171
12882TIP3    H238583   0.997   7.351   6.643 -0.4501 -0.5958  0.3124
12883TIP3   OH238584   2.624   7.697   4.367  0.3128 -0.2488  0.1607
12883TIP3    H138585   2.694   7.727   4.310 -1.1386  1.8177 -0.6082
12883TIP3    H238586   2.583   7.625   4.319  1.2026 -0.7472  0.1346
12884TIP3   OH238587   3.707   5.477   6.630  0.2390 -0.9532  0.0323
12884TIP3    H138588   3.801   5.461   6.626  0.5187  0.8454 -0.8809
12884TIP3    H238589   3.697   5.543   6.698 -0.3587 -1.1003  0.0894
12885TIP3   OH238590   3.915   3.402   6.191 -0.7298  0.0196 -0.6145
12885TIP3    H138591   3.827   3.406   6.154 -1.1727 -0.8679  0.3097
12885TIP3    H238592   3.902   3.370   6.280  0.4972  0.2354 -0.3468
12886TIP3   OH238593   2.668   7.411   6.737  0.0027 -0.0812  0.3877
12886TIP3    H138594   2.644   7.341   6.677  0.8508 -1.1163  1.2331
12886TIP3    H238595   2.620   7.391   6.817 -1.8401  1.7982 -0.2259
12887TIP3   OH238596   0.613   4.707   1.830 -0.2821  0.0091  0.7068
12887TIP3    H138597   0.704   4.705   1.858  1.1560  1.5584 -3.4471
12887TIP3    H238598   0.601   4.626   1.780 -0.6442  0.5553 -0.1212
12888TIP3   OH238599   2.193   1.669   6.091  0.5498  0.1502 -0.1425
12888TIP3    H138600   2.198   1.597   6.153 -1.9489  1.0879  1.2024
12888TIP3    H238601   2.135   1.638   6.022 -1.7959  1.3581  1.2126
12889TIP3   OH238602   6.327   1.337   3.827 -0.3136  0.0813  0.1739
12889TIP3    H138603   6.323   1.257   3.878 -1.8161  0.8024  1.2188
12889TIP3    H238604   6.249   1.386   3.853 -0.4858  0.9772 -1.9612
12890TIP3   OH238605   4.728   0.235   5.808  0.0057  0.3316 -0.0352
12890TIP3    H138606   4.666   0.284   5.862 -1.7611 -0.3157 -1.4101
12890TIP3    H238607   4.747   0.156   5.859  1.3719  1.5116  1.3258
12891TIP3   OH238608   0.740   6.310   5.957 -0.3506  0.2459 -1.0159
12891TIP3    H138609   0.789   6.391   5.945 -2.0710  1.2124 -1.6473
12891TIP3    H238610   0.694   6.297   5.874 -1.5350 -0.3852 -0.2771
12892TIP3   OH238611   4.802   0.201   3.605  0.2678  0.1975 -0.5943
12892TIP3    H138612   4.872   0.142   3.635 -0.0329 -1.4776 -3.0356
12892TIP3    H238613   4.840   0.248   3.531 -1.2032 -0.8281 -2.0280
12893TIP3   OH238614   0.922   7.478   6.023 -0.3389 -0.8539 -0.1412
12893TIP3    H138615   0.971   7.417   6.079 -0.0533 -0.3211  0.1924
12893TIP3    H238616   0.888   7.544   6.084 -1.6414 -1.3271 -0.3497
12894TIP3   OH238617   4.867   1.148   6.873  0.2883  0.1859  0.0460
12894TIP3    H138618   4.826   1.069   6.838 -1.5942  0.8224  0.7840
12894TIP3    H238619   4.829   1.220   6.824  1.8444  0.6871 -0.4735
12895TIP3   OH238620   8.102   3.657   1.742 -0.3461  0.2265  0.5265
12895TIP3    H138621   8.136   3.740   1.708  0.5795 -1.0324 -1.7821
12895TIP3    H238622   8.018   3.646   1.698  0.5361 -1.0795 -0.8833
12896TIP3   OH238623   2.515   7.090   5.080 -0.2432  0.0497  0.0875
12896TIP3    H138624   2.531   7.139   4.999 -1.2300  0.5766  0.2132
12896TIP3    H238625   2.552   7.145   5.149 -0.2672  0.0459  0.1036
12897TIP3   OH238626   2.283   1.748   5.391 -0.0441 -0.3280  0.6605
12897TIP3    H138627   2.197   1.741   5.350  0.2870 -0.4441 -0.0267
12897TIP3    H238628   2.274   1.703   5.475 -0.3883 -1.1693  0.1701
12898TIP3   OH238629   1.646   7.021   5.551  0.6355 -0.4724 -0.3442
12898TIP3    H138630   1.660   6.937   5.595  0.8405 -0.0536  0.3976
12898TIP3    H238631   1.647   7.000   5.458 -1.6232 -1.6575 -0.1370
12899TIP3   OH238632   3.044   0.685   5.499 -0.2502  0.4636  0.3830
12899TIP3    H138633   3.063   0.606   5.550 -0.9718 -0.1625 -0.2997
12899TIP3    H238634   3.009   0.747   5.564  1.3244  0.6057  1.1108
12900TIP3   OH238635   2.291   7.693   4.051  0.2630 -0.0037 -0.2048
12900TIP3    H138636   2.258   7.757   4.115 -1.7864 -1.0820 -0.1362
12900TIP3    H238637   2.213   7.643   4.026  0.9710  0.6585 -3.8736
12901TIP3   OH238638   0.144   4.539   0.387 -0.1535  0.1637  0.0300
12901TIP3    H138639   0.176   4.489   0.462  1.3747 -0.0343 -0.7448
12901TIP3    H238640   0.222   4.564   0.339 -1.0845  0.7885 -1.1962
12902TIP3   OH238641   1.296   6.362   5.618 -0.3457 -0.3295  0.0579
12902TIP3    H138642   1.297   6.378   5.712 -0.2287 -0.6565  0.1139
12902TIP3    H238643   1.217   6.406   5.587  0.1202  0.5861  0.1601
12903TIP3   OH238644   3.201   7.099   6.595  0.0778 -1.0665  0.2221
12903TIP3    H138645   3.254   7.158   6.648 -0.3212 -0.9346  0.4708
12903TIP3    H238646   3.130   7.071   6.652 -1.2625  0.3314 -0.7214
12904TIP3   OH238647   4.427   6.292   5.809  0.1546 -0.0922 -0.0195
12904TIP3    H138648   4.378   6.218   5.772  0.1773  0.3544 -0.9471
12904TIP3    H238649   4.433   6.356   5.738  3.3188 -0.7245 -0.4210
12905TIP3   OH238650   1.141   0.900   4.731  0.3778  0.2128  0.6222
12905TIP3    H138651   1.222   0.919   4.778 -0.6264 -0.8894  2.8696
12905TIP3    H238652   1.083   0.973   4.752  0.0583 -0.0876  0.7933
12906TIP3   OH238653   2.035   7.389   4.697  0.1630  0.0311 -0.1036
12906TIP3    H138654   2.043   7.471   4.746 -0.0064 -0.6609  1.0947
12906TIP3    H238655   2.033   7.321   4.764 -1.1576 -0.8569 -1.0206
12907TIP3   OH238656   4.387   0.001   4.137 -0.9039  0.0023  0.0146
12907TIP3    H138657   4.430   0.080   4.171  0.1805 -0.8794  0.7315
12907TIP3    H238658   4.378   0.017   4.043 -0.9057  1.0784  0.1965
12908TIP3   OH238659   1.857   7.918   4.159 -0.1157  0.3669  0.2405
12908TIP3    H138660   1.847   7.986   4.092 -1.5423  0.1651  0.2418
12908TIP3    H238661   1.868   7.837   4.110  0.7727  0.4745  0.2473
12909TIP3   OH238662   6.609   0.021   5.092  0.8737  0.4928 -0.0455
12909TIP3    H138663   6.579   0.093   5.148 -0.7603 -0.7316  0.7075
12909TIP3    H238664   6.660  -0.036   5.150  0.7703  0.1989 -0.2385
12910TIP3   OH238665   3.635   8.033   6.598 -0.0894  0.4635 -0.2293
12910TIP3    H138666   3.614   8.041   6.691 -1.8005 -0.1550 -0.5522
12910TIP3    H238667   3.657   7.941   6.586 -1.7562  0.1332 -0.8061
12911TIP3   OH238668   0.170   7.399   6.070  0.0673  0.2598  0.7368
12911TIP3    H138669   0.156   7.492   6.052  0.0970 -0.0142 -0.7537
12911TIP3    H238670   0.127   7.385   6.154 -2.3961  1.0374 -0.3242
12912TIP3   OH238671   4.613   0.572   5.544  0.0272  0.0253 -0.4293
12912TIP3    H138672   4.534   0.602   5.501  0.8171  0.8382 -1.3272
12912TIP3    H238673   4.669   0.649   5.550  0.5810 -0.4347  0.6093
12913TIP3   OH238674   5.742   0.344   3.466  0.0209  0.4645  0.1864
12913TIP3    H138675   5.760   0.401   3.391 -0.7661  1.1908  0.5405
12913TIP3    H238676   5.762   0.256   3.435 -1.0712  0.6729 -1.1150
12914TIP3   OH238677   0.194   2.991   2.040  0.5013 -0.4179 -0.3591
12914TIP3    H138678   0.241   2.910   2.025  1.4139 -0.0707  0.5624
12914TIP3    H238679   0.231   3.053   1.977 -0.7798 -0.9365 -1.6328
12915TIP3   OH238680   2.797   7.714   6.516  0.5878 -0.4499 -0.2510
12915TIP3    H138681   2.835   7.626   6.513 -1.1969 -1.1849 -2.3954
12915TIP3    H238682   2.758   7.719   6.604  1.6968 -1.3666  0.3095
12916TIP3   OH238683   4.650   1.521   5.179  0.0606  0.0301  0.6659
12916TIP3    H138684   4.707   1.533   5.102  0.0581  1.4539  0.8684
12916TIP3    H238685   4.572   1.477   5.144 -0.9344  2.6953 -0.6174
12917TIP3   OH238686   1.572   7.625   6.562 -0.2493  0.3049 -0.5142
12917TIP3    H138687   1.588   7.698   6.622  0.5115 -0.7028  0.5283
12917TIP3    H238688   1.479   7.630   6.542 -0.4166  0.9279  0.4012
12918TIP3   OH238689   5.305   0.006   5.786  0.3510  0.3343 -0.4846
12918TIP3    H138690   5.305   0.032   5.694  0.6509  1.2883 -0.2173
12918TIP3    H238691   5.274   0.083   5.833 -0.9066 -0.5155  0.1179
12919TIP3   OH238692   4.271   0.564   5.037 -0.0950 -0.4402 -0.4712
12919TIP3    H138693   4.280   0.581   4.944 -1.0028 -0.4993 -0.5819
12919TIP3    H238694   4.360   0.550   5.069  0.1671 -0.9101 -1.4155
12920TIP3   OH238695   3.084   7.691   5.335  0.9420  0.3501  0.0401
12920TIP3    H138696   3.066   7.626   5.268  0.7089 -1.1201  1.4929
12920TIP3    H238697   3.043   7.772   5.302 -0.3636 -0.6911 -0.9374
12921TIP3   OH238698   1.975   7.864   5.312 -0.3187 -0.4316  0.3067
12921TIP3    H138699   1.919   7.791   5.288  1.0349 -1.1918 -0.6324
12921TIP3    H238700   2.025   7.834   5.387 -0.1279 -0.2905  0.2386
12922TIP3   OH238701   7.785   3.522   0.040 -0.0542 -0.0773  0.3687
12922TIP3    H138702   7.740   3.515   0.125 -1.4704 -1.4035 -0.4596
12922TIP3    H238703   7.868   3.564   0.061 -1.1117  1.2381  2.1611
12923TIP3   OH238704   1.588   7.648   4.709 -0.0327 -0.0076 -0.5022
12923TIP3    H138705   1.536   7.626   4.631 -1.1464 -1.4621  0.6174
12923TIP3    H238706   1.558   7.586   4.775  1.9687  0.2426  0.6670
12924TIP3   OH238707   3.815   6.775   5.545 -0.2428  0.4207 -0.0748
12924TIP3    H138708   3.865   6.824   5.479 -0.2578  1.1617  0.4540
12924TIP3    H238709   3.752   6.725   5.494  2.2849 -2.0527 -0.9046
12925TIP3   OH238710   0.606   5.736   0.473 -0.2349  0.6113  0.4665
12925TIP3    H138711   0.675   5.677   0.443 -0.6414  0.7010 -0.6984
12925TIP3    H238712   0.649   5.792   0.538  0.8625  0.8424 -0.4330
12926TIP3   OH238713   1.217   7.800   6.284  0.0116  0.1247 -0.1886
12926TIP3    H138714   1.233   7.815   6.191  2.9250 -3.4410 -0.3493
12926TIP3    H238715   1.267   7.869   6.328 -1.0656  1.5832 -1.2010
12927TIP3   OH238716   3.533   7.265   6.076 -0.0954 -0.6033  0.2293
12927TIP3    H138717   3.574   7.180   6.095  0.3158 -0.4128  0.1802
12927TIP3    H238718   3.484   7.250   5.995  1.7731 -0.1943 -1.0175
12928TIP3   OH238719   1.350   7.436   5.799 -0.0776  0.4641  0.3658
12928TIP3    H138720   1.309   7.521   5.817  0.2964  0.8956 -0.7972
12928TIP3    H238721   1.444   7.454   5.804 -0.0028 -0.1570  1.3533
12929TIP3   OH238722   6.580   1.268   5.565 -0.1713 -0.5708  0.0167
12929TIP3    H138723   6.638   1.344   5.556 -0.9712 -0.0784 -0.9450
12929TIP3    H238724   6.547   1.275   5.655  0.9762 -0.6655  0.4661
12930TIP3   OH238725   7.307   0.540   4.920  0.2105  0.1669  0.4415
12930TIP3    H138726   7.396   0.513   4.941  0.3953  1.2628  1.0732
12930TIP3    H238727   7.252   0.474   4.964  0.7151 -1.7674 -1.7370
12931TIP3   OH238728   2.099   7.260   5.877 -0.7514 -0.3879 -0.2360
12931TIP3    H138729   2.156   7.284   5.804  0.4896 -0.3400  0.7328
12931TIP3    H238730   2.087   7.342   5.925 -0.3141 -0.7314  0.4648
12932TIP3   OH238731   6.327   0.270   4.019  0.1742 -0.0313  0.2479
12932TIP3    H138732   6.411   0.228   4.038  0.1842 -0.0151  0.2411
12932TIP3    H238733   6.278   0.204   3.969  0.2074 -0.0167  0.1964
12933TIP3   OH238734   8.317   4.266   2.163 -0.5444 -0.1113  0.3273
12933TIP3    H138735   8.223   4.257   2.176 -0.4176  0.6400  1.8793
12933TIP3    H238736   8.342   4.188   2.112 -1.9119 -0.5515  0.3211
12934TIP3   OH238737   5.611   0.205   3.662 -0.1881  0.1370 -0.8334
12934TIP3    H138738   5.669   0.189   3.736 -1.4987 -0.2165  0.1339
12934TIP3    H238739   5.665   0.253   3.599  0.0527  3.3620  1.6984
12935TIP3   OH238740   3.950   1.824   4.712  0.3296  0.3777 -0.5910
12935TIP3    H138741   3.907   1.896   4.667  0.2920  0.7512  0.0397
12935TIP3    H238742   3.989   1.772   4.642 -1.0839  0.0663 -1.1751
12936TIP3   OH238743   2.176   5.989   5.899  0.4277 -0.5524  0.6040
12936TIP3    H138744   2.128   5.908   5.882 -1.2724  0.6171 -0.3204
12936TIP3    H238745   2.262   5.960   5.928 -0.8539 -2.7156  2.4547
12937TIP3   OH238746   6.863   0.778   3.415  0.2566 -0.1025  0.4318
12937TIP3    H138747   6.849   0.872   3.420 -0.2948 -0.1525 -0.1385
12937TIP3    H238748   6.913   0.757   3.494  1.4912  0.8500 -0.0941
12938TIP3   OH238749   6.321   1.792   5.095  0.0959  0.3328 -0.4305
12938TIP3    H138750   6.371   1.724   5.141  0.2154 -0.0137 -1.0600
12938TIP3    H238751   6.336   1.774   5.002 -0.6608  0.6288 -0.6180
12939TIP3   OH238752   3.304   7.827   6.551 -0.1121  0.1371 -0.2446
12939TIP3    H138753   3.279   7.737   6.532  0.6760  0.1007 -1.1800
12939TIP3    H238754   3.369   7.848   6.484 -2.1054  2.2438 -1.5758
12940TIP3   OH238755   2.580   7.940   4.503 -0.3234 -0.6351 -0.1191
12940TIP3    H138756   2.605   7.860   4.457  0.4307 -0.9321  0.7774
12940TIP3    H238757   2.661   7.991   4.507 -0.6800 -0.0568 -0.2274
12941TIP3   OH238758   1.945   6.940   6.590 -0.0637 -0.1542  1.1552
12941TIP3    H138759   1.973   7.026   6.621  2.3449 -0.3764 -0.2769
12941TIP3    H238760   1.999   6.878   6.640 -2.0858 -0.8814  2.4903
12942TIP3   OH238761   6.791   2.589   1.763 -0.0081  0.2508 -0.5268
12942TIP3    H138762   6.750   2.662   1.810 -0.9939  0.1352 -1.1726
12942TIP3    H238763   6.726   2.518   1.769  0.4355 -0.1912 -0.9082
12943TIP3   OH238764   2.522   6.881   6.075 -0.3905  0.3375  0.2036
12943TIP3    H138765   2.609   6.887   6.036  0.3146 -2.3882  1.2321
12943TIP3    H238766   2.474   6.820   6.019 -0.1816 -1.6332  2.1246
12944TIP3   OH238767   7.547   3.563   1.738 -0.3524 -0.0396  0.2620
12944TIP3    H138768   7.636   3.528   1.737  0.0968  1.0453  1.0746
12944TIP3    H238769   7.559   3.658   1.744 -1.5575  0.1928 -0.8539
12945TIP3   OH238770   0.905   4.427   1.731 -0.3435 -0.1300 -0.3523
12945TIP3    H138771   0.891   4.516   1.765  0.0936 -0.3218  0.3247
12945TIP3    H238772   0.867   4.370   1.798 -1.3531 -0.4289 -1.1681
12946TIP3   OH238773   7.520   2.823   0.674  0.3096 -0.0241 -0.3580
12946TIP3    H138774   7.498   2.914   0.657 -0.0845 -0.2637 -1.1749
12946TIP3    H238775   7.484   2.775   0.599  2.1216 -0.6240 -0.8774
12947TIP3   OH238776   8.140   3.870   2.191 -0.5642 -0.6022 -0.3539
12947TIP3    H138777   8.079   3.818   2.243 -1.4802  0.4242 -0.4048
12947TIP3    H238778   8.130   3.837   2.102 -0.6222 -0.8174 -0.2676
12948TIP3   OH238779   5.634   0.643   5.205  0.1150  0.3188 -0.4342
12948TIP3    H138780   5.584   0.564   5.184 -0.3010  0.4274  0.1627
12948TIP3    H238781   5.573   0.715   5.193 -0.0394  0.4098  0.8171
12949TIP3   OH238782   4.826   2.273   5.237 -0.6066  0.2091  0.2239
12949TIP3    H138783   4.823   2.211   5.309 -1.2123  1.3508  1.2053
12949TIP3    H238784   4.779   2.230   5.165 -0.2385 -0.8165  0.5939
12950TIP3   OH238785   3.663   7.786   6.488  0.3486 -0.7051 -0.6216
12950TIP3    H138786   3.632   7.832   6.410 -0.2212 -0.5601 -0.3083
12950TIP3    H238787   3.687   7.699   6.456  0.1876 -0.6204 -0.9755
12951TIP3   OH238788   2.397   7.067   5.543 -0.0258  0.3849  0.0341
12951TIP3    H138789   2.478   7.114   5.564 -1.9438  2.9975  1.8922
12951TIP3    H238790   2.408   6.981   5.585  1.0660  1.3506  1.7889
12952TIP3   OH238791   5.842   1.653   4.745 -0.2371 -0.2420 -0.3848
12952TIP3    H138792   5.821   1.712   4.818 -3.0315  1.4065 -2.4068
12952TIP3    H238793   5.937   1.661   4.734  0.1512 -0.1129  2.6933
12953TIP3   OH238794   3.933   7.959   6.838  0.1757 -0.0152 -0.3598
12953TIP3    H138795   3.971   7.993   6.757  0.4658 -1.6635 -0.9333
12953TIP3    H238796   3.900   7.872   6.814 -1.8193  0.4155  0.7085
12954TIP3   OH238797   2.259   6.074   5.401  0.3001  0.1989  0.0970
12954TIP3    H138798   2.224   6.089   5.488  0.9822  0.9494  0.2443
12954TIP3    H238799   2.281   5.981   5.399 -1.2122 -0.1665  0.1736
12955TIP3   OH238800   7.306   3.240   1.897  0.3285  0.8209 -0.5881
12955TIP3    H138801   7.273   3.190   1.972  0.6887 -0.9136 -1.5492
12955TIP3    H238802   7.385   3.283   1.929 -1.9290  3.7697  1.3044
12956TIP3   OH238803   0.851   5.844  -0.010  0.0688  0.2333  0.4407
12956TIP3    H138804   0.801   5.876   0.066  0.1686  1.2670  0.0712
12956TIP3    H238805   0.939   5.879   0.003 -0.3536  1.8881 -1.0545
12957TIP3   OH238806   4.960   0.326   6.730 -0.6954  0.2076 -0.0558
12957TIP3    H138807   5.026   0.290   6.670  0.1005 -0.7150  1.3531
12957TIP3    H238808   4.878   0.320   6.681 -0.2328 -1.5900 -0.6374
12958TIP3   OH238809   0.147   3.684   0.022  0.6276  0.2899  0.8866
12958TIP3    H138810   0.176   3.613  -0.036  2.3101  1.0672  0.7325
12958TIP3    H238811   0.154   3.648   0.110 -1.8738 -0.8770  0.6385
12959TIP3   OH238812   6.023   0.440   5.838  0.3438  0.3000  0.3064
12959TIP3    H138813   6.056   0.492   5.764  0.0698  0.2696  0.1618
12959TIP3    H238814   6.083   0.365   5.844 -0.5294 -0.4997 -0.8482
12960TIP3   OH238815   0.210   4.126   0.581  0.4984  0.0693 -0.1545
12960TIP3    H138816   0.120   4.098   0.596  0.2393  0.5274 -0.8155
12960TIP3    H238817   0.251   4.053   0.535  0.6036 -0.3368  0.5838
12961TIP3   OH238818   4.705   7.241   4.343 -0.7163 -0.4007 -0.2170
12961TIP3    H138819   4.639   7.207   4.403 -0.5084  0.2354  0.3876
12961TIP3    H238820   4.722   7.169   4.282  0.3493 -1.7207  1.5629
12962TIP3   OH238821   4.349   1.087   4.822  0.3160  0.0399  0.3020
12962TIP3    H138822   4.279   1.102   4.886  0.7424  0.4953  0.6685
12962TIP3    H238823   4.430   1.095   4.873  0.6304 -0.7265 -0.0704
12963TIP3   OH238824   4.588   7.180   5.884  0.2766 -0.4055 -0.1489
12963TIP3    H138825   4.521   7.248   5.886 -0.2196 -0.8913 -0.2076
12963TIP3    H238826   4.560   7.117   5.951 -0.5284 -1.7417 -1.7158
12964TIP3   OH238827   1.975   7.664   4.109  0.0321  0.1366 -0.1552
12964TIP3    H138828   1.939   7.638   4.193 -0.7683 -0.0758 -0.5582
12964TIP3    H238829   2.026   7.589   4.080  1.0809  0.5643  0.5746
12965TIP3   OH238830   8.056   2.768   1.033 -0.2514  0.0179  0.3351
12965TIP3    H138831   8.034   2.675   1.023 -0.4023 -0.3457  3.4765
12965TIP3    H238832   8.027   2.808   0.952  0.3333 -2.7688 -1.3334
12966TIP3   OH238833   1.298   7.785   6.866  0.2578 -0.5729 -0.1239
12966TIP3    H138834   1.321   7.852   6.802  0.2171 -0.3258  0.1206
12966TIP3    H238835   1.294   7.831   6.950 -0.0381 -0.8280  0.0041
12967TIP3   OH238836   2.642   7.244   5.282  0.0642  0.0489 -0.4305
12967TIP3    H138837   2.726   7.217   5.245  0.3622  0.0861  0.2152
12967TIP3    H238838   2.640   7.202   5.369 -0.8964 -0.5515 -0.7324
12968TIP3   OH238839   0.512   4.136   1.521 -0.4545 -0.2940  0.5102
12968TIP3    H138840   0.588   4.088   1.553  0.1158  0.3608  0.1476
12968TIP3    H238841   0.471   4.076   1.458 -0.1936 -0.6128  0.6404
12969TIP3   OH238842   1.134   6.809   5.673  0.6260  0.6509  0.2037
12969TIP3    H138843   1.146   6.799   5.768 -1.6545 -0.0999  0.4470
12969TIP3    H238844   1.124   6.903   5.660  0.3725  0.7056  0.7796
12970TIP3   OH238845   0.783   1.790   1.531  0.2692 -0.2738 -0.4975
12970TIP3    H138846   0.856   1.826   1.581  0.7039 -1.1259 -0.5014
12970TIP3    H238847   0.705   1.818   1.578  0.6277  0.0472 -0.0922
12971TIP3   OH238848   2.700   5.532   3.609  0.6501  0.0931 -0.0880
12971TIP3    H138849   2.631   5.484   3.654  0.4205 -1.5359 -2.1040
12971TIP3    H238850   2.779   5.514   3.660 -0.1072  0.6960  1.3320
12972TIP3   OH238851   4.815   2.650   6.227  0.1471 -0.3235  0.3775
12972TIP3    H138852   4.890   2.711   6.223 -0.5554  0.5274  0.0548
12972TIP3    H238853   4.740   2.702   6.198 -0.6063 -1.1257  0.8539
12973TIP3   OH238854   2.769   5.731   6.731 -0.0643 -0.4803  0.8756
12973TIP3    H138855   2.840   5.689   6.684 -1.2926 -2.1513  0.4541
12973TIP3    H238856   2.811   5.771   6.808  1.5144 -0.1933 -0.1217
12974TIP3   OH238857   7.976   2.050   0.035  0.2016 -0.0667  0.7982
12974TIP3    H138858   8.033   2.001  -0.024 -0.5803 -0.6137  0.4915
12974TIP3    H238859   8.035   2.111   0.079  0.8062  0.2640 -0.4579
12975TIP3   OH238860   8.392   6.646   4.204 -0.4910  0.2051 -0.0134
12975TIP3    H138861   8.330   6.718   4.206 -0.5872  0.0967  3.1669
12975TIP3    H238862   8.344   6.571   4.240  0.2453 -0.9199 -1.3122
12976TIP3   OH238863   2.085   7.329   4.349 -0.4197  0.2404  0.3461
12976TIP3    H138864   2.061   7.238   4.363 -1.9884  0.3120 -1.6023
12976TIP3    H238865   2.178   7.334   4.373 -0.3976 -1.7973  0.7349
12977TIP3   OH238866   0.816   6.529   5.532 -0.3453  0.0575  0.0867
12977TIP3    H138867   0.723   6.552   5.528 -0.7217 -1.2350  0.8695
12977TIP3    H238868   0.855   6.574   5.458 -1.6817  0.2519 -0.5246
12978TIP3   OH238869   6.078   1.094   6.449 -0.0633 -0.0711  0.4855
12978TIP3    H138870   6.058   1.020   6.391 -1.3462  0.3109  0.4323
12978TIP3    H238871   6.108   1.163   6.391 -0.6163  0.0594  0.3600
12979TIP3   OH238872   2.457   7.162   6.270  0.5738  0.7156 -0.8130
12979TIP3    H138873   2.389   7.220   6.235 -2.0445 -1.9231 -0.3605
12979TIP3    H238874   2.437   7.157   6.364 -0.2618 -2.0934 -1.0941
12980TIP3   OH238875   2.384   7.994   6.531  0.3879 -0.5137  0.0055
12980TIP3    H138876   2.444   7.920   6.522  0.5191 -0.4392  0.2671
12980TIP3    H238877   2.328   7.989   6.454 -0.3653 -1.5807  0.6036
12981TIP3   OH238878   7.644   4.355   2.256  0.3989  0.3480  0.6240
12981TIP3    H138879   7.678   4.428   2.203  0.3515  0.7349  1.1261
12981TIP3    H238880   7.578   4.395   2.312  0.5083 -0.0460  1.0359
12982TIP3   OH238881   7.301   4.033   2.021  0.3459 -0.0576 -0.1389
12982TIP3    H138882   7.311   3.938   2.020 -2.2040 -0.3583 -0.3684
12982TIP3    H238883   7.384   4.066   2.055  1.6427 -2.3002 -1.0363
12983TIP3   OH238884   4.635   7.097   5.623 -0.0912  0.2402 -0.2914
12983TIP3    H138885   4.616   7.004   5.610 -2.7319  0.7899 -0.6453
12983TIP3    H238886   4.617   7.112   5.716  0.5905  0.3252 -0.1767
12984TIP3   OH238887   4.338   6.956   5.487 -0.0971  0.1923 -0.0345
12984TIP3    H138888   4.421   6.928   5.526  0.4393  0.4579 -0.9736
12984TIP3    H238889   4.271   6.909   5.537  0.6091  0.1221  0.8484
12985TIP3   OH238890   4.240   7.140   5.077  0.2537  0.5882 -0.1584
12985TIP3    H138891   4.182   7.144   5.153  1.0835 -1.6272  0.6032
12985TIP3    H238892   4.328   7.151   5.113  0.6429 -0.3766 -0.8058
12986TIP3   OH238893   3.948   7.776   5.602  0.2496 -0.2518 -0.7559
12986TIP3    H138894   4.037   7.809   5.617  0.2392 -0.7905  0.5763
12986TIP3    H238895   3.918   7.749   5.689 -1.5824  0.8412 -1.0358
12987TIP3   OH238896   4.374   7.472   6.322  0.2125  0.2221 -0.1840
12987TIP3    H138897   4.282   7.453   6.342  0.1640  0.3478 -0.2850
12987TIP3    H238898   4.420   7.390   6.341  0.4369  0.8424  2.0798
12988TIP3   OH238899   4.174   7.558   4.597  0.2576  0.0753  0.7419
12988TIP3    H138900   4.165   7.654   4.597 -0.5071  0.0215 -0.3874
12988TIP3    H238901   4.224   7.539   4.518 -1.3179 -0.5730 -0.1385
12989TIP3   OH238902   6.558   0.818   4.904 -0.5694  0.2306 -0.0182
12989TIP3    H138903   6.514   0.800   4.822  1.5953  1.0915 -1.4347
12989TIP3    H238904   6.648   0.787   4.891 -0.2843  0.0334  2.1500
12990TIP3   OH238905   6.029   1.134   5.689 -0.6835  0.2496  0.3001
12990TIP3    H138906   6.051   1.078   5.764  1.1117 -0.7324 -0.9302
12990TIP3    H238907   5.937   1.114   5.670 -1.0535  0.2445  1.9849
12991TIP3   OH238908   3.061   7.349   3.887  0.4036 -0.3316  0.2721
12991TIP3    H138909   3.137   7.343   3.830  0.6645  2.1156  0.3099
12991TIP3    H238910   3.097   7.342   3.976  0.5536  0.5399  0.2807
12992TIP3   OH238911   6.709   7.671   5.664 -0.1586 -0.2651  0.4624
12992TIP3    H138912   6.696   7.622   5.583 -0.1491  0.6610 -0.1064
12992TIP3    H238913   6.654   7.626   5.729 -2.0595  0.4405 -0.6370
12993TIP3   OH238914   7.602   0.196   5.721 -0.2951  0.1907  0.1724
12993TIP3    H138915   7.626   0.189   5.628  0.1193 -0.2620  0.3105
12993TIP3    H238916   7.510   0.173   5.724 -1.0666  2.9188 -0.5152
12994TIP3   OH238917   5.298   0.795   6.324  0.2685  0.0680  0.4800
12994TIP3    H138918   5.332   0.881   6.349  0.5397 -0.2711  1.3114
12994TIP3    H238919   5.337   0.777   6.238 -0.7738  1.3104 -0.2716
12995TIP3   OH238920   3.039   7.951   5.239 -0.2728 -0.0652  0.4534
12995TIP3    H138921   2.973   7.916   5.178  0.1533  1.5380 -0.9837
12995TIP3    H238922   3.096   8.004   5.183  0.4988  0.9375  2.1745
12996TIP3   OH238923   8.490   0.944   5.043  0.4512 -0.2262  0.5958
12996TIP3    H138924   8.417   0.973   4.988  1.0447  0.0148 -0.0637
12996TIP3    H238925   8.546   0.893   4.985  2.5073  2.3094  0.2430
12997TIP3   OH238926   2.612   7.461   5.670 -0.0794 -0.6174 -0.2192
12997TIP3    H138927   2.618   7.529   5.602  1.1334 -0.5188 -0.0242
12997TIP3    H238928   2.635   7.506   5.751 -1.0129 -0.8620  0.1871
12998TIP3   OH238929   6.893   0.430   5.356  0.1126  0.1765 -0.0444
12998TIP3    H138930   6.844   0.489   5.415  0.7278  1.7842 -1.1033
12998TIP3    H238931   6.860   0.450   5.269 -2.0167 -3.4122 -0.1351
12999TIP3   OH238932   6.713   0.661   5.434  0.5335 -0.1706  0.4328
12999TIP3    H138933   6.708   0.710   5.352 -1.0629  0.3340  0.8206
12999TIP3    H238934   6.759   0.719   5.495  0.7400 -0.1070  0.2147
13000TIP3   OH238935   6.907   0.166   4.882 -0.1161 -0.2251 -0.2253
13000TIP3    H138936   6.938   0.096   4.940  0.0544  0.3014  0.3129
13000TIP3    H238937   6.819   0.139   4.857 -1.1926  0.7858  2.2964
13001TIP3   OH238938   3.875   6.478   3.105  0.3288 -0.4601 -0.4131
13001TIP3    H138939   3.894   6.479   3.199 -3.6077  0.5710  0.4342
13001TIP3    H238940   3.890   6.387   3.079  0.8757 -0.8841  1.3298
13002TIP3   OH238941   4.579   7.631   2.749 -0.3024 -0.5605  0.1581
13002TIP3    H138942   4.628   7.555   2.716  0.6840 -0.0481  0.4405
13002TIP3    H238943   4.579   7.620   2.844 -0.5444 -0.4373  0.1730
13003TIP3   OH238944   3.503   7.210   3.709  0.0749 -0.2080 -0.6414
13003TIP3    H138945   3.553   7.281   3.749  0.4930 -0.2604 -1.0713
13003TIP3    H238946   3.498   7.143   3.778  0.2158 -0.0217 -0.4473
13004TIP3   OH238947   0.678   4.455   0.158  0.3567 -0.3856  0.1377
13004TIP3    H138948   0.680   4.529   0.218 -0.1100 -0.9845  0.9061
13004TIP3    H238949   0.735   4.480   0.086  0.8996  0.3505  0.8230
13005TIP3   OH238950   2.897   7.986   3.778  0.1863  0.6857  0.1420
13005TIP3    H138951   2.971   7.954   3.726  1.0960  2.7987  0.0704
13005TIP3    H238952   2.829   7.921   3.766  1.2390 -0.1044 -1.7079
13006TIP3   OH238953   0.804   1.706   6.343  0.3218 -0.1397  0.0512
13006TIP3    H138954   0.854   1.785   6.327 -0.0053  0.1159  0.2764
13006TIP3    H238955   0.717   1.724   6.307  0.1663 -0.2892  0.3439
13007TIP3   OH238956   5.229   7.442   5.530  0.0280 -0.0937 -0.2921
13007TIP3    H138957   5.158   7.482   5.479  0.8196  2.8133  0.7768
13007TIP3    H238958   5.246   7.505   5.600  1.8352 -2.0280  1.0516
13008TIP3   OH238959   2.651   6.237   2.960  0.4240 -0.5993 -0.1606
13008TIP3    H138960   2.621   6.157   2.916  0.1865 -0.6310  0.0566
13008TIP3    H238961   2.739   6.215   2.991  0.6021 -0.5674 -0.6418
13009TIP3   OH238962   4.427   7.255   4.794  0.1132  0.5166 -0.1483
13009TIP3    H138963   4.428   7.350   4.807 -2.4452  0.4107  1.2565
13009TIP3    H238964   4.447   7.218   4.881 -2.6338 -0.1865  0.2458
13010TIP3   OH238965   6.963   5.677   4.668  0.4183  0.5691 -0.2339
13010TIP3    H138966   7.023   5.750   4.683  1.9230 -0.8361  0.6948
13010TIP3    H238967   7.009   5.620   4.606 -0.0517 -0.4099  0.2982
13011TIP3   OH238968   3.190   3.782   0.130 -0.0784 -0.1973  0.6415
13011TIP3    H138969   3.232   3.868   0.122  2.6009 -1.2880  2.5058
13011TIP3    H238970   3.106   3.801   0.173  0.5598  1.4551  1.2078
13012TIP3   OH238971   3.057   7.816   5.753 -0.3386  0.1237  0.1154
13012TIP3    H138972   3.072   7.910   5.741  0.2318  0.0080 -0.1257
13012TIP3    H238973   3.009   7.789   5.675 -0.6986  0.2576  0.2904
13013TIP3   OH238974   6.456   0.781   6.165 -0.6988 -1.0375 -0.6123
13013TIP3    H138975   6.448   0.874   6.141  1.3899 -0.5830  0.3069
13013TIP3    H238976   6.421   0.734   6.090 -1.5493  0.4919 -1.2120
13014TIP3   OH238977   3.563   6.844   4.554 -0.0020  0.2413  0.4597
13014TIP3    H138978   3.616   6.919   4.526  0.8256 -1.0417 -1.5382
13014TIP3    H238979   3.624   6.789   4.604 -0.5347  0.7564  1.6857
13015TIP3   OH238980   3.626   7.115   6.617  0.3511 -0.0554 -0.3341
13015TIP3    H138981   3.576   7.168   6.554  1.0044 -1.4158 -2.0177
13015TIP3    H238982   3.697   7.173   6.646 -1.2546  1.3463  0.8830
13016TIP3   OH238983   5.913   7.055   6.114  0.3371  0.7520  0.3369
13016TIP3    H138984   5.865   7.074   6.033 -1.1524 -1.7310  0.5796
13016TIP3    H238985   5.998   7.023   6.084 -0.3709 -0.6015 -0.3071
13017TIP3   OH238986   6.104   0.346   3.456  0.1031  0.7831 -0.1673
13017TIP3    H138987   6.178   0.286   3.464  0.3527  0.9738 -1.0497
13017TIP3    H238988   6.052   0.330   3.535  0.5137 -0.1151 -0.0714
13018TIP3   OH238989   4.615   7.857   3.149 -0.0584 -0.0126 -0.1496
13018TIP3    H138990   4.563   7.899   3.217 -0.1082 -1.1943  0.5446
13018TIP3    H238991   4.686   7.814   3.196 -0.3366 -1.2021 -0.8112
13019TIP3   OH238992   2.664   7.968   4.903  0.2002  0.0264 -0.1762
13019TIP3    H138993   2.618   8.032   4.958 -0.1655  0.0603 -0.5186
13019TIP3    H238994   2.716   7.917   4.965 -0.4839 -0.1625  0.2532
13020TIP3   OH238995   4.239   7.657   6.604 -0.3007  0.3438  0.4501
13020TIP3    H138996   4.324   7.668   6.562 -0.9197 -0.9619 -1.1853
13020TIP3    H238997   4.183   7.721   6.562 -0.2019  1.0478  1.3709
13021TIP3   OH238998   8.279   0.589   6.604 -0.2647 -0.1471  0.1336
13021TIP3    H138999   8.359   0.536   6.597  0.2635  0.8182 -1.1563
13021TIP3    H239000   8.280   0.620   6.695  1.1894  0.4348 -0.0707
13022TIP3   OH239001   3.492   0.460   4.639 -0.2352  0.0828 -0.5550
13022TIP3    H139002   3.556   0.423   4.579  0.3729  0.3595 -0.0817
13022TIP3    H239003   3.442   0.385   4.670  1.2832 -0.4115  0.7557
13023TIP3   OH239004   3.375   5.718   5.551  0.2474 -0.2336 -0.3746
13023TIP3    H139005   3.396   5.759   5.467  0.8466 -1.3005 -0.7613
13023TIP3    H239006   3.459   5.716   5.598 -0.1516  0.6625  0.3928
13024TIP3   OH239007   3.688   6.875   5.949 -0.2992  0.3860  0.2293
13024TIP3    H139008   3.609   6.834   5.912  0.4455 -0.6657 -0.2112
13024TIP3    H239009   3.716   6.938   5.883  0.1819 -0.4372 -0.3610
13025TIP3   OH239010   2.638   3.128   0.203  0.1162  0.3546  0.3099
13025TIP3    H139011   2.577   3.056   0.221  0.1092  0.0851 -0.7221
13025TIP3    H239012   2.724   3.094   0.228  0.4275 -0.8439 -2.2238
13026TIP3   OH239013   7.326   0.222   3.486  0.0159 -0.6459 -0.3492
13026TIP3    H139014   7.320   0.278   3.408 -0.6447 -1.4384 -0.8646
13026TIP3    H239015   7.243   0.234   3.531  0.7817  0.5987  0.7919
13027TIP3   OH239016   2.988   7.696   4.951  0.1116  0.0903 -0.7521
13027TIP3    H139017   3.069   7.746   4.957  0.6834 -0.7623 -1.1998
13027TIP3    H239018   2.954   7.716   4.864 -0.3608  0.7333 -0.4278
13028TIP3   OH239019   7.088   2.661   0.879  0.1331 -0.1886  0.1678
13028TIP3    H139020   7.175   2.623   0.866  0.3975  0.4576  0.0336
13028TIP3    H239021   7.055   2.618   0.958  0.4552 -0.6442  0.0585
13029TIP3   OH239022   3.641   7.486   4.743  0.1818 -0.2269 -0.1625
13029TIP3    H139023   3.725   7.487   4.698  0.2945  0.1913  0.0498
13029TIP3    H239024   3.631   7.575   4.777 -0.7522 -0.0194 -0.9402
13030TIP3   OH239025   0.264   2.879   0.346  0.5773 -0.0075 -0.3788
13030TIP3    H139026   0.261   2.818   0.272 -1.0294 -0.5204  0.0955
13030TIP3    H239027   0.251   2.965   0.305  0.5771 -0.1990 -0.7894
13031TIP3   OH239028   5.310   6.520   5.034  0.3707  0.4385 -0.0551
13031TIP3    H139029   5.290   6.505   4.942  0.2915  2.4690 -0.3994
13031TIP3    H239030   5.323   6.433   5.071 -0.4166 -0.4337 -1.7995
13032TIP3   OH239031   4.047   6.868   6.760 -0.3534 -0.0159  0.4818
13032TIP3    H139032   3.955   6.892   6.750 -0.1698 -0.0915 -1.6891
13032TIP3    H239033   4.083   6.934   6.819 -0.9877  2.1233 -1.4650
13033TIP3   OH239034   2.479   7.602   3.388  0.2168  0.1704  0.0835
13033TIP3    H139035   2.511   7.590   3.299  0.4082 -0.5947  0.2508
13033TIP3    H239036   2.386   7.622   3.378  0.0073 -0.9072 -0.2473
13034TIP3   OH239037   7.492   2.966   1.446  0.3861 -0.1715  0.0310
13034TIP3    H139038   7.444   2.885   1.464 -1.7347  1.1010  0.2729
13034TIP3    H239039   7.481   3.018   1.525  2.6636 -0.0346  0.3116
13035TIP3   OH239040   4.136   7.631   2.606  0.1376  0.2926 -0.5716
13035TIP3    H139041   4.135   7.619   2.701 -1.5158 -1.8497 -0.8323
13035TIP3    H239042   4.220   7.594   2.579  0.0081 -0.3752 -0.0836
13036TIP3   OH239043   8.400   2.474   1.616 -0.0274 -0.1635  0.1203
13036TIP3    H139044   8.377   2.546   1.674 -0.2267  0.0251 -0.1891
13036TIP3    H239045   8.322   2.462   1.561 -0.0885 -0.7758  0.3333
13037TIP3   OH239046   4.804   5.674   6.237 -0.1922 -0.2597 -0.0533
13037TIP3    H139047   4.740   5.607   6.211 -0.0937 -0.0261 -0.9026
13037TIP3    H239048   4.887   5.627   6.243 -0.4103 -0.5262  0.8686
13038TIP3   OH239049   4.427   5.484   6.205 -0.3721 -0.2322  0.4428
13038TIP3    H139050   4.375   5.404   6.213 -0.2533 -0.1726  1.9959
13038TIP3    H239051   4.413   5.530   6.288  0.5250  0.7821  0.0481
13039TIP3   OH239052   2.950   7.707   4.444  0.4679  0.1446 -0.1173
13039TIP3    H139053   2.930   7.763   4.368  1.0470 -1.4508 -1.4813
13039TIP3    H239054   3.021   7.651   4.414  0.1843 -1.0424  1.3637
13040TIP3   OH239055   4.637   6.952   4.874 -0.3647 -0.5636  0.1002
13040TIP3    H139056   4.716   6.957   4.928 -1.0153 -3.2221  1.3570
13040TIP3    H239057   4.665   6.911   4.793 -0.6040 -2.3962  0.9196
13041TIP3   OH239058   1.998   5.760   5.848 -0.2239  0.7500  0.0383
13041TIP3    H139059   1.923   5.794   5.897 -0.4672  0.6995 -0.3013
13041TIP3    H239060   2.030   5.687   5.901  0.8232  2.0072  1.2211
13042TIP3   OH239061   6.296   0.555   4.929 -0.2987 -0.5709 -0.0857
13042TIP3    H139062   6.382   0.547   4.969  1.2833 -0.6422 -3.3571
13042TIP3    H239063   6.307   0.621   4.861 -2.4524 -1.6522 -1.5495
13043TIP3   OH239064   2.566   7.165   6.654  0.2601  0.5314 -0.3254
13043TIP3    H139065   2.482   7.169   6.609 -0.3646  0.9207  0.8561
13043TIP3    H239066   2.557   7.093   6.716  1.0200  0.1754 -0.6168
13044TIP3   OH239067   5.762   0.597   6.182 -0.3345  0.3889 -0.0548
13044TIP3    H139068   5.754   0.616   6.088 -2.0058  1.4724  0.2795
13044TIP3    H239069   5.680   0.552   6.204 -0.6154  1.5024  1.2053
13045TIP3   OH239070   5.052   7.501   6.158  0.0361  0.0214 -0.2689
13045TIP3    H139071   5.025   7.410   6.145  3.1212 -0.7633 -1.9131
13045TIP3    H239072   5.019   7.547   6.081 -0.3146 -0.0253 -0.1448
13046TIP3   OH239073   3.209   3.839   0.715 -0.1220 -0.4321  0.3110
13046TIP3    H139074   3.288   3.873   0.674 -0.0070 -0.5996  0.3882
13046TIP3    H239075   3.211   3.745   0.696 -1.5998 -0.0525 -1.8198
13047TIP3   OH239076   1.475   6.725   1.938 -0.7909  0.4213 -0.3647
13047TIP3    H139077   1.455   6.789   1.870 -0.1818  1.7920  0.7029
13047TIP3    H239078   1.571   6.730   1.948 -0.8919  0.3626  0.6929
13048TIP3   OH239079   3.158   7.578   4.351 -0.5560  0.2304  0.0749
13048TIP3    H139080   3.190   7.493   4.381  0.1647  0.9788  1.4637
13048TIP3    H239081   3.201   7.592   4.267  1.2544  0.3339  1.0040
13049TIP3   OH239082   7.897   0.936   6.168 -0.3937 -0.2755 -0.2393
13049TIP3    H139083   7.916   0.961   6.258 -1.8668  1.3151 -0.3475
13049TIP3    H239084   7.973   0.967   6.118 -0.6000  0.8539  0.1463
13050TIP3   OH239085   2.616   6.771   4.552 -0.1452  0.5237 -0.5529
13050TIP3    H139086   2.653   6.708   4.614 -0.7664  0.3546 -0.3572
13050TIP3    H239087   2.626   6.729   4.467  0.7966  0.7974 -0.5863
13051TIP3   OH239088   2.183   6.624   3.825 -0.3182  0.1078  0.0023
13051TIP3    H139089   2.255   6.565   3.843 -0.3907  0.2076  0.6566
13051TIP3    H239090   2.212   6.677   3.751  0.8891  1.1650  1.2111
13052TIP3   OH239091   6.903   1.201   2.942 -0.0436  0.2106  0.3979
13052TIP3    H139092   6.846   1.138   2.899  1.4583  0.4002 -1.9751
13052TIP3    H239093   6.862   1.217   3.027 -1.6083 -2.2754  0.1547
13053TIP3   OH239094   3.737   6.608   6.667  0.7137  0.3797  0.3965
13053TIP3    H139095   3.734   6.697   6.632  1.3275  0.0623 -0.4703
13053TIP3    H239096   3.652   6.570   6.644  0.6768  0.5508  0.2514
13054TIP3   OH239097   3.859   7.829   5.871  0.1983 -0.3916  0.5551
13054TIP3    H139098   3.844   7.794   5.959  1.3508 -0.6378  0.6632
13054TIP3    H239099   3.812   7.913   5.871 -0.4187 -0.7289  1.1571
13055TIP3   OH239100   4.682   7.813   3.701 -0.1466 -0.0084 -0.3518
13055TIP3    H139101   4.608   7.757   3.675  0.1053 -0.8497  0.6899
13055TIP3    H239102   4.650   7.902   3.689 -0.8034 -0.3667 -1.3612
13056TIP3   OH239103   7.974   1.939   5.455  0.3258  0.1653  0.6761
13056TIP3    H139104   7.940   1.917   5.542  0.9778  0.9610  1.1450
13056TIP3    H239105   7.909   2.000   5.419  0.4541  0.4520  0.9282
13057TIP3   OH239106   2.088   3.652   0.056  0.2048 -0.5236  0.3682
13057TIP3    H139107   2.079   3.577  -0.003  0.4709 -2.3007  2.5393
13057TIP3    H239108   1.999   3.669   0.087  0.1288  0.1685 -0.1913
13058TIP3   OH239109   5.739   2.278   5.079 -0.1281 -0.5766  0.1069
13058TIP3    H139110   5.709   2.333   5.007  0.1535 -0.5807 -0.0136
13058TIP3    H239111   5.668   2.214   5.092 -0.2148 -0.5222 -0.1078
13059TIP3   OH239112   5.120   7.918   5.070  0.0363 -0.0849  0.4941
13059TIP3    H139113   5.061   7.867   5.015 -1.7118  0.7031  1.6150
13059TIP3    H239114   5.157   7.984   5.011 -2.4978  1.3179  0.4188
13060TIP3   OH239115   6.691   1.611   3.256 -0.0373 -0.2724  0.3682
13060TIP3    H139116   6.654   1.578   3.338 -0.6142  1.0283  0.6462
13060TIP3    H239117   6.645   1.562   3.188 -0.7251 -0.2085  0.7830
13061TIP3   OH239118   0.893   3.993   0.584  0.1401 -0.2677 -0.0342
13061TIP3    H139119   0.809   3.985   0.629  0.9076 -2.1810  1.0962
13061TIP3    H239120   0.901   4.087   0.567 -1.9617  0.0139  0.3234
13062TIP3   OH239121   3.734   7.131   4.871  0.0841  0.8699  0.3853
13062TIP3    H139122   3.765   7.071   4.803 -1.2966 -0.7033  1.0925
13062TIP3    H239123   3.639   7.137   4.856 -0.4289 -0.3715  2.7832
13063TIP3   OH239124   3.160   5.854   2.242 -0.0948  0.2325  0.3186
13063TIP3    H139125   3.241   5.886   2.283  0.3416  0.5143 -0.7360
13063TIP3    H239126   3.189   5.783   2.185 -0.8501 -0.9616  1.4051
13064TIP3   OH239127   6.828   0.728   4.858  0.1128 -0.3900  0.5029
13064TIP3    H139128   6.912   0.717   4.901 -0.2253 -1.6615  0.8466
13064TIP3    H239129   6.814   0.647   4.810  0.1851  0.7501 -1.4919
13065TIP3   OH239130   4.760   7.253   5.442  0.6578  0.2115  0.2074
13065TIP3    H139131   4.710   7.190   5.495  0.9287  0.6986  1.0488
13065TIP3    H239132   4.820   7.293   5.504  1.4164  0.3358 -0.6075
13066TIP3   OH239133   3.268   7.910   3.113  0.3799  0.0732 -0.5747
13066TIP3    H139134   3.185   7.866   3.130 -0.0528  1.1402  0.0908
13066TIP3    H239135   3.282   7.898   3.019 -0.7419  0.2611 -0.7755
13067TIP3   OH239136   3.214   7.921   5.513 -0.2723  0.3321 -0.2130
13067TIP3    H139137   3.204   7.859   5.441 -0.6838 -0.0466  0.1680
13067TIP3    H239138   3.208   8.007   5.472 -1.4779  0.1142 -0.5057
13068TIP3   OH239139   3.378   6.900   4.742 -0.3735  0.2451  0.3948
13068TIP3    H139140   3.444   6.860   4.686  0.0293  2.3466 -0.6987
13068TIP3    H239141   3.389   6.858   4.827  1.2298 -0.6293 -0.2351
13069TIP3   OH239142   2.212   6.061   4.243 -0.6651 -0.3657  0.4823
13069TIP3    H139143   2.160   6.112   4.182 -1.7811 -1.0179  0.8647
13069TIP3    H239144   2.165   6.069   4.326 -1.4099 -2.7977  0.3304
13070TIP3   OH239145   4.456   0.333   5.732 -1.1916  0.2667 -0.2483
13070TIP3    H139146   4.495   0.394   5.670  2.8382  0.9408  2.7578
13070TIP3    H239147   4.499   0.249   5.714 -0.9054  0.1766  0.8077
13071TIP3   OH239148   5.470   6.663   5.386  0.0535  0.5440  0.2434
13071TIP3    H139149   5.456   6.713   5.305  0.6595  1.8557  0.9235
13071TIP3    H239150   5.493   6.575   5.357  1.7506  1.4008 -1.0376
13072TIP3   OH239151   4.935   7.387   3.842  0.0622 -0.2156  0.1610
13072TIP3    H139152   4.915   7.463   3.897 -0.3360 -0.1529 -0.0676
13072TIP3    H239153   4.911   7.312   3.897  0.9506 -0.1914  0.5829
13073TIP3   OH239154   4.706   7.769   3.966  0.1736  0.2956 -0.7740
13073TIP3    H139155   4.773   7.702   3.979  0.2439  0.4466 -0.3576
13073TIP3    H239156   4.714   7.793   3.873 -0.0108 -0.4378 -0.9872
13074TIP3   OH239157   2.386   6.885   3.942  0.2626  0.6521  0.1673
13074TIP3    H139158   2.347   6.828   3.875  2.3204 -0.5217 -0.0807
13074TIP3    H239159   2.360   6.973   3.916 -0.7957  0.0216 -0.9504
13075TIP3   OH239160   1.031   4.403   1.144  0.1917  0.4209 -0.2882
13075TIP3    H139161   1.122   4.428   1.164 -0.0894  2.3976 -1.3152
13075TIP3    H239162   1.037   4.311   1.119  1.9284  0.5298 -0.3813
13076TIP3   OH239163   3.264   7.638   4.102 -0.3007  0.3163 -0.4076
13076TIP3    H139164   3.307   7.721   4.123 -0.8517  0.1543  1.3748
13076TIP3    H239165   3.176   7.664   4.073 -0.8989  0.2752  1.3610
13077TIP3   OH239166   7.015   0.356   5.614 -1.1935  0.2767  0.3063
13077TIP3    H139167   7.105   0.384   5.629 -0.8863 -1.0975  1.1556
13077TIP3    H239168   7.001   0.367   5.520 -0.6795  2.0058  0.4126
13078TIP3   OH239169   2.860   6.096   3.619 -0.3089 -0.1716  0.4712
13078TIP3    H139170   2.888   6.180   3.657 -0.8119 -0.1243  0.7425
13078TIP3    H239171   2.941   6.048   3.604 -0.0431  0.2115  0.6772
13079TIP3   OH239172   0.717   0.785   5.622 -0.2159 -0.1046  0.3848
13079TIP3    H139173   0.812   0.787   5.634 -0.2334 -0.0992  0.5292
13079TIP3    H239174   0.683   0.843   5.690 -0.3393 -0.3339  0.5193
13080TIP3   OH239175   7.331   2.197   5.546 -0.4356 -0.3589 -0.2726
13080TIP3    H139176   7.408   2.252   5.561 -1.1334  1.1671 -2.1288
13080TIP3    H239177   7.338   2.169   5.455 -3.0019  1.3420 -1.0429
13081TIP3   OH239178   1.263   7.165   5.391 -0.4535 -0.0926 -0.0474
13081TIP3    H139179   1.332   7.156   5.325 -0.6005  0.3291 -0.2573
13081TIP3    H239180   1.211   7.239   5.362 -1.3807 -0.8089 -0.2343
13082TIP3   OH239181   1.694   7.606   3.983  0.5689 -0.5192 -0.0301
13082TIP3    H139182   1.760   7.668   3.953  0.3839 -1.3793 -2.3110
13082TIP3    H239183   1.742   7.526   4.002  0.2145 -1.1168 -1.6016
13083TIP3   OH239184   3.368   7.208   4.151  0.2911  0.0312 -0.2070
13083TIP3    H139185   3.306   7.135   4.143  0.2572  0.1714 -1.2168
13083TIP3    H239186   3.452   7.170   4.126  0.4119  0.1447  0.0228
13084TIP3   OH239187   7.162   0.359   5.326  0.0038  0.3031 -0.1853
13084TIP3    H139188   7.073   0.396   5.330 -0.0857  0.1037 -0.3017
13084TIP3    H239189   7.189   0.375   5.235 -0.9874 -2.0995 -0.9469
13085TIP3   OH239190   1.314   0.513   5.353  0.0357  0.2072  0.1928
13085TIP3    H139191   1.283   0.579   5.415 -3.0693  1.8755 -3.0016
13085TIP3    H239192   1.398   0.548   5.323  0.0384  0.9826  1.0398
13086TIP3   OH239193   0.533   2.804   0.250 -0.1656 -0.4323  0.0563
13086TIP3    H139194   0.528   2.897   0.273 -0.7079 -0.3365 -0.4406
13086TIP3    H239195   0.592   2.767   0.315  2.1818  0.7763 -1.3059
13087TIP3   OH239196   7.081   3.994   0.815 -0.0926 -0.0065  0.2501
13087TIP3    H139197   7.112   4.004   0.725 -0.4387  1.1998  0.2550
13087TIP3    H239198   7.153   3.952   0.861  0.9133  1.3193 -0.0962
13088TIP3   OH239199   8.282   3.774   0.069  0.1309  0.3621  0.2229
13088TIP3    H139200   8.337   3.735   0.136  1.0215 -1.0707 -1.3127
13088TIP3    H239201   8.326   3.856   0.047  1.2199 -0.3882 -0.4232
13089TIP3   OH239202   1.998   3.508   0.418 -0.3954 -0.0466  0.4315
13089TIP3    H139203   2.081   3.511   0.464  0.3444  0.1829 -0.8927
13089TIP3    H239204   1.996   3.421   0.377 -0.0751  0.5533 -0.8677
13090TIP3   OH239205   6.708   1.071   6.476 -0.2817  0.2546 -0.2415
13090TIP3    H139206   6.654   1.140   6.515  0.4873  0.2553  0.8259
13090TIP3    H239207   6.796   1.086   6.510  0.0280 -0.8617 -0.5119
13091TIP3   OH239208   1.875   3.716   0.271 -0.1342 -0.3996  0.0110
13091TIP3    H139209   1.914   3.647   0.325 -1.0955 -0.7289  0.2907
13091TIP3    H239210   1.841   3.780   0.334  1.2461  0.6301 -0.2509
13092TIP3   OH239211   2.811   7.568   5.887 -0.0846 -0.1203 -0.3843
13092TIP3    H139212   2.797   7.589   5.979  3.0845  1.2352 -0.1686
13092TIP3    H239213   2.815   7.653   5.843 -0.1070 -0.7131 -1.5714
13093TIP3   OH239214   8.251   0.199   5.740  0.2871 -0.0877  0.6185
13093TIP3    H139215   8.269   0.151   5.659  1.4817 -1.5295  1.6889
13093TIP3    H239216   8.315   0.270   5.741 -0.1437  0.3142  0.0027
13094TIP3   OH239217   3.580   6.564   4.783 -0.1497  0.2675 -0.2525
13094TIP3    H139218   3.606   6.506   4.854  0.5623  0.7426 -0.1195
13094TIP3    H239219   3.500   6.607   4.815  0.8168  1.3505  0.7474
13095TIP3   OH239220   4.872   7.076   6.901 -0.2312 -0.4383  0.1109
13095TIP3    H139221   4.936   7.147   6.893 -1.0902  0.1496 -1.8112
13095TIP3    H239222   4.925   6.996   6.897  0.3658  0.0309 -1.9303
13096TIP3   OH239223   2.005   7.282   5.297  0.1045  0.3638  0.3863
13096TIP3    H139224   2.025   7.203   5.347 -1.5679 -0.0942  0.3518
13096TIP3    H239225   2.073   7.286   5.230 -0.0234 -1.2682  0.1308
13097TIP3   OH239226   5.402   0.290   4.862  0.1939  0.5843 -0.1824
13097TIP3    H139227   5.399   0.289   4.958 -0.8563 -0.8455 -0.2132
13097TIP3    H239228   5.336   0.226   4.835  0.3267  1.1300 -1.8698
13098TIP3   OH239229   0.372   4.298   1.323  0.0340  0.2142 -0.3303
13098TIP3    H139230   0.436   4.243   1.367 -0.2668 -0.1051 -0.2854
13098TIP3    H239231   0.313   4.236   1.279 -1.4201  0.4149  1.2602
13099TIP3   OH239232   2.426   7.339   4.394 -0.2280  0.0749 -0.1389
13099TIP3    H139233   2.462   7.303   4.474 -2.4514 -1.9936 -0.0251
13099TIP3    H239234   2.358   7.400   4.423 -1.3844 -1.0530 -0.4250
13100TIP3   OH239235   7.988   0.905   5.503 -0.0362 -0.5212 -0.3091
13100TIP3    H139236   7.964   0.930   5.592  0.8158  1.6838 -0.6640
13100TIP3    H239237   8.084   0.906   5.504  0.0070 -2.1419 -0.8329
13101TIP3   OH239238   6.962   0.751   4.472  0.0047 -0.5820  0.0371
13101TIP3    H139239   6.950   0.656   4.471 -0.2317 -0.5501 -0.2802
13101TIP3    H239240   7.033   0.767   4.410 -0.9876 -0.4187 -1.0759
13102TIP3   OH239241   7.207   0.723   5.427  0.4111 -0.0421  0.1397
13102TIP3    H139242   7.290   0.771   5.429  0.3839  0.0978 -1.3919
13102TIP3    H239243   7.203   0.679   5.511  1.2558  1.2809  0.8907
13103TIP3   OH239244   7.307   0.042   5.528 -0.5075  0.0524  0.4089
13103TIP3    H139245   7.352  -0.034   5.563 -1.2123 -1.9171 -2.7261
13103TIP3    H239246   7.220   0.009   5.503 -1.3269  2.2097  0.2741
13104TIP3   OH239247   8.133   0.197   4.660  0.1850  0.2802  0.0903
13104TIP3    H139248   8.126   0.165   4.570  0.3905 -1.1479  0.5651
13104TIP3    H239249   8.226   0.213   4.673  0.0112  1.6399 -0.3340
13105TIP3   OH239250   5.642   6.375   4.706  0.9887  0.2299 -0.0272
13105TIP3    H139251   5.625   6.400   4.615  1.6019 -1.2227 -0.5408
13105TIP3    H239252   5.697   6.445   4.740 -0.3753  1.4951 -0.3522
13106TIP3   OH239253   3.714   4.783   6.413 -0.6531  0.1392  0.0168
13106TIP3    H139254   3.701   4.748   6.502 -0.4909  1.5842  0.6248
13106TIP3    H239255   3.625   4.803   6.383 -0.6690  0.1694  0.0822
13107TIP3   OH239256   3.712   7.363   3.793 -0.0344 -0.1932  0.4381
13107TIP3    H139257   3.799   7.323   3.795 -0.7386 -1.7833 -0.0834
13107TIP3    H239258   3.717   7.428   3.723  1.0599  0.5353  1.1657
13108TIP3   OH239259   4.947   7.343   5.655 -0.3574 -0.1553  0.1446
13108TIP3    H139260   5.023   7.377   5.608 -0.3034 -2.1289 -1.2569
13108TIP3    H239261   4.906   7.420   5.694  0.9383  1.2312 -1.1793
13109TIP3   OH239262   6.191   7.860   5.188 -0.4094 -0.1469  0.2379
13109TIP3    H139263   6.171   7.860   5.282  0.0891 -1.5114  0.3472
13109TIP3    H239264   6.201   7.768   5.165  0.2936  0.2252 -0.9913
13110TIP3   OH239265   2.985   6.469   4.629 -0.0751  0.4928  0.1093
13110TIP3    H139266   3.053   6.487   4.694 -1.2218  2.3001  0.8318
13110TIP3    H239267   3.034   6.461   4.546  1.1358  0.6196  0.7954
13111TIP3   OH239268   4.290   5.821   6.784  0.3094  0.6264 -0.6753
13111TIP3    H139269   4.318   5.807   6.693  0.4415 -0.4881 -0.4685
13111TIP3    H239270   4.198   5.846   6.777 -0.0247 -0.6660 -1.0491
13112TIP3   OH239271   3.367   7.043   5.063 -0.1590  0.1279 -0.2851
13112TIP3    H139272   3.406   7.121   5.024 -2.2340  0.6259 -1.4412
13112TIP3    H239273   3.374   7.057   5.158  1.6761  0.5708 -0.4732
13113TIP3   OH239274   4.677   7.655   5.437  0.2190 -0.0034  0.1331
13113TIP3    H139275   4.624   7.576   5.428  1.2339 -0.2985 -4.5322
13113TIP3    H239276   4.758   7.626   5.479 -0.6272 -0.8211  1.2174
13114TIP3   OH239277   7.025   0.118   5.209  0.3055 -0.2180  0.5619
13114TIP3    H139278   7.068   0.203   5.216 -2.4438  1.1246  1.6757
13114TIP3    H239279   7.032   0.081   5.297 -2.4247  0.8580  1.2846
13115TIP3   OH239280   5.047   7.851   6.824 -0.4140  0.0700 -0.5973
13115TIP3    H139281   5.020   7.803   6.902 -0.7370  1.2760  0.0379
13115TIP3    H239282   4.985   7.824   6.756 -0.5482 -0.4547 -0.2715
13116TIP3   OH239283   6.236   6.689   4.893  0.6273 -0.3222 -0.1014
13116TIP3    H139284   6.157   6.743   4.892  1.0256  0.2622 -0.1945
13116TIP3    H239285   6.246   6.661   4.984  0.0361 -0.8125 -0.1834
13117TIP3   OH239286   6.273   7.307   6.365 -0.2592  0.0622 -0.2192
13117TIP3    H139287   6.200   7.245   6.366 -1.6743  1.7065  2.1166
13117TIP3    H239288   6.295   7.320   6.457  1.6853  1.1142 -0.7978
13118TIP3   OH239289   5.947   0.832   5.704 -0.8773 -0.3198 -0.2291
13118TIP3    H139290   5.928   0.884   5.626 -1.3911  0.4747  0.4203
13118TIP3    H239291   6.010   0.766   5.674 -0.6434  0.3255 -1.1779
13119TIP3   OH239292   3.329   6.806   5.320 -0.0480 -0.4423  0.1870
13119TIP3    H139293   3.309   6.899   5.324 -1.9248 -0.7081 -2.0251
13119TIP3    H239294   3.422   6.802   5.295  0.3101  0.7996  1.2664
13120TIP3   OH239295   2.519   7.512   4.203 -0.2976  0.3486  0.0043
13120TIP3    H139296   2.440   7.509   4.149  1.2624  0.3244 -2.3053
13120TIP3    H239297   2.503   7.448   4.272 -1.1835 -1.6509 -2.0005
13121TIP3   OH239298   7.925   3.127   0.009  0.1721  0.9810 -0.6626
13121TIP3    H139299   7.851   3.111   0.067  0.2577 -1.1759 -1.1038
13121TIP3    H239300   7.972   3.044   0.007  0.5351  1.2097 -3.3056
13122TIP3   OH239301   3.009   5.979   5.575  0.1980  0.1853  0.2704
13122TIP3    H139302   3.038   5.906   5.630  1.0629 -0.3844 -0.9025
13122TIP3    H239303   2.960   6.036   5.634  0.8399 -0.5607  1.5522
13123TIP3   OH239304   4.683   4.491   6.233  0.2695  0.5401 -0.0266
13123TIP3    H139305   4.641   4.413   6.270 -0.7037 -0.2257 -2.6345
13123TIP3    H239306   4.616   4.529   6.177  0.9973  2.8679  0.6586
13124TIP3   OH239307   6.822   7.486   6.691  0.0846  0.1820 -0.0701
13124TIP3    H139308   6.874   7.501   6.771 -1.4078 -0.4098  1.0279
13124TIP3    H239309   6.805   7.392   6.692 -0.4362  0.2747 -0.7909
13125TIP3   OH239310   1.849   3.977   0.149  0.3416  0.1650  0.4068
13125TIP3    H139311   1.829   3.901   0.203  0.7051 -0.3555 -0.1764
13125TIP3    H239312   1.825   3.950   0.060  0.0489  0.8947  0.2626
13126TIP3   OH239313   5.030   0.136   5.009  0.7067 -0.0849 -0.2935
13126TIP3    H139314   5.004   0.126   4.917  3.8150 -0.1351 -1.2151
13126TIP3    H239315   5.018   0.049   5.046 -0.7770 -0.0159 -0.5491
13127TIP3   OH239316   3.228   6.571   5.675  0.0935 -0.0295 -0.6470
13127TIP3    H139317   3.186   6.646   5.634 -0.8482 -1.6215 -2.7364
13127TIP3    H239318   3.180   6.558   5.757  1.2359  2.4879  0.4623
13128TIP3   OH239319   3.917   7.063   6.538  0.0814  0.3009  0.2284
13128TIP3    H139320   3.862   7.024   6.606 -0.3635 -1.0551 -0.8800
13128TIP3    H239321   3.947   6.988   6.486  1.2843  1.2259 -0.4190
13129TIP3   OH239322   3.804   8.010   4.583  0.4332  0.7621 -0.4834
13129TIP3    H139323   3.756   8.024   4.664 -1.1762 -1.9398 -0.9189
13129TIP3    H239324   3.885   7.967   4.609 -0.4128 -0.7778 -0.3465
13130TIP3   OH239325   3.880   7.287   5.623  0.5815  0.1109  0.7663
13130TIP3    H139326   3.959   7.326   5.586 -0.2329 -1.0717 -2.3453
13130TIP3    H239327   3.830   7.362   5.656  1.3568  1.2479 -0.5665
13131TIP3   OH239328   3.421   6.137   5.383  0.1069 -0.4288 -0.2449
13131TIP3    H139329   3.343   6.190   5.402 -1.3424 -2.1973 -1.1645
13131TIP3    H239330   3.481   6.156   5.456 -0.4529  2.2828 -0.4168
13132TIP3   OH239331   6.230   0.408   5.407 -0.2550 -0.2987  0.3565
13132TIP3    H139332   6.266   0.325   5.377 -0.1537 -0.0620 -0.1940
13132TIP3    H239333   6.306   0.459   5.436 -0.2964 -0.3321  0.5210
13133TIP3   OH239334   8.031   0.588   0.441  0.8344 -0.0563  0.0546
13133TIP3    H139335   8.060   0.676   0.417  0.3070 -0.0801 -0.6906
13133TIP3    H239336   7.938   0.587   0.418  0.8919 -0.8817 -0.1276
13134TIP3   OH239337   8.279   4.993   1.502  0.2288  0.5115 -0.8334
13134TIP3    H139338   8.222   5.057   1.461 -2.1318  0.0095  1.5389
13134TIP3    H239339   8.333   5.043   1.563 -1.5558  0.2936  0.9573
13135TIP3   OH239340   5.776   6.955   4.534  0.5132  0.8093 -0.2307
13135TIP3    H139341   5.724   6.878   4.511 -1.1247  0.9846  2.6336
13135TIP3    H239342   5.713   7.027   4.535  1.2820  1.4844  0.8323
13136TIP3   OH239343   1.440   0.466   3.358 -0.0887 -0.0708 -0.7722
13136TIP3    H139344   1.384   0.405   3.407 -1.4580 -0.1001 -2.3370
13136TIP3    H239345   1.471   0.528   3.425  0.3118 -1.7335  0.6092
13137TIP3   OH239346   8.270   1.301   5.412 -0.0240  0.1212  0.1696
13137TIP3    H139347   8.248   1.227   5.354  0.8381 -0.3937  0.4817
13137TIP3    H239348   8.324   1.358   5.357  0.0506  0.0759  0.1954
13138TIP3   OH239349   0.877   1.632   5.502 -0.4336 -0.3067 -0.1831
13138TIP3    H139350   0.905   1.629   5.410  2.1015 -0.4730  0.5667
13138TIP3    H239351   0.854   1.542   5.523  1.1769 -0.6993 -0.0273
13139TIP3   OH239352   0.414   1.437   5.339  0.0304 -0.5282 -0.3329
13139TIP3    H139353   0.468   1.434   5.260  1.9135  0.3199  0.8767
13139TIP3    H239354   0.437   1.358   5.387 -1.2283 -1.1236 -0.7071
13140TIP3   OH239355   8.025   0.947   5.766  0.2389 -0.0597 -0.2182
13140TIP3    H139356   8.069   0.883   5.822  2.7693  1.5578 -0.2623
13140TIP3    H239357   7.997   1.016   5.826 -0.8113 -0.3378 -0.3953
13141TIP3   OH239358   5.018   7.245   4.071  0.0272 -0.1881  0.3901
13141TIP3    H139359   5.029   7.160   4.113  2.4428 -1.0665 -1.9237
13141TIP3    H239360   5.102   7.263   4.030 -1.0935  2.3834 -0.9102
13142TIP3   OH239361   6.967   7.850   5.321  0.1464 -0.2840  0.2564
13142TIP3    H139362   6.881   7.881   5.293  1.0881  1.6776 -0.5672
13142TIP3    H239363   7.010   7.928   5.357  1.3348 -1.3843  1.2703
13143TIP3   OH239364   8.195   1.501   6.191 -0.2819  0.1079 -0.1598
13143TIP3    H139365   8.215   1.545   6.273 -1.1433  1.0654 -0.4544
13143TIP3    H239366   8.264   1.529   6.131 -0.6899  0.8634 -0.2770
13144TIP3   OH239367   6.584   6.079   6.097  0.6191  0.6707 -0.1473
13144TIP3    H139368   6.497   6.119   6.107  0.3519 -0.0769  0.5509
13144TIP3    H239369   6.581   6.037   6.011  0.2928  0.6543 -0.1302
13145TIP3   OH239370   7.918   7.242   6.216  0.2091 -0.8219 -0.0127
13145TIP3    H139371   7.827   7.232   6.187 -0.0586 -2.1605  1.2067
13145TIP3    H239372   7.956   7.155   6.203  0.4501 -1.0949  2.2857
13146TIP3   OH239373   7.410   0.560   4.471 -0.2538  0.1579  0.2815
13146TIP3    H139374   7.485   0.597   4.517 -0.2152  0.3488  0.0638
13146TIP3    H239375   7.334   0.595   4.517 -0.2135 -2.1857  2.2437
13147TIP3   OH239376   6.723   7.524   4.630  0.8875  0.3723  0.5378
13147TIP3    H139377   6.729   7.554   4.721 -2.2134  1.5144  0.4236
13147TIP3    H239378   6.691   7.434   4.637  1.7873  0.0493  0.5922
13148TIP3   OH239379   4.577   7.830   5.617 -0.0458 -0.2798 -0.0540
13148TIP3    H139380   4.562   7.781   5.698  0.4100  0.8533  0.7496
13148TIP3    H239381   4.630   7.771   5.563  1.1422 -0.4084  1.1980
13149TIP3   OH239382   8.064   0.042   5.867 -0.0792 -0.1277 -0.3212
13149TIP3    H139383   8.135   0.093   5.829 -0.1215  2.5014  2.8455
13149TIP3    H239384   7.985   0.073   5.822  0.3563 -0.3712 -1.2580
13150TIP3   OH239385   6.348   7.613   6.639  0.0021 -0.5298  0.4876
13150TIP3    H139386   6.300   7.656   6.710  0.1733  0.5611 -0.0590
13150TIP3    H239387   6.300   7.531   6.625 -0.0743 -0.7258  1.8150
13151TIP3   OH239388   1.438   2.783   5.428 -0.0044  0.0639 -0.7758
13151TIP3    H139389   1.479   2.853   5.378 -0.9619 -2.1796 -4.9448
13151TIP3    H239390   1.345   2.789   5.405 -0.3718 -1.4438  0.2540
13152TIP3   OH239391   5.248   7.071   5.848  0.2136 -0.3553 -0.2317
13152TIP3    H139392   5.247   7.155   5.894 -1.0382 -0.2801 -0.3785
13152TIP3    H239393   5.200   7.087   5.767 -2.1291 -1.7905  0.8085
13153TIP3   OH239394   7.650   6.840   6.884 -0.6299  0.0916  0.0830
13153TIP3    H139395   7.674   6.925   6.848 -0.8310  0.1367  0.0564
13153TIP3    H239396   7.560   6.826   6.856 -0.2575 -0.6014 -0.7929
13154TIP3   OH239397   5.100   1.235   5.191  0.0717 -0.3115 -0.1636
13154TIP3    H139398   5.118   1.255   5.099 -4.8114  0.3454 -1.1365
13154TIP3    H239399   5.064   1.146   5.190 -0.4914 -0.1066  0.9854
13155TIP3   OH239400   1.453   2.765   3.089  0.0459  0.1134 -0.7968
13155TIP3    H139401   1.481   2.707   3.160 -2.0655 -1.6211 -1.3305
13155TIP3    H239402   1.533   2.782   3.039  0.8451 -1.7082 -0.1586
13156TIP3   OH239403   0.039   1.009   6.371  0.7463 -0.2655  0.1310
13156TIP3    H139404   0.017   0.989   6.462 -0.9109  0.4384 -0.0975
13156TIP3    H239405   0.009   0.933   6.322 -0.3576  0.3030 -0.0780
13157TIP3   OH239406   5.040   7.202   4.472  0.9755 -0.5524 -0.0204
13157TIP3    H139407   4.998   7.179   4.555  1.4879  0.7012  0.5947
13157TIP3    H239408   5.010   7.291   4.454  2.9839  0.1753  0.1650
13158TIP3   OH239409   3.278   2.496   0.289 -0.2394 -0.0811 -0.2563
13158TIP3    H139410   3.189   2.466   0.307 -0.5123 -0.6005 -2.3074
13158TIP3    H239411   3.267   2.564   0.223  1.0488 -1.8701 -2.3840
13159TIP3   OH239412   6.644   7.036   4.566 -0.0331  0.3177 -0.2213
13159TIP3    H139413   6.552   7.064   4.569  0.0100  0.5754 -1.0864
13159TIP3    H239414   6.693   7.110   4.601 -0.1988 -0.0413  0.7788
13160TIP3   OH239415   6.506   3.372   4.875 -0.2590 -0.8408 -0.0914
13160TIP3    H139416   6.582   3.316   4.862  1.0658  0.6246  1.1701
13160TIP3    H239417   6.511   3.436   4.804  0.4488  0.0742  0.7769
13161TIP3   OH239418   7.826   7.156   4.823 -0.4777  0.0004 -0.0552
13161TIP3    H139419   7.874   7.238   4.837 -0.6376  0.0312  0.3360
13161TIP3    H239420   7.735   7.178   4.845 -0.7309  0.0328 -1.1372
13162TIP3   OH239421   2.982   4.267   0.500  0.1631 -0.8264  0.1332
13162TIP3    H139422   2.901   4.218   0.514 -0.2790 -0.3146 -0.6479
13162TIP3    H239423   3.049   4.200   0.486 -0.4333 -1.2017 -0.8846
13163TIP3   OH239424   4.420   7.907   2.772  0.4063 -0.1072  0.3508
13163TIP3    H139425   4.457   7.953   2.847 -0.4116  0.4096  0.4440
13163TIP3    H239426   4.464   7.822   2.772  1.5049  0.4567  0.5160
13164TIP3   OH239427   5.523   5.262   5.121 -0.5393  0.0194 -0.2755
13164TIP3    H139428   5.472   5.183   5.104  1.5592 -2.2284  3.2398
13164TIP3    H239429   5.472   5.310   5.186 -1.2900  1.0567 -1.6113
13165TIP3   OH239430   1.455   0.128   4.617 -0.1605  0.2861 -0.2799
13165TIP3    H139431   1.404   0.088   4.546 -0.5412 -0.9572  0.6801
13165TIP3    H239432   1.393   0.187   4.660  0.0731  1.0485 -0.9722
13166TIP3   OH239433   1.944   4.251   1.235 -0.7912  1.0040 -0.4573
13166TIP3    H139434   1.975   4.330   1.279  0.2403 -0.4637  1.5444
13166TIP3    H239435   1.874   4.218   1.292 -0.4735 -0.0960 -0.6917
13167TIP3   OH239436   4.468   7.450   5.710  0.1302  0.0703 -0.0021
13167TIP3    H139437   4.396   7.416   5.764 -2.2139  2.2118 -1.6597
13167TIP3    H239438   4.460   7.404   5.627  1.9456 -1.1026  0.4325
13168TIP3   OH239439   7.732   7.447   5.925  0.3372  0.1386  0.4233
13168TIP3    H139440   7.659   7.418   5.870  0.3045 -0.7907  0.9397
13168TIP3    H239441   7.692   7.505   5.989  0.5547  2.2028 -1.2358
13169TIP3   OH239442   4.842   7.885   4.660 -0.3670 -0.1640 -0.0438
13169TIP3    H139443   4.887   7.842   4.732 -1.2454  0.0380  0.6317
13169TIP3    H239444   4.853   7.825   4.586  0.4335 -0.4291  0.2748
13170TIP3   OH239445   6.023   0.669   3.650  0.4026  0.9098 -0.5397
13170TIP3    H139446   6.024   0.736   3.718  1.9060 -0.3236  0.7232
13170TIP3    H239447   6.112   0.633   3.652 -0.8693 -2.3273  0.0634
13171TIP3   OH239448   0.250   0.807   5.306  0.4594  0.2493 -0.1490
13171TIP3    H139449   0.218   0.878   5.251 -0.8443 -0.5149 -0.3861
13171TIP3    H239450   0.199   0.814   5.387 -1.3310 -1.7923 -1.0466
13172TIP3   OH239451   6.338   2.362   5.583 -0.4021  0.4324  0.6360
13172TIP3    H139452   6.418   2.409   5.557 -1.8816  2.3988 -0.5083
13172TIP3    H239453   6.302   2.412   5.655 -1.1472  0.1360  0.4812
13173TIP3   OH239454   7.182   0.275   4.294  0.0813 -0.3711  0.1189
13173TIP3    H139455   7.262   0.295   4.342  0.4151  0.9150 -0.9208
13173TIP3    H239456   7.196   0.315   4.208 -2.1051  0.8212  0.2849
13174TIP3   OH239457   0.565   1.316   6.464 -0.2638  0.3935  0.5079
13174TIP3    H139458   0.534   1.329   6.374  0.8402 -1.0258 -0.0805
13174TIP3    H239459   0.651   1.359   6.467 -0.2197  0.2865  0.8483
13175TIP3   OH239460   4.058   2.614   4.431 -0.1084 -0.4503  0.0192
13175TIP3    H139461   4.106   2.533   4.417 -1.0849 -0.7441 -1.7687
13175TIP3    H239462   4.123   2.683   4.416  0.1076 -0.8680 -1.0629
13176TIP3   OH239463   8.490   0.015   1.941 -0.3128  0.0836 -0.7203
13176TIP3    H139464   8.421  -0.015   1.999 -0.8181  0.4429 -1.1219
13176TIP3    H239465   8.515   0.100   1.976 -0.2380  0.0566 -0.7094
13177TIP3   OH239466   7.414   6.815   6.756 -0.2137  0.3134  0.4485
13177TIP3    H139467   7.387   6.741   6.702  0.4548 -0.1903  0.7936
13177TIP3    H239468   7.365   6.890   6.721  1.1219  0.2397 -1.6582
13178TIP3   OH239469   0.169   1.473   5.135 -0.2949  0.5404 -0.4475
13178TIP3    H139470   0.161   1.524   5.054  0.4314  2.6255  0.7346
13178TIP3    H239471   0.262   1.479   5.157 -0.3361 -0.7586  0.0804
13179TIP3   OH239472   4.528   7.532   4.564 -0.3265 -0.2145 -0.6139
13179TIP3    H139473   4.506   7.594   4.634 -0.4158  0.6970 -1.4393
13179TIP3    H239474   4.546   7.450   4.610 -2.5298 -0.2140  0.3136
13180TIP3   OH239475   5.803   7.974   5.903 -0.2642  0.6185 -0.2390
13180TIP3    H139476   5.874   7.983   5.840 -0.5871 -1.2928 -0.9186
13180TIP3    H239477   5.744   7.910   5.863 -0.0380 -1.3195  2.3621
13181TIP3   OH239478   7.377   1.358   5.912 -0.3001 -0.2115  0.2585
13181TIP3    H139479   7.371   1.331   5.820  0.6380  0.6934 -0.0790
13181TIP3    H239480   7.326   1.438   5.917 -2.3404 -1.5225  1.0657
13182TIP3   OH239481   6.164   6.895   6.560  0.5788 -0.2879 -0.0124
13182TIP3    H139482   6.087   6.856   6.519  0.5819 -0.8776  0.5328
13182TIP3    H239483   6.142   6.988   6.568  0.1131 -0.3723 -0.2973
13183TIP3   OH239484   4.635   6.968   4.207 -0.4698 -0.1443  0.1222
13183TIP3    H139485   4.545   6.978   4.237 -1.0184 -3.8020  0.0042
13183TIP3    H239486   4.648   6.873   4.203  2.5761  0.2852 -2.2603
13184TIP3   OH239487   5.545   0.136   4.293  0.2906  0.3052  0.0291
13184TIP3    H139488   5.639   0.148   4.274 -0.0687  0.5974 -1.6228
13184TIP3    H239489   5.520   0.061   4.240 -0.8183  1.3231 -0.8928
13185TIP3   OH239490   7.944   0.291   5.440 -1.0666 -0.8995  0.5799
13185TIP3    H139491   7.995   0.213   5.461 -1.3942 -1.4028 -0.4348
13185TIP3    H239492   8.008   0.362   5.438 -0.3134 -1.5882 -1.0943
13186TIP3   OH239493   0.278   1.289   5.715 -0.0498 -0.1503  0.0555
13186TIP3    H139494   0.239   1.357   5.660  2.5542  1.0882 -0.3748
13186TIP3    H239495   0.336   1.336   5.775  0.4645 -1.8449  0.9401
13187TIP3   OH239496   5.101   6.595   5.200 -0.0237  0.2894 -0.1719
13187TIP3    H139497   5.183   6.564   5.162  0.7809  0.7906  1.1329
13187TIP3    H239498   5.046   6.615   5.124  0.6645 -1.0644 -1.0486
13188TIP3   OH239499   7.776   2.162   5.419  0.5341 -0.2152 -0.4090
13188TIP3    H139500   7.832   2.240   5.413 -0.4219  0.9767  3.9521
13188TIP3    H239501   7.688   2.198   5.434  0.0234 -2.1102  1.3079
13189TIP3   OH239502   0.478   0.421   1.692 -0.4005  0.1842  0.6599
13189TIP3    H139503   0.522   0.421   1.778 -0.1299  0.6606  0.5253
13189TIP3    H239504   0.524   0.354   1.642  1.9809  2.4755 -0.3717
13190TIP3   OH239505   0.829   0.711   5.137 -0.0584 -0.4049 -0.5516
13190TIP3    H139506   0.792   0.718   5.049 -0.8965  0.2586 -0.1531
13190TIP3    H239507   0.865   0.797   5.154 -1.7627  0.1084  0.5709
13191TIP3   OH239508   5.770   7.845   5.278  0.0229  0.4568 -0.1886
13191TIP3    H139509   5.702   7.791   5.319  0.4049  1.8433  2.3750
13191TIP3    H239510   5.824   7.875   5.351  1.9417  1.3918 -1.9440
13192TIP3   OH239511   2.633   5.140   0.306  0.2276  0.0737 -0.4853
13192TIP3    H139512   2.589   5.116   0.388 -0.5422  0.4024 -0.8010
13192TIP3    H239513   2.673   5.225   0.324 -0.1328  0.2513 -0.5208
13193TIP3   OH239514   6.920   0.432   4.146 -0.3162  0.2648 -0.4901
13193TIP3    H139515   6.861   0.495   4.104 -1.2611 -0.3587 -0.1115
13193TIP3    H239516   6.999   0.433   4.091 -0.6344  1.1640 -0.9521
13194TIP3   OH239517   0.854   0.441   6.357 -0.4410 -0.0577 -0.1412
13194TIP3    H139518   0.788   0.481   6.414 -0.3464 -0.0219 -0.0586
13194TIP3    H239519   0.928   0.422   6.414  0.2400  1.3218 -0.5407
13195TIP3   OH239520   8.308   2.425   6.358 -0.5325 -0.1866  0.1295
13195TIP3    H139521   8.353   2.423   6.442  0.5804  0.5363 -0.4430
13195TIP3    H239522   8.378   2.426   6.293 -1.3795 -1.0101 -0.8214
13196TIP3   OH239523   6.061   6.867   5.807  0.0126 -0.1193  0.3463
13196TIP3    H139524   6.097   6.792   5.759  0.0670 -0.5155  1.0074
13196TIP3    H239525   6.055   6.936   5.741 -0.5445 -0.8636 -0.3855
13197TIP3   OH239526   4.349   7.641   5.490 -0.3511 -0.2220  0.4103
13197TIP3    H139527   4.348   7.654   5.585  0.9380  1.7959  0.1737
13197TIP3    H239528   4.386   7.722   5.455  0.8305 -1.6443 -1.7044
13198TIP3   OH239529   6.655   1.269   5.264  0.2522 -0.3871  0.1337
13198TIP3    H139530   6.730   1.248   5.319  0.5977  0.5316  0.0247
13198TIP3    H239531   6.691   1.271   5.175  0.0608 -0.1571  0.0601
13199TIP3   OH239532   7.756   7.917   4.456 -0.0171 -0.4670 -0.0952
13199TIP3    H139533   7.785   8.009   4.453 -1.3132 -0.0819 -1.4362
13199TIP3    H239534   7.821   7.870   4.404  0.6379 -0.3116  0.5755
13200TIP3   OH239535   2.005   2.990   0.245  0.1807 -0.0008  0.0962
13200TIP3    H139536   2.010   3.034   0.160  0.0542  0.7773  0.4858
13200TIP3    H239537   2.017   2.897   0.225 -0.0988  0.1531 -0.7982
13201TIP3   OH239538   6.626   6.464   4.227  0.1879 -0.0047 -0.3432
13201TIP3    H139539   6.556   6.510   4.181 -0.0504  0.6029  0.6062
13201TIP3    H239540   6.682   6.534   4.261 -0.0830 -0.4129  0.9665
13202TIP3   OH239541   1.516   0.051   2.527  0.1485  0.2421  0.1071
13202TIP3    H139542   1.528   0.145   2.510 -1.1196  0.4802  0.4814
13202TIP3    H239543   1.431   0.030   2.488 -0.6474 -0.2250  2.0248
13203TIP3   OH239544   5.882   1.101   5.061  0.2923  0.1545  0.3056
13203TIP3    H139545   5.936   1.153   5.120 -1.4179  0.5156  1.5795
13203TIP3    H239546   5.945   1.057   5.004  1.9423  0.2670  1.9924
13204TIP3   OH239547   5.420   6.262   2.883 -0.3289 -0.3313  0.5689
13204TIP3    H139548   5.468   6.180   2.882 -1.5110 -1.0237 -1.3560
13204TIP3    H239549   5.434   6.299   2.796 -2.9742 -0.3720  0.0974
13205TIP3   OH239550   0.764  -0.020   5.193 -0.1745 -0.6241  0.0605
13205TIP3    H139551   0.676  -0.045   5.165 -1.0513 -1.7693  3.6029
13205TIP3    H239552   0.768   0.075   5.178 -1.9104 -0.6082 -0.3800
13206TIP3   OH239553   1.830   2.484   3.055 -0.2194  0.1422 -0.0611
13206TIP3    H139554   1.809   2.549   2.989 -1.2549 -1.3109 -1.2109
13206TIP3    H239555   1.773   2.409   3.034 -0.6743 -0.3107  2.5379
13207TIP3   OH239556   5.792   7.097   5.871  0.2277  0.1592  0.2596
13207TIP3    H139557   5.771   7.181   5.829  1.0891 -0.3360 -1.2130
13207TIP3    H239558   5.716   7.042   5.854  0.7597 -0.1885 -1.1112
13208TIP3   OH239559   2.455   0.764   2.755  0.5014  0.3122 -0.2000
13208TIP3    H139560   2.460   0.854   2.724  1.0867  0.4752  0.3723
13208TIP3    H239561   2.414   0.770   2.842 -3.7119 -0.3766 -1.9978
13209TIP3   OH239562   0.785   3.297   4.463 -0.3966  0.4318 -0.5253
13209TIP3    H139563   0.747   3.269   4.546 -0.2206 -1.2420 -0.9826
13209TIP3    H239564   0.838   3.374   4.485 -0.7796  0.3256  0.8067
13210TIP3   OH239565   0.852   4.382   5.937  0.8549 -1.2182  0.4846
13210TIP3    H139566   0.936   4.359   5.976  1.1899  2.0907  1.9149
13210TIP3    H239567   0.870   4.462   5.887 -1.3278 -0.6513  0.5389
13211TIP3   OH239568   2.758   5.351   0.959  0.1997  0.6713  0.0113
13211TIP3    H139569   2.669   5.333   0.988 -0.3322  1.9584 -0.7734
13211TIP3    H239570   2.812   5.291   1.010 -1.0723  0.1451  0.7751
13212TIP3   OH239571   6.370   7.720   3.157 -0.0480 -0.4380 -0.0226
13212TIP3    H139572   6.367   7.771   3.238 -0.0725 -0.4935  0.0117
13212TIP3    H239573   6.300   7.655   3.167 -0.9190  0.3947 -0.6462
13213TIP3   OH239574   6.529   7.849   4.942  0.0275 -0.2232 -0.2591
13213TIP3    H139575   6.526   7.906   5.019 -1.2898 -0.2796 -0.2673
13213TIP3    H239576   6.474   7.894   4.877 -0.9684 -1.4607 -0.2896
13214TIP3   OH239577   5.622   7.401   6.661  0.0092  0.5524  0.8654
13214TIP3    H139578   5.556   7.349   6.705 -1.0478  1.9156  0.9418
13214TIP3    H239579   5.587   7.415   6.573  0.9015  0.0160  0.4187
13215TIP3   OH239580   7.985   7.547   5.154 -0.1386 -0.2530  0.1558
13215TIP3    H139581   7.924   7.600   5.206 -0.8226 -1.3540  0.4844
13215TIP3    H239582   8.011   7.476   5.212  0.1226 -0.7594 -0.5706
13216TIP3   OH239583   7.112   7.653   4.770  0.1678  0.3693 -0.3274
13216TIP3    H139584   7.073   7.732   4.806 -1.1222 -0.8779  1.0990
13216TIP3    H239585   7.177   7.626   4.835  0.0475 -0.1810 -0.4339
13217TIP3   OH239586   2.586   1.683   5.445  0.1505  0.5084 -0.7372
13217TIP3    H139587   2.660   1.743   5.435  1.1344 -0.7256 -1.0174
13217TIP3    H239588   2.541   1.714   5.524  1.1401  1.0897 -0.3906
13218TIP3   OH239589   0.276   0.707   6.169 -0.0910 -0.7005  0.2220
13218TIP3    H139590   0.181   0.718   6.172  0.2822  2.8933  1.6418
13218TIP3    H239591   0.306   0.741   6.253  2.5484 -0.4519 -0.7905
13219TIP3   OH239592   7.500   0.132   5.124 -0.2449  0.0334 -0.1517
13219TIP3    H139593   7.596   0.137   5.119 -0.2790 -0.4598 -1.5315
13219TIP3    H239594   7.481   0.038   5.124 -0.6874  0.1248  1.0819
13220TIP3   OH239595   5.433   7.161   4.784 -0.2909  0.1422  0.2205
13220TIP3    H139596   5.412   7.167   4.691  1.3343  2.0920 -0.0648
13220TIP3    H239597   5.376   7.226   4.825 -1.0071 -0.7166  0.5874
13221TIP3   OH239598   1.819   5.236   0.710  0.0676  0.4069 -0.4468
13221TIP3    H139599   1.842   5.262   0.799 -0.6409 -0.2082 -0.0776
13221TIP3    H239600   1.808   5.318   0.662  1.9279  0.7209 -0.3535
13222TIP3   OH239601   7.149   0.944   4.680 -0.3055  0.1537 -0.1136
13222TIP3    H139602   7.137   1.031   4.642 -2.4379 -0.0474  0.0212
13222TIP3    H239603   7.099   0.886   4.623  0.7015 -0.9138  0.0811
13223TIP3   OH239604   0.368   1.494   5.894  0.4760  0.4259 -0.1543
13223TIP3    H139605   0.329   1.559   5.836  0.4456  0.3491 -0.2200
13223TIP3    H239606   0.295   1.463   5.948  0.4228  0.1958 -0.3587
13224TIP3   OH239607   1.198   2.797   6.784  0.6982 -0.3073 -0.2666
13224TIP3    H139608   1.232   2.775   6.698 -0.5528  1.5181 -1.2577
13224TIP3    H239609   1.268   2.850   6.824  0.7014  0.0078 -0.6938
13225TIP3   OH239610   0.998   0.780   5.695  0.6614  0.5029  0.6948
13225TIP3    H139611   1.048   0.858   5.719 -1.2877  1.1654  2.6426
13225TIP3    H239612   0.987   0.732   5.776 -0.4076 -0.4930 -0.0205
13226TIP3   OH239613   3.271   4.075   0.150 -0.4048  0.7721  0.0957
13226TIP3    H139614   3.354   4.117   0.127 -0.2659 -0.1299 -1.1186
13226TIP3    H239615   3.208   4.110   0.086 -1.3461  2.6391  1.9615
13227TIP3   OH239616   0.297   0.222   6.910 -0.0843 -0.3957 -0.1253
13227TIP3    H139617   0.292   0.309   6.869  0.1581  0.0876  0.8537
13227TIP3    H239618   0.211   0.210   6.950  0.0484 -0.3856  0.1669
13228TIP3   OH239619   2.007   0.685   4.153  0.6474 -0.6835  0.4547
13228TIP3    H139620   2.072   0.755   4.162 -0.0876  0.1198 -0.3859
13228TIP3    H239621   2.041   0.613   4.206  0.8330  0.7236  2.2808
13229TIP3   OH239622   5.823   8.011   6.185 -0.7775 -0.3819  0.1453
13229TIP3    H139623   5.827   7.975   6.096  0.0888  0.9565 -0.3795
13229TIP3    H239624   5.730   8.024   6.201 -0.8516  0.9439 -1.2409
13230TIP3   OH239625   8.145   0.641   5.593 -0.1113  0.0601 -0.0793
13230TIP3    H139626   8.141   0.732   5.565 -0.8404  0.6434  1.8226
13230TIP3    H239627   8.057   0.621   5.623 -0.7866 -2.2645 -3.3301
13231TIP3   OH239628   0.768   1.101   6.608 -0.5726 -0.1760 -0.2369
13231TIP3    H139629   0.842   1.071   6.555 -0.3213 -0.5567  0.3188
13231TIP3    H239630   0.713   1.151   6.548  0.6515  0.9619 -0.4233
13232TIP3   OH239631   7.781   3.434   5.715 -0.0605  0.4587  0.1017
13232TIP3    H139632   7.750   3.427   5.625 -2.4980 -0.7016  0.9855
13232TIP3    H239633   7.702   3.451   5.766  1.0082 -0.8100  2.2543
13233TIP3   OH239634   4.431   5.317   0.033 -0.9204 -0.4941  0.4169
13233TIP3    H139635   4.351   5.310   0.086 -0.1806  1.0601  1.7948
13233TIP3    H239636   4.502   5.304   0.096 -0.0361  0.5892 -0.3465
13234TIP3   OH239637   7.164   0.308   6.246  0.2146  0.5375 -1.0215
13234TIP3    H139638   7.160   0.234   6.307 -2.0223 -1.0097 -2.9844
13234TIP3    H239639   7.117   0.378   6.290  1.1594  0.3875  0.2691
13235TIP3   OH239640   3.071   7.289   6.796 -0.2179 -0.0157 -0.1581
13235TIP3    H139641   3.158   7.311   6.829 -0.0659  0.7842 -1.0674
13235TIP3    H239642   3.013   7.306   6.870  0.0282  2.5174 -0.5018
13236TIP3   OH239643   6.314   6.565   3.663  0.3565 -0.0003  0.5178
13236TIP3    H139644   6.341   6.551   3.572  0.6779  0.1063  0.5953
13236TIP3    H239645   6.219   6.572   3.659  0.5769  3.1611 -0.2224
13237TIP3   OH239646   1.096   0.615   5.024 -0.0211  0.1519  0.3490
13237TIP3    H139647   1.087   0.530   4.981  2.3827  1.3575 -2.7424
13237TIP3    H239648   1.007   0.650   5.026 -0.8989 -1.9998  0.7906
13238TIP3   OH239649   3.159   7.090   3.475  0.3566  0.2961  0.1397
13238TIP3    H139650   3.175   7.183   3.492 -0.9154  0.6516 -0.5629
13238TIP3    H239651   3.224   7.067   3.409 -0.9296  1.3331 -1.5385
13239TIP3   OH239652   0.032   3.344   4.757 -0.6001  0.3430  0.4905
13239TIP3    H139653  -0.043   3.326   4.813 -0.1436 -1.7183  0.4840
13239TIP3    H239654   0.072   3.259   4.742  1.7179  1.3835  0.4551
13240TIP3   OH239655   2.452   4.358   0.680 -0.0304 -0.3711  0.0481
13240TIP3    H139656   2.518   4.406   0.731 -0.6289  1.0123 -0.4414
13240TIP3    H239657   2.487   4.269   0.673  1.7178  0.2951 -0.0802
13241TIP3   OH239658   2.446   3.036   5.211 -0.2025  0.4731 -0.2967
13241TIP3    H139659   2.378   2.969   5.204  1.7340 -1.8827  1.9833
13241TIP3    H239660   2.513   3.009   5.147 -0.7701  2.0000 -1.5600
13242TIP3   OH239661   6.854   7.319   2.933 -0.4632 -0.3849 -0.1492
13242TIP3    H139662   6.810   7.242   2.969  0.3237 -1.1647 -0.8460
13242TIP3    H239663   6.860   7.302   2.839  0.1698  0.2941 -0.2374
13243TIP3   OH239664   5.432   7.255   5.629  0.6135 -0.3253  0.7919
13243TIP3    H139665   5.409   7.185   5.568  0.7645 -0.7029  1.1597
13243TIP3    H239666   5.365   7.321   5.616  0.0766 -0.8370  0.9167
13244TIP3   OH239667   6.600   7.892   6.306 -0.0697  0.0342  0.1707
13244TIP3    H139668   6.685   7.867   6.345 -0.2731  0.6496  1.0212
13244TIP3    H239669   6.608   7.986   6.290 -0.0327 -0.1962 -1.1929
13245TIP3   OH239670   1.562   0.596   5.249 -0.2021  0.3600 -0.4351
13245TIP3    H139671   1.627   0.628   5.311 -0.8057  0.4727  0.1416
13245TIP3    H239672   1.614   0.559   5.177  0.6123 -3.3777  1.9208
13246TIP3   OH239673   7.469   7.078   5.406  0.5593  0.7038  0.0360
13246TIP3    H139674   7.494   7.122   5.324 -0.3105 -0.4796 -0.8846
13246TIP3    H239675   7.489   6.986   5.390 -0.1667  0.3820  0.9555
13247TIP3   OH239676   7.907   7.936   6.656 -0.7855 -0.3898 -0.1223
13247TIP3    H139677   7.913   7.855   6.605 -1.1882 -1.0771  0.8996
13247TIP3    H239678   7.843   7.916   6.725 -0.5646  0.6562  0.3992
13248TIP3   OH239679   2.478   5.413   0.758  0.0694 -0.1983 -0.1778
13248TIP3    H139680   2.443   5.323   0.759  1.0982 -0.6083 -0.1146
13248TIP3    H239681   2.467   5.443   0.849 -0.1701 -0.3033 -0.1710
13249TIP3   OH239682   4.709   7.176   6.256 -0.4410 -0.0510  0.3104
13249TIP3    H139683   4.729   7.087   6.225  1.4591  0.0498  1.1211
13249TIP3    H239684   4.787   7.201   6.307 -1.3507  1.7201  0.8730
13250TIP3   OH239685   5.442   6.905   3.130  0.5586 -0.3452  0.5489
13250TIP3    H139686   5.360   6.866   3.100  1.6539 -1.6938 -0.8396
13250TIP3    H239687   5.419   6.994   3.155 -1.2434 -0.5687 -0.2035
13251TIP3   OH239688   6.376   6.726   6.011 -0.2382  0.6512  0.0696
13251TIP3    H139689   6.407   6.809   6.047 -3.1010  0.9445  1.9534
13251TIP3    H239690   6.418   6.660   6.066 -1.5978  0.9987  1.5583
13252TIP3   OH239691   5.167   7.246   3.218 -0.0458  0.2359 -0.0956
13252TIP3    H139692   5.222   7.206   3.150 -0.2589 -1.4566  0.6985
13252TIP3    H239693   5.093   7.283   3.170  0.5591  0.3702 -0.9348
13253TIP3   OH239694   5.374   6.404   3.220 -0.6107  0.5247  0.1366
13253TIP3    H139695   5.380   6.312   3.245  0.2971  0.7862  0.8970
13253TIP3    H239696   5.297   6.408   3.164 -1.2181 -0.5211  0.8813
13254TIP3   OH239697   3.857   6.325   5.320  0.0758  0.6560 -0.9553
13254TIP3    H139698   3.800   6.277   5.260 -0.4984  0.9683 -0.6695
13254TIP3    H239699   3.803   6.397   5.351 -0.4881 -0.8916  1.8315
13255TIP3   OH239700   0.832   0.770   4.873 -0.4108  0.2152 -0.0089
13255TIP3    H139701   0.926   0.789   4.867 -0.1232 -0.9116  0.8209
13255TIP3    H239702   0.791   0.834   4.814  1.0573 -0.9409 -2.3586
13256TIP3   OH239703   6.861   7.155   6.234 -0.2152  0.2101  0.4693
13256TIP3    H139704   6.794   7.151   6.166 -0.9254  2.5476  0.9956
13256TIP3    H239705   6.942   7.175   6.187 -0.4317  0.3005  0.1384
13257TIP3   OH239706   1.657   0.091   3.429  0.7428 -0.1020 -0.1401
13257TIP3    H139707   1.627   0.160   3.488 -0.0937 -0.4519 -0.1477
13257TIP3    H239708   1.621   0.115   3.344 -3.3609 -2.8129  0.6569
13258TIP3   OH239709   7.549   7.549   4.141 -0.4798  0.1261 -0.0307
13258TIP3    H139710   7.595   7.511   4.216  0.3667 -0.2426 -0.7235
13258TIP3    H239711   7.527   7.475   4.086  2.1038  0.6549 -1.9024
13259TIP3   OH239712   4.480   7.130   4.571 -0.1900 -0.4514 -0.0402
13259TIP3    H139713   4.405   7.081   4.537  0.6120 -0.9018 -1.1716
13259TIP3    H239714   4.454   7.153   4.660 -1.6988 -0.5554 -0.4323
13260TIP3   OH239715   4.150   6.810   4.156  0.8003 -0.0131 -0.2700
13260TIP3    H139716   4.214   6.758   4.205  0.7969 -1.4418 -1.7179
13260TIP3    H239717   4.135   6.759   4.077 -0.6334  1.3101 -0.8597
13261TIP3   OH239718   0.633   1.022   5.148  0.6613 -0.1005  0.5544
13261TIP3    H139719   0.645   1.098   5.091 -0.8973  0.3091  0.7537
13261TIP3    H239720   0.720   1.006   5.185  1.3440  0.6023 -0.7129
13262TIP3   OH239721   7.219   6.414   4.741 -0.6597  0.3784 -0.2657
13262TIP3    H139722   7.162   6.490   4.729  0.8554  1.0898 -3.5388
13262TIP3    H239723   7.305   6.451   4.762  0.0334 -0.3938 -1.6372
13263TIP3   OH239724   6.321   6.350   2.802 -0.0868  0.0482 -0.7422
13263TIP3    H139725   6.395   6.400   2.769 -0.2432  0.3386 -0.6473
13263TIP3    H239726   6.361   6.282   2.857  0.3122 -1.5233 -2.8804
13264TIP3   OH239727   5.418   6.824   5.593  0.2949 -0.3464  0.2963
13264TIP3    H139728   5.472   6.783   5.661 -0.3783  1.1312  1.7769
13264TIP3    H239729   5.422   6.764   5.519  1.1568 -1.9408  1.6043
13265TIP3   OH239730   5.555   7.525   5.088 -0.2215  0.2266 -0.0771
13265TIP3    H139731   5.504   7.495   5.162  1.7731 -0.6897  0.9600
13265TIP3    H239732   5.598   7.446   5.054  1.2519  1.0983 -0.3157
13266TIP3   OH239733   7.909   0.431   5.993  0.5552  0.3354 -0.5119
13266TIP3    H139734   7.888   0.524   6.003  0.1033  0.3081 -1.1957
13266TIP3    H239735   7.866   0.388   6.067 -1.1377  0.3778 -1.4518
13267TIP3   OH239736   4.339   7.129   2.947  0.1548  0.6027 -0.2682
13267TIP3    H139737   4.300   7.190   2.884 -2.2403  0.8998  1.4109
13267TIP3    H239738   4.378   7.185   3.014  0.3103  0.3076 -0.1099
13268TIP3   OH239739   5.721   7.460   6.059 -0.4888  0.3805 -0.7482
13268TIP3    H139740   5.701   7.505   5.977  1.5059  0.4971 -1.2122
13268TIP3    H239741   5.658   7.389   6.064 -2.0688  1.7173 -1.2697
13269TIP3   OH239742   1.972   0.564   3.619 -0.3719 -0.1213 -0.5851
13269TIP3    H139743   1.954   0.652   3.653 -0.8421 -0.4055 -0.0841
13269TIP3    H239744   2.067   0.557   3.619 -0.3313  0.4479 -0.7716
13270TIP3   OH239745   6.800   7.303   1.825 -0.2082 -0.4842 -0.2473
13270TIP3    H139746   6.886   7.333   1.795 -0.0929 -0.1800  0.3887
13270TIP3    H239747   6.785   7.223   1.775  0.7354 -0.8969  0.1116
13271TIP3   OH239748   1.395   0.670   5.673 -0.3405  0.6172 -0.3687
13271TIP3    H139749   1.422   0.695   5.762  0.8335  0.5064 -0.6938
13271TIP3    H239750   1.459   0.711   5.616  0.6557 -1.7544 -1.0118
13272TIP3   OH239751   1.402   1.281   2.787 -0.6507 -0.2955 -0.2276
13272TIP3    H139752   1.435   1.329   2.710 -0.2052  0.8636  0.6659
13272TIP3    H239753   1.307   1.296   2.784 -0.4061  1.6265  0.6604
13273TIP3   OH239754   0.553   0.021   2.672 -0.9532  0.1894  0.3357
13273TIP3    H139755   0.556  -0.061   2.721  1.0823 -0.6076 -1.0280
13273TIP3    H239756   0.614   0.079   2.717 -1.2546  0.4355  0.4275
13274TIP3   OH239757   6.517   7.282   2.848 -0.3274 -0.2230  0.2387
13274TIP3    H139758   6.490   7.329   2.769  0.0300 -0.4567 -0.0241
13274TIP3    H239759   6.580   7.340   2.890  0.3438 -0.5884 -0.2429
13275TIP3   OH239760   5.489   7.536   3.729 -0.2976  0.6671  0.6818
13275TIP3    H139761   5.466   7.597   3.799  0.4821  1.6462  0.1060
13275TIP3    H239762   5.405   7.499   3.701 -0.9266  2.3938  0.2316
13276TIP3   OH239763   7.219   6.852   5.822 -0.5198 -0.1120  0.1244
13276TIP3    H139764   7.287   6.785   5.817 -1.8282 -1.3682 -1.7512
13276TIP3    H239765   7.199   6.859   5.915  0.4834 -1.4952  0.4581
13277TIP3   OH239766   5.574   7.598   5.370 -0.1904  0.8112 -0.5767
13277TIP3    H139767   5.517   7.522   5.371 -0.4456  1.0043  1.2363
13277TIP3    H239768   5.660   7.564   5.345 -0.1360 -0.1965  0.9801
13278TIP3   OH239769   6.764   7.926   3.644 -0.2669 -0.3763 -0.2858
13278TIP3    H139770   6.743   7.869   3.570  0.9124 -1.2978  0.0664
13278TIP3    H239771   6.685   7.926   3.698 -0.1280 -2.0980 -0.0393
13279TIP3   OH239772   6.575   5.855   4.316  0.1448  0.2767 -0.5531
13279TIP3    H139773   6.531   5.887   4.395  1.3873  1.6862 -0.3990
13279TIP3    H239774   6.507   5.859   4.248 -0.9577 -1.0451  0.4494
13280TIP3   OH239775   1.742   0.656   2.736 -0.2224 -0.3632 -0.3466
13280TIP3    H139776   1.804   0.594   2.698 -1.1581 -1.2259 -0.4864
13280TIP3    H239777   1.748   0.734   2.680 -0.0595 -0.8462 -1.0027
13281TIP3   OH239778   7.387   6.673   5.606  0.2638  0.3395  0.4223
13281TIP3    H139779   7.425   6.694   5.521 -0.6954  2.6535  0.5140
13281TIP3    H239780   7.293   6.691   5.595 -0.2625 -1.7811  1.2349
13282TIP3   OH239781   3.090   0.164   4.793  0.3575 -0.0320  0.1904
13282TIP3    H139782   3.142   0.236   4.828  0.0988 -0.0370  0.5950
13282TIP3    H239783   2.999   0.189   4.812  0.1880  0.1913 -0.9223
13283TIP3   OH239784   1.792   0.323   6.481  0.1655 -0.2748  0.0458
13283TIP3    H139785   1.819   0.348   6.570  0.7841 -0.6890 -0.0207
13283TIP3    H239786   1.860   0.261   6.452 -0.5214 -0.8395 -0.3680
13284TIP3   OH239787   1.777   0.402   5.169  0.6914  0.4023  0.4201
13284TIP3    H139788   1.857   0.359   5.137 -0.3873 -1.4576  0.1661
13284TIP3    H239789   1.758   0.359   5.252 -0.3170  0.5056  0.2467
13285TIP3   OH239790   6.012   7.850   6.355  0.5513  0.4585 -0.4302
13285TIP3    H139791   6.043   7.767   6.318  0.2307 -0.5132  1.4298
13285TIP3    H239792   5.978   7.899   6.280 -1.1674 -1.9403 -1.2728
13286TIP3   OH239793   0.978   1.953   5.311  0.5027  0.2737 -0.7273
13286TIP3    H139794   0.902   1.993   5.269 -0.4747 -0.3075  0.4592
13286TIP3    H239795   1.009   2.020   5.373 -0.0417 -0.1147 -0.0324
13287TIP3   OH239796   1.198   0.914   6.628 -0.1681  0.2141  0.2542
13287TIP3    H139797   1.140   0.840   6.612  0.3390 -0.5557  1.8678
13287TIP3    H239798   1.284   0.884   6.599 -0.0863  0.4104  0.2926
13288TIP3   OH239799   6.298   7.505   4.408  0.3707 -0.6187 -0.2128
13288TIP3    H139800   6.366   7.441   4.429  1.8619  1.4673  1.5726
13288TIP3    H239801   6.325   7.543   4.325 -0.4803 -2.2225 -1.2412
13289TIP3   OH239802   2.762   1.907   5.775  0.0885  0.0691  0.1964
13289TIP3    H139803   2.744   1.817   5.747  2.8287 -0.1863 -0.8774
13289TIP3    H239804   2.782   1.899   5.868 -1.5012 -0.1389  0.5432
13290TIP3   OH239805   2.433   0.409   3.704  0.1828  0.8642  0.2754
13290TIP3    H139806   2.438   0.332   3.761  0.3459 -1.5489 -2.8859
13290TIP3    H239807   2.510   0.402   3.647  0.2087  3.3962 -0.0456
13291TIP3   OH239808   5.823   7.041   3.143 -0.0581 -0.1307 -0.2800
13291TIP3    H139809   5.902   7.002   3.105  1.0366  0.4247  1.3498
13291TIP3    H239810   5.774   6.966   3.178 -0.0179 -0.4251 -0.8396
13292TIP3   OH239811   6.559   7.861   1.934 -0.2385  0.3676  0.0089
13292TIP3    H139812   6.497   7.789   1.923  0.0222  0.1958 -0.3510
13292TIP3    H239813   6.545   7.918   1.859 -0.2166  0.5196  0.1199
13293TIP3   OH239814   7.924   7.908   5.418  0.4255  0.3886 -0.3587
13293TIP3    H139815   7.874   7.828   5.412  0.3584  0.4787 -1.0634
13293TIP3    H239816   7.892   7.951   5.498  0.2087 -0.1032 -0.1796
13294TIP3   OH239817   7.764   6.611   2.418 -0.2241 -0.6268  0.4885
13294TIP3    H139818   7.679   6.646   2.391  0.1776 -1.1637 -1.6224
13294TIP3    H239819   7.750   6.517   2.426  0.7165 -1.0535 -2.3154
13295TIP3   OH239820   7.598   4.698   2.812 -0.3337  0.4028  0.0173
13295TIP3    H139821   7.527   4.635   2.827  0.1458 -0.9692 -3.1103
13295TIP3    H239822   7.555   4.783   2.813 -1.9177 -0.3634 -1.0368
13296TIP3   OH239823   8.183   5.805   1.889  0.2280  0.6468  0.3028
13296TIP3    H139824   8.254   5.865   1.912  0.1153  0.5010  1.0485
13296TIP3    H239825   8.199   5.727   1.943 -0.1976  0.4035  0.0791
13297TIP3   OH239826   7.243   6.080   1.621 -0.3987 -0.2701 -0.2797
13297TIP3    H139827   7.233   6.071   1.526 -0.3262 -0.6197 -0.2549
13297TIP3    H239828   7.201   6.001   1.658 -0.9049  0.1287  0.0057
13298TIP3   OH239829   7.434   6.071   3.243  0.0608  0.1355  0.1043
13298TIP3    H139830   7.377   6.022   3.185  0.3142 -0.3616  0.2752
13298TIP3    H239831   7.521   6.065   3.202  0.3010 -0.4705  0.6835
13299TIP3   OH239832   6.065   7.828   0.921 -0.1645  0.2280  0.3471
13299TIP3    H139833   6.050   7.918   0.951  0.0190  0.2341  0.4177
13299TIP3    H239834   6.150   7.830   0.878 -0.9967  0.5265 -1.3791
13300TIP3   OH239835   0.838   5.668   1.503  0.0704  0.6550  0.2111
13300TIP3    H139836   0.790   5.673   1.420  1.6728  0.3003 -0.7664
13300TIP3    H239837   0.920   5.624   1.480 -0.0930 -0.7911  2.2935
13301TIP3   OH239838   0.404   3.363   0.837 -0.7207  0.2118  0.1847
13301TIP3    H139839   0.320   3.410   0.845 -1.0845 -0.6662  1.7476
13301TIP3    H239840   0.462   3.408   0.899 -1.4220 -2.1104  2.6032
13302TIP3   OH239841   8.435   3.869   2.435 -0.2677  0.1899  0.2414
13302TIP3    H139842   8.479   3.801   2.384  1.0373  0.6948  0.6667
13302TIP3    H239843   8.374   3.821   2.491 -0.7003 -0.4741 -0.7764
13303TIP3   OH239844   0.572   3.736   1.590 -0.2953 -0.0289 -0.3013
13303TIP3    H139845   0.492   3.686   1.571  0.2083 -0.2023 -1.9666
13303TIP3    H239846   0.614   3.688   1.661 -2.4948  0.9706  1.7520
13304TIP3   OH239847   1.595   6.145   2.822  0.3002 -0.6239  0.5667
13304TIP3    H139848   1.602   6.128   2.728 -0.4655  0.8851  0.2354
13304TIP3    H239849   1.685   6.161   2.850  0.2590  1.4169 -0.3948
13305TIP3   OH239850   8.392   5.664   1.226 -0.7037  0.0440  0.0591
13305TIP3    H139851   8.373   5.745   1.177 -2.0366 -1.6429 -2.3029
13305TIP3    H239852   8.463   5.689   1.285 -0.5371  2.7510 -1.1802
13306TIP3   OH239853   7.168   4.839   1.171  0.2398  0.1069  0.2472
13306TIP3    H139854   7.166   4.786   1.091  2.2735  2.3596 -1.3940
13306TIP3    H239855   7.259   4.840   1.197  0.2676  2.6659  0.2493
13307TIP3   OH239856   7.091   3.704   1.740 -0.7332  0.8240  0.1328
13307TIP3    H139857   7.027   3.712   1.811 -1.3910  1.6984 -0.5398
13307TIP3    H239858   7.171   3.744   1.775 -1.2212  1.7678  0.1885
13308TIP3   OH239859   6.358   6.891   0.703 -0.2693  0.1083 -1.0996
13308TIP3    H139860   6.350   6.986   0.696 -2.2842  0.0019 -0.7384
13308TIP3    H239861   6.350   6.874   0.797  1.0886 -0.3531 -1.0592
13309TIP3   OH239862   0.619   7.147   2.722  0.1502 -0.3253 -1.2160
13309TIP3    H139863   0.650   7.230   2.687  0.9776 -0.0509  0.1553
13309TIP3    H239864   0.580   7.169   2.807  0.3689 -1.3289 -0.8485
13310TIP3   OH239865   1.718   7.854   3.155 -0.2128 -0.3625  0.2510
13310TIP3    H139866   1.773   7.904   3.094  1.3396 -2.2952  0.0211
13310TIP3    H239867   1.652   7.813   3.099  1.0649 -1.9385 -0.1411
13311TIP3   OH239868   0.319   2.830   0.855  0.1220 -0.0451 -0.2949
13311TIP3    H139869   0.313   2.808   0.762 -1.2172  0.2371 -0.2726
13311TIP3    H239870   0.247   2.890   0.871  0.7556  0.4485  0.7843
13312TIP3   OH239871   6.420   0.928   5.591  0.5661 -0.2911  0.3254
13312TIP3    H139872   6.365   0.915   5.514 -1.6769  1.9073  1.4774
13312TIP3    H239873   6.461   1.013   5.577  2.8758 -1.3814  0.0390
13313TIP3   OH239874   1.472   4.193   0.612  0.2323  0.8677 -0.3210
13313TIP3    H139875   1.384   4.231   0.610 -0.1750 -0.0939 -1.6002
13313TIP3    H239876   1.518   4.238   0.541  1.0614  2.0295  0.9431
13314TIP3   OH239877   8.344   6.618   1.059  0.2833 -0.6223 -0.1167
13314TIP3    H139878   8.315   6.661   0.979 -0.7336 -1.2199 -0.0783
13314TIP3    H239879   8.429   6.579   1.036  1.0480  1.0910 -0.2371
13315TIP3   OH239880   7.201   4.447   0.493  0.1595 -0.2172 -0.5119
13315TIP3    H139881   7.191   4.510   0.564 -0.8496 -1.8590  0.8546
13315TIP3    H239882   7.134   4.473   0.429 -1.2755 -0.7470  0.7245
13316TIP3   OH239883   0.066   7.420   2.460  0.1154 -0.3859 -0.5535
13316TIP3    H139884   0.138   7.359   2.477  0.4509  0.0464 -0.4093
13316TIP3    H239885   0.106   7.490   2.408 -0.0823  0.1101 -0.0406
13317TIP3   OH239886   6.026   5.519   0.676 -0.5589 -0.2731 -0.2332
13317TIP3    H139887   6.094   5.582   0.702  0.7114 -1.8058  0.2488
13317TIP3    H239888   5.995   5.551   0.592 -0.2276  1.2346  0.2026
13318TIP3   OH239889   0.509   5.353   2.299  0.7683  0.2380  0.5598
13318TIP3    H139890   0.488   5.353   2.392 -1.7126  2.4093  0.0701
13318TIP3    H239891   0.548   5.439   2.283 -1.0051  0.8162 -0.8137
13319TIP3   OH239892   0.404   6.203   3.413  0.1201 -0.3993  0.4118
13319TIP3    H139893   0.331   6.264   3.403  0.8201  0.2005 -1.2174
13319TIP3    H239894   0.472   6.253   3.458 -0.2466 -0.7718  1.3845
13320TIP3   OH239895   7.506   5.659   0.160 -0.0244  0.1045 -0.2308
13320TIP3    H139896   7.433   5.601   0.183  2.0987 -3.3851 -1.9841
13320TIP3    H239897   7.574   5.638   0.224  0.6642  0.8668 -0.7068
13321TIP3   OH239898   8.380   6.006   1.958 -0.3560  0.3607 -0.1530
13321TIP3    H139899   8.305   6.066   1.959  0.3460  1.2490  0.6568
13321TIP3    H239900   8.455   6.061   1.982  0.4450 -0.6627 -0.2796
13322TIP3   OH239901   7.847   4.729   2.946  0.4363 -0.4625 -0.5123
13322TIP3    H139902   7.765   4.703   2.903 -0.0493  0.1094  0.0606
13322TIP3    H239903   7.847   4.825   2.942  1.1638 -0.4698 -0.6705
13323TIP3   OH239904   6.957   0.462   6.398 -0.3257  0.2675  0.4959
13323TIP3    H139905   6.960   0.411   6.479 -0.0848  0.3867  0.5639
13323TIP3    H239906   7.008   0.540   6.417 -0.9051  0.6541  0.4744
13324TIP3   OH239907   7.504   3.964   0.494 -0.7875  0.3797 -0.4470
13324TIP3    H139908   7.421   3.979   0.449 -1.6758 -1.0466  0.6774
13324TIP3    H239909   7.496   3.876   0.531  0.9632  0.4936  0.2568
13325TIP3   OH239910   0.071   4.353   2.054  0.3054  0.4300  0.0851
13325TIP3    H139911  -0.013   4.322   2.087  0.0457 -0.0343 -0.9936
13325TIP3    H239912   0.124   4.274   2.045  0.0819  0.4404 -1.4163
13326TIP3   OH239913   5.688   0.170   6.767  0.0849 -0.7018  0.1062
13326TIP3    H139914   5.745   0.099   6.795  1.7068  0.3330 -0.5425
13326TIP3    H239915   5.729   0.249   6.802 -1.6163 -0.0421  0.6899
13327TIP3   OH239916   8.436   5.368   1.415  0.4922 -0.7949  0.6072
13327TIP3    H139917   8.376   5.320   1.357  1.0510 -1.0844  0.2599
13327TIP3    H239918   8.518   5.318   1.411  0.9302 -0.0913  0.6325
13328TIP3   OH239919   1.028   6.237   1.501 -0.3104 -0.1204  0.1378
13328TIP3    H139920   0.944   6.191   1.508 -0.2951 -0.1176  0.3419
13328TIP3    H239921   1.069   6.226   1.587  0.1076 -0.5289 -0.1138
13329TIP3   OH239922   5.814   1.457   6.292 -0.3659  0.7893 -0.2688
13329TIP3    H139923   5.830   1.400   6.216 -1.2483  0.6572 -0.3699
13329TIP3    H239924   5.782   1.398   6.360  3.8364  0.3356  1.4438
13330TIP3   OH239925   0.493   3.084   0.874  0.2527  0.5165  0.1255
13330TIP3    H139926   0.420   3.023   0.884  0.7057 -0.2786 -1.2728
13330TIP3    H239927   0.452   3.169   0.862 -0.3864  0.5844  2.5759
13331TIP3   OH239928   1.276   6.517   1.191 -0.1950  0.3586 -0.1530
13331TIP3    H139929   1.332   6.497   1.115 -0.2555  1.2915 -0.4593
13331TIP3    H239930   1.310   6.601   1.223 -1.7763  1.2480 -0.7077
13332TIP3   OH239931   7.563   5.133   2.359 -0.3808 -0.0581 -0.0161
13332TIP3    H139932   7.551   5.222   2.326 -0.4191  0.1716  0.6179
13332TIP3    H239933   7.532   5.077   2.287  0.7954  0.4040 -0.9021
13333TIP3   OH239934   1.361   3.080   1.532  0.0176 -0.1520 -0.1523
13333TIP3    H139935   1.360   3.121   1.446 -0.6760  1.4962  0.6181
13333TIP3    H239936   1.442   3.110   1.572  0.4102 -1.0345 -0.2896
13334TIP3   OH239937   7.531   4.969   1.527 -0.3732 -0.3069 -0.2505
13334TIP3    H139938   7.551   4.977   1.620 -0.6085 -0.4147 -0.1896
13334TIP3    H239939   7.547   4.877   1.506 -0.4061 -0.3020 -0.2972
13335TIP3   OH239940   7.880   7.838   1.765  0.0375 -0.1725  0.0102
13335TIP3    H139941   7.894   7.746   1.742  2.8798 -0.8809  3.9650
13335TIP3    H239942   7.822   7.835   1.842 -0.6470  1.4225 -0.4171
13336TIP3   OH239943   6.393   1.613   6.811 -0.6070 -0.0534 -0.0362
13336TIP3    H139944   6.461   1.668   6.851  0.0982 -0.5844 -0.4893
13336TIP3    H239945   6.374   1.656   6.728 -1.0012  0.2364  0.2080
13337TIP3   OH239946   7.750   3.039   5.385 -0.3098 -0.2760 -0.3902
13337TIP3    H139947   7.820   2.985   5.422  0.2190  0.3374 -0.4950
13337TIP3    H239948   7.685   2.976   5.355 -0.9534 -0.7874  1.9735
13338TIP3   OH239949   2.350   6.014   1.167  0.7615  0.0528  0.5759
13338TIP3    H139950   2.347   6.106   1.142  1.3414  0.4721  1.9579
13338TIP3    H239951   2.440   5.987   1.149  0.5377 -0.2976 -0.0170
13339TIP3   OH239952   7.616   5.802   2.075  0.2057  0.3059 -0.2871
13339TIP3    H139953   7.587   5.823   1.987  0.2585  0.4918 -0.2624
13339TIP3    H239954   7.594   5.710   2.088 -2.5605  1.0397  0.5962
13340TIP3   OH239955   0.590   4.944   1.019 -0.3006  0.0406  0.4469
13340TIP3    H139956   0.647   4.955   0.943  1.1434  3.9791  1.9748
13340TIP3    H239957   0.631   4.874   1.070  1.8136  1.1177  0.2838
13341TIP3   OH239958   6.833   3.582   0.083 -0.1685  0.0807 -0.3724
13341TIP3    H139959   6.739   3.578   0.067  0.0057 -1.5495 -1.1067
13341TIP3    H239960   6.865   3.652   0.027 -1.3043  2.4052  1.8155
13342TIP3   OH239961   1.050   6.451   1.318  0.0041 -0.6772  0.2392
13342TIP3    H139962   1.135   6.450   1.275  0.6522  0.5923  1.4565
13342TIP3    H239963   1.044   6.365   1.360  0.8267 -0.6542  0.4190
13343TIP3   OH239964   8.221   3.850   0.832  0.0735 -0.0054  0.3446
13343TIP3    H139965   8.247   3.758   0.827  1.9353  0.5281 -0.1357
13343TIP3    H239966   8.211   3.867   0.926 -0.4411 -0.7408  0.4264
13344TIP3   OH239967   7.403   6.947   2.314 -0.2054 -0.1204  0.3541
13344TIP3    H139968   7.489   6.985   2.295 -0.4659  1.3396  2.0165
13344TIP3    H239969   7.413   6.907   2.400 -1.2822  0.3354  0.7006
13345TIP3   OH239970   0.310   7.025   1.983 -0.0596  0.0002 -0.5763
13345TIP3    H139971   0.221   7.057   1.970 -0.4103 -0.3957  0.7730
13345TIP3    H239972   0.307   6.978   2.066  1.1586 -0.9329 -1.0371
13346TIP3   OH239973   1.284   7.247   6.774 -0.6221  0.2938  0.2471
13346TIP3    H139974   1.225   7.301   6.826  1.1771  1.6066  0.9668
13346TIP3    H239975   1.289   7.292   6.690 -1.8553 -0.6742 -0.3625
13347TIP3   OH239976   8.217   6.491   2.880  0.2882 -0.4653  0.3734
13347TIP3    H139977   8.285   6.508   2.945 -0.1926  0.9425  0.5241
13347TIP3    H239978   8.134   6.507   2.926 -0.1853 -2.6410  0.3343
13348TIP3   OH239979   3.057   6.528   6.006 -0.4899 -0.4653 -0.0274
13348TIP3    H139980   2.983   6.548   5.948 -0.2366 -0.5515 -0.3826
13348TIP3    H239981   3.042   6.582   6.084 -1.0923 -0.7236  0.0321
13349TIP3   OH239982   6.592   2.192   6.887 -0.2215 -0.0544  0.2114
13349TIP3    H139983   6.580   2.148   6.971 -1.6862  0.8765  0.5191
13349TIP3    H239984   6.559   2.129   6.822 -0.0021 -0.3891  0.4260
13350TIP3   OH239985   0.307   6.116   0.689  0.0535 -0.5329 -0.6074
13350TIP3    H139986   0.282   6.192   0.636  0.1776  0.7968  1.2119
13350TIP3    H239987   0.390   6.087   0.650  1.3571  1.8886  0.3145
13351TIP3   OH239988   5.488   1.810   6.090 -0.4127  0.8239 -0.1883
13351TIP3    H139989   5.566   1.799   6.037  0.0466  0.0628  0.6414
13351TIP3    H239990   5.507   1.886   6.146 -0.2420  0.6053  0.0520
13352TIP3   OH239991   4.066   0.066   6.128  0.0082 -0.1961 -0.2759
13352TIP3    H139992   3.975   0.078   6.154 -0.6615 -0.7717 -2.3081
13352TIP3    H239993   4.116   0.108   6.198 -1.7284 -1.5352  1.8308
13353TIP3   OH239994   6.384   6.223   2.048  0.0671 -0.1064 -0.0355
13353TIP3    H139995   6.470   6.223   2.091 -0.2824  0.1677  0.6870
13353TIP3    H239996   6.322   6.243   2.119 -0.4280  1.3984 -0.8756
13354TIP3   OH239997   0.106   6.140   1.369 -0.2487  0.0034 -0.3500
13354TIP3    H139998   0.051   6.206   1.411 -0.4352  0.1279 -0.7940
13354TIP3    H239999   0.045   6.070   1.345 -0.1211 -0.1211 -0.3129
13355TIP3   OH240000   0.372   4.616   0.203  0.2674  0.3224  0.1282
13355TIP3    H140001   0.389   4.529   0.167  0.6548  0.2619  0.4449
13355TIP3    H240002   0.355   4.671   0.127  0.1104 -0.0132 -0.0789
13356TIP3   OH240003   4.647   3.693   5.894 -0.2524 -0.2541  0.1879
13356TIP3    H140004   4.706   3.627   5.858 -0.5934 -0.8707  0.7548
13356TIP3    H240005   4.705   3.763   5.925  0.0478  0.2061 -1.4067
13357TIP3   OH240006   3.921   2.267   6.337 -0.1925 -0.1476 -0.0812
13357TIP3    H140007   3.994   2.269   6.399 -0.4822 -0.5810  0.2707
13357TIP3    H240008   3.957   2.307   6.257  0.0560  0.7760  0.4924
13358TIP3   OH240009   6.854   6.133   3.203 -0.3879 -0.6505  0.8576
13358TIP3    H140010   6.935   6.141   3.153 -0.4551 -0.1615  0.8252
13358TIP3    H240011   6.832   6.223   3.226 -1.9505 -0.5835 -0.7760
13359TIP3   OH240012   2.980   5.805   0.669  0.1016 -0.1135 -0.1886
13359TIP3    H140013   3.031   5.811   0.749 -0.0868  0.1965 -0.0933
13359TIP3    H240014   3.000   5.717   0.635  1.7897  0.5131 -0.8888
13360TIP3   OH240015   0.611   5.800   1.610 -0.0810  0.6328  0.4718
13360TIP3    H140016   0.681   5.738   1.593  0.5055  1.2288  0.6932
13360TIP3    H240017   0.637   5.880   1.565 -0.9750  0.6361 -0.0595
13361TIP3   OH240018   5.664   2.502   6.223  0.1984 -0.1528  0.4327
13361TIP3    H140019   5.704   2.508   6.136  0.1691  0.7095  0.4736
13361TIP3    H240020   5.599   2.432   6.214 -0.4525  0.5452 -0.5087
13362TIP3   OH240021   0.541   5.513   0.974  0.2701  0.4544  0.3735
13362TIP3    H140022   0.446   5.497   0.975  0.6041 -1.8861 -0.8708
13362TIP3    H240023   0.578   5.435   0.931  2.7271  1.5103  0.4788
13363TIP3   OH240024   3.323   0.006   2.185 -0.5184  0.1476 -0.4080
13363TIP3    H140025   3.410   0.045   2.179 -0.4838  0.3790  1.4103
13363TIP3    H240026   3.284   0.047   2.261 -1.2398 -1.8729  0.3262
13364TIP3   OH240027   6.698   4.712   3.334  0.9699  0.0500  0.5577
13364TIP3    H140028   6.608   4.714   3.301  1.3465 -0.7789 -0.5370
13364TIP3    H240029   6.714   4.801   3.366  0.7283  0.9976 -1.8598
13365TIP3   OH240030   7.614   6.129   2.845  0.5448  0.5247 -0.5878
13365TIP3    H140031   7.624   6.064   2.775 -2.1512 -0.2834 -0.2632
13365TIP3    H240032   7.543   6.186   2.816 -0.1731  0.5772  1.1664
13366TIP3   OH240033   2.972   0.806   2.369  0.0084 -0.2587  0.5289
13366TIP3    H140034   2.907   0.869   2.337  0.6103 -0.0419 -0.2931
13366TIP3    H240035   2.940   0.780   2.455  0.5054  2.2509  1.4971
13367TIP3   OH240036   1.532   5.091   2.424 -0.0316  0.1116 -0.0207
13367TIP3    H140037   1.531   5.006   2.467  1.3019 -0.0193 -0.2059
13367TIP3    H240038   1.501   5.074   2.335  1.0092 -0.3418 -0.3077
13368TIP3   OH240039   4.272   0.232   6.551  0.1343 -0.2834  0.1098
13368TIP3    H140040   4.302   0.316   6.517 -0.9813  1.0868  2.4199
13368TIP3    H240041   4.347   0.198   6.599 -0.1810  0.5237  1.1836
13369TIP3   OH240042   0.954   5.753   3.497 -0.2422  0.7183  0.3914
13369TIP3    H140043   0.889   5.690   3.528 -0.6049  0.6173 -0.5581
13369TIP3    H240044   0.923   5.837   3.531 -0.9904  0.6973 -0.2260
13370TIP3   OH240045   6.678   1.420   5.979  0.1220 -0.0808  0.2978
13370TIP3    H140046   6.624   1.358   5.929  1.5804 -0.5794 -0.7063
13370TIP3    H240047   6.752   1.367   6.010  1.5107  1.1989 -0.7814
13371TIP3   OH240048   0.863   5.742   0.638 -0.0183 -0.0284  0.2425
13371TIP3    H140049   0.887   5.824   0.681 -2.8034  1.2919 -0.6172
13371TIP3    H240050   0.843   5.682   0.710 -1.0295  1.0189  0.8538
13372TIP3   OH240051   0.075   2.155   6.715  0.5637 -0.1593 -0.0009
13372TIP3    H140052   0.065   2.065   6.684 -0.1492 -0.8942  2.2741
13372TIP3    H240053   0.078   2.147   6.811  2.5086  2.0413  0.1613
13373TIP3   OH240054   1.639   5.191   0.265  0.6912  0.7387 -0.3138
13373TIP3    H140055   1.698   5.177   0.191 -1.2419  0.8781 -1.9246
13373TIP3    H240056   1.556   5.150   0.237 -0.0505  0.7674  1.7843
13374TIP3   OH240057   2.100   5.356   0.498  0.6163 -0.2027  0.3317
13374TIP3    H140058   2.090   5.346   0.593  0.8559  0.1787  0.3993
13374TIP3    H240059   2.031   5.418   0.473  0.8406  0.0458  0.3273
13375TIP3   OH240060   7.244   0.381   6.710  0.5258 -0.7199  0.5992
13375TIP3    H140061   7.179   0.369   6.640  1.7358 -1.5528 -0.3996
13375TIP3    H240062   7.239   0.300   6.761  0.5751 -0.6600  0.6982
13376TIP3   OH240063   3.638   6.087   1.595  0.3797 -0.4851 -0.3428
13376TIP3    H140064   3.569   6.047   1.543  0.6101 -2.3740  0.7716
13376TIP3    H240065   3.593   6.123   1.672  0.2456  0.9594 -1.0820
13377TIP3   OH240066   2.009   6.462   0.296 -0.4396 -0.6326 -0.5871
13377TIP3    H140067   2.035   6.537   0.242 -2.7499  2.0403  1.8545
13377TIP3    H240068   1.921   6.440   0.265 -0.6699 -0.8625  0.2320
13378TIP3   OH240069   3.378   0.484   1.273  0.4385  0.3576 -0.4552
13378TIP3    H140070   3.429   0.458   1.197  0.8902  1.6276 -0.6061
13378TIP3    H240071   3.437   0.472   1.347  0.6350  0.9103 -0.5209
13379TIP3   OH240072   1.070   6.357   0.156  0.2993 -0.1118 -0.4611
13379TIP3    H140073   1.033   6.327   0.073  0.5549  1.1586 -1.0610
13379TIP3    H240074   1.112   6.280   0.194 -0.0607 -0.7672 -1.3841
13380TIP3   OH240075   7.300   0.632   6.260 -0.5417  0.1012 -0.3111
13380TIP3    H140076   7.277   0.724   6.249 -1.1560 -0.0529 -0.3622
13380TIP3    H240077   7.305   0.598   6.170  1.2494  0.4487 -0.3621
13381TIP3   OH240078   1.711   5.615   1.106 -0.3752  0.1677 -0.1044
13381TIP3    H140079   1.701   5.524   1.134  0.2216 -0.1597 -0.9366
13381TIP3    H240080   1.624   5.641   1.076 -0.6235 -0.0152  0.4566
13382TIP3   OH240081   6.899   2.716   5.836  0.3406  0.1136  0.0311
13382TIP3    H140082   6.934   2.804   5.846  0.4588  0.0269  0.4043
13382TIP3    H240083   6.969   2.659   5.868 -0.3536 -0.0349  1.3051
13383TIP3   OH240084   7.490   1.615   6.435  0.2436 -0.0537 -0.0355
13383TIP3    H140085   7.412   1.575   6.473 -0.8011 -0.8604 -2.8729
13383TIP3    H240086   7.563   1.572   6.478 -0.8703 -0.2789  1.6721
13384TIP3   OH240087   1.521   5.850   1.009  0.0882 -0.4412  0.2305
13384TIP3    H140088   1.436   5.850   0.966  0.0512  1.4680  0.2282
13384TIP3    H240089   1.572   5.916   0.961  1.2211 -0.8352  0.8688
13385TIP3   OH240090   2.975   6.119   1.529  0.3186  0.0241  0.3078
13385TIP3    H140091   2.919   6.194   1.509 -0.7076 -0.2532  2.0131
13385TIP3    H240092   3.062   6.156   1.538  0.1934  0.6654 -1.1167
13386TIP3   OH240093   7.580   3.663   5.508  0.5722  0.0466  0.4495
13386TIP3    H140094   7.623   3.720   5.445 -0.7012 -1.9617 -2.3362
13386TIP3    H240095   7.551   3.722   5.578  1.7291  2.3741 -0.9731
13387TIP3   OH240096   8.331   8.021   2.650  0.2384 -0.1956  0.3843
13387TIP3    H140097   8.324   7.934   2.688 -0.7619 -0.2901 -0.0194
13387TIP3    H240098   8.273   8.075   2.702 -0.1015 -0.0360 -0.1612
13388TIP3   OH240099   4.292   3.577   6.061 -0.3334  0.2655  0.0134
13388TIP3    H140100   4.265   3.631   5.987  0.1788 -0.5509 -0.7777
13388TIP3    H240101   4.223   3.589   6.126  0.0574  2.3377  0.0936
13389TIP3   OH240102   2.737   6.681   0.372  0.0971 -0.5270  0.3836
13389TIP3    H140103   2.740   6.678   0.468 -2.2870 -0.5641  0.4927
13389TIP3    H240104   2.808   6.623   0.344  1.8896  0.7895  2.0980
13390TIP3   OH240105   8.054   7.393   0.397 -0.2946 -0.0331 -1.0927
13390TIP3    H140106   7.972   7.426   0.432 -0.8237 -1.8702 -0.5500
13390TIP3    H240107   8.099   7.471   0.364 -1.0322  1.3535  1.0915
13391TIP3   OH240108   1.087   6.826   0.095 -0.1676  0.6126 -0.1408
13391TIP3    H140109   1.015   6.787   0.045 -0.1903 -0.8596  1.0256
13391TIP3    H240110   1.156   6.759   0.093  0.1687  0.9217  1.0139
13392TIP3   OH240111   1.848   7.472   2.776 -0.6087 -0.1732  0.6836
13392TIP3    H140112   1.884   7.514   2.698 -1.7235  0.3686  0.4420
13392TIP3    H240113   1.921   7.466   2.836 -0.1590  1.0886  0.2887
13393TIP3   OH240114   7.452   4.900   0.513 -0.2895  0.5737  0.5452
13393TIP3    H140115   7.531   4.937   0.472  0.8667 -1.5180  0.8355
13393TIP3    H240116   7.399   4.870   0.439  0.9686 -1.5432  0.4783
13394TIP3   OH240117   6.521   2.026   6.272  0.1558 -0.4578 -0.8133
13394TIP3    H140118   6.470   2.107   6.270 -1.1759 -1.2545  0.2144
13394TIP3    H240119   6.599   2.048   6.322 -0.2996  0.1303 -0.3519
13395TIP3   OH240120   7.837   7.565   0.314 -0.4097 -0.6712  0.4762
13395TIP3    H140121   7.833   7.481   0.269 -1.0001 -0.5950  0.3813
13395TIP3    H240122   7.809   7.629   0.249 -3.1347 -0.7608  1.4535
13396TIP3   OH240123   7.110   7.675   0.619  0.4912  0.2005  0.4108
13396TIP3    H140124   7.090   7.761   0.654  0.2729  0.6213 -0.7091
13396TIP3    H240125   7.119   7.689   0.524 -0.5890 -1.1840  0.0857
13397TIP3   OH240126   3.571   4.789   5.266  0.0950  0.0448 -0.3597
13397TIP3    H140127   3.515   4.781   5.189  0.6486  1.1739 -0.8873
13397TIP3    H240128   3.544   4.871   5.308 -0.6263 -0.8722  0.9965
13398TIP3   OH240129   7.607   6.744   3.458 -0.6964 -0.0951  0.2641
13398TIP3    H140130   7.544   6.674   3.474 -0.1790 -0.5164  0.4579
13398TIP3    H240131   7.691   6.700   3.448 -0.5129  0.4170 -0.5522
13399TIP3   OH240132   8.323   7.420   0.711 -0.1434  0.1083  0.1833
13399TIP3    H140133   8.318   7.392   0.620  3.1582  0.3045 -0.0928
13399TIP3    H240134   8.336   7.338   0.760  1.9518  0.3587  0.0827
13400TIP3   OH240135   6.623   6.576   1.125  0.4152  0.2062  0.3428
13400TIP3    H140136   6.669   6.651   1.088  2.7346 -0.5110  1.6055
13400TIP3    H240137   6.612   6.597   1.218 -1.0661 -0.0072  0.2279
13401TIP3   OH240138  -0.006   7.050   1.401 -0.1047  0.0633 -0.1946
13401TIP3    H140139  -0.068   7.094   1.342 -0.1111 -0.4049 -0.5350
13401TIP3    H240140   0.080   7.069   1.363 -0.0010  1.0637  0.5072
13402TIP3   OH240141   7.057   7.599   0.946  0.2607  0.0631 -0.3821
13402TIP3    H140142   6.970   7.620   0.912 -0.0254  1.5145  1.1644
13402TIP3    H240143   7.101   7.684   0.950  0.5075 -0.1590  2.1628
13403TIP3   OH240144   2.041   0.702   2.061  0.0090  0.2472  0.0433
13403TIP3    H140145   2.069   0.753   1.986  1.4535 -0.8247 -0.1729
13403TIP3    H240146   2.061   0.757   2.137  1.8723 -0.0933 -0.1646
13404TIP3   OH240147   6.716   6.620   0.169  0.0958 -0.6011  0.2051
13404TIP3    H140148   6.651   6.577   0.113 -0.4928  0.4756  0.0336
13404TIP3    H240149   6.684   6.605   0.258 -0.2131 -0.3550  0.1367
13405TIP3   OH240150   4.174   7.906   1.804 -0.4581 -0.0404 -0.4810
13405TIP3    H140151   4.234   7.939   1.736  0.6320 -0.1962  0.3899
13405TIP3    H240152   4.169   7.977   1.868 -1.8546  0.2868 -0.9541
13406TIP3   OH240153   7.766   6.181   1.108 -0.2307  0.2516  0.2359
13406TIP3    H140154   7.687   6.193   1.160  0.2538  0.3674  0.9489
13406TIP3    H240155   7.740   6.121   1.038 -0.6593 -0.6010  1.1158
13407TIP3   OH240156   6.429   6.741   2.828 -0.1946 -0.1438  0.5091
13407TIP3    H140157   6.334   6.744   2.825 -0.1940 -1.5538 -1.9545
13407TIP3    H240158   6.456   6.833   2.829 -1.5608  0.2622  0.6844
13408TIP3   OH240159   4.838   1.192   6.327 -0.5267  0.2543 -0.5820
13408TIP3    H140160   4.788   1.154   6.255  0.3070 -0.5991 -0.7263
13408TIP3    H240161   4.845   1.285   6.305 -0.2037 -0.0169 -1.6576
13409TIP3   OH240162   6.747   4.941   2.222 -0.1355 -0.2240 -0.1989
13409TIP3    H140163   6.829   4.943   2.273  1.1352 -2.0390 -2.1065
13409TIP3    H240164   6.734   4.849   2.201 -2.2523  0.1596 -0.6337
13410TIP3   OH240165   7.736   7.664   0.783  0.0121  0.1741 -0.5751
13410TIP3    H140166   7.781   7.627   0.708  0.7710  1.2366 -0.6467
13410TIP3    H240167   7.644   7.664   0.758 -0.3049 -3.5583  0.2134
13411TIP3   OH240168   6.010   7.068   0.552  0.4189  0.4901  0.0463
13411TIP3    H140169   5.978   6.988   0.592 -2.0270  1.5017  0.2216
13411TIP3    H240170   5.935   7.127   0.552  1.8570  2.4138 -1.0705
13412TIP3   OH240171   1.555   1.391   1.834  0.2216  0.0660  0.5511
13412TIP3    H140172   1.610   1.444   1.776 -0.1837 -2.5578 -2.3223
13412TIP3    H240173   1.577   1.301   1.812 -1.4300 -0.9972  3.0927
13413TIP3   OH240174   7.893   5.115   0.655  0.4881  0.3744  0.0434
13413TIP3    H140175   7.806   5.120   0.694 -0.9721 -0.9470 -2.8236
13413TIP3    H240176   7.929   5.032   0.686  0.7192  0.9105  1.2099
13414TIP3   OH240177   4.810   2.994   6.930  0.0947 -0.0782  0.5053
13414TIP3    H140178   4.724   2.968   6.963  0.4355 -1.4531  0.3356
13414TIP3    H240179   4.831   2.929   6.864  1.2473  0.2811  0.5085
13415TIP3   OH240180   6.362   6.417   0.800  0.4717 -0.5176  0.4250
13415TIP3    H140181   6.446   6.374   0.815  0.7227 -0.4480 -0.7096
13415TIP3    H240182   6.296   6.350   0.821  0.8022 -0.5093  1.5035
13416TIP3   OH240183   5.028   0.977   6.136  0.3370 -0.1798  0.3969
13416TIP3    H140184   4.942   1.011   6.110  0.7827  1.5505  1.1030
13416TIP3    H240185   5.010   0.922   6.212  0.0623  1.7239  1.7376
13417TIP3   OH240186   8.069   6.514   2.435  0.0030  0.2893  0.5631
13417TIP3    H140187   7.974   6.507   2.419 -0.3101  3.0520  0.8904
13417TIP3    H240188   8.107   6.440   2.388 -2.1382  0.3784 -1.4038
13418TIP3   OH240189   7.738   6.461   1.708  0.0712  0.0795 -0.5073
13418TIP3    H140190   7.791   6.382   1.697  1.8982  1.4474 -1.7757
13418TIP3    H240191   7.655   6.429   1.742  0.7433 -2.4043 -1.0919
13419TIP3   OH240192   0.087   4.489   0.992 -0.8332 -0.0578  0.0246
13419TIP3    H140193   0.031   4.426   1.038 -1.0956  1.2310  1.4807
13419TIP3    H240194   0.157   4.509   1.054 -0.3206  0.4973 -0.7242
13420TIP3   OH240195   7.698   5.877   2.694  0.1884  0.3520  0.5385
13420TIP3    H140196   7.681   5.795   2.647 -0.2330  0.4647  0.4943
13420TIP3    H240197   7.784   5.863   2.735  0.9044  0.5365 -0.8772
13421TIP3   OH240198   6.561   7.090   1.383  0.4904  0.7616 -0.2854
13421TIP3    H140199   6.637   7.082   1.326 -0.1402  0.3277 -1.0684
13421TIP3    H240200   6.517   7.170   1.353 -0.8138 -0.4276 -1.5797
13422TIP3   OH240201   3.653   0.889   6.571  0.3233 -0.1995 -0.4067
13422TIP3    H140202   3.679   0.821   6.508  1.2590 -0.2601  0.0338
13422TIP3    H240203   3.568   0.861   6.603  2.9404 -4.0117  3.7218
13423TIP3   OH240204   6.250   7.148   1.209 -0.3661  0.8574 -0.2587
13423TIP3    H140205   6.301   7.228   1.201 -3.1567  2.5611 -1.5785
13423TIP3    H240206   6.173   7.174   1.259 -0.5479 -1.3953  0.6983
13424TIP3   OH240207   5.819   7.252   0.547  0.1518 -0.0087  0.2463
13424TIP3    H140208   5.733   7.245   0.505 -0.1431  1.0257  0.6585
13424TIP3    H240209   5.808   7.322   0.611  1.3025  0.1105  0.3175
13425TIP3   OH240210   6.572   5.590   0.049  0.0150 -0.3146 -0.3984
13425TIP3    H140211   6.517   5.516   0.075  1.0270 -0.6055  0.9532
13425TIP3    H240212   6.634   5.552  -0.015  1.4816 -0.9974  1.3841
13426TIP3   OH240213   5.128   3.249   6.144  0.4838  0.5296  0.1861
13426TIP3    H140214   5.058   3.229   6.207  0.2867  0.6604  0.0085
13426TIP3    H240215   5.139   3.169   6.094 -0.9631  1.1507 -1.1609
13427TIP3   OH240216   2.077   0.200   1.436 -0.0345  0.0134 -0.3086
13427TIP3    H140217   2.135   0.172   1.507 -2.4157  0.6955  1.9604
13427TIP3    H240218   2.101   0.291   1.421 -0.7137  0.3935  0.8529
13428TIP3   OH240219   5.731   5.805   0.405 -0.5236  0.2680 -0.0112
13428TIP3    H140220   5.647   5.784   0.364 -0.3848  0.1874 -0.2567
13428TIP3    H240221   5.713   5.882   0.458 -0.8610 -0.0163  0.2975
13429TIP3   OH240222   1.592   0.738   0.634 -0.2446  0.1983 -0.4442
13429TIP3    H140223   1.527   0.672   0.611  0.0547 -0.1446 -0.3188
13429TIP3    H240224   1.676   0.692   0.625  0.0952  1.2026 -2.5789
13430TIP3   OH240225   6.697   7.758   0.435  0.1590  0.4033 -0.0881
13430TIP3    H140226   6.671   7.750   0.343  1.0131 -4.6497 -0.0056
13430TIP3    H240227   6.780   7.712   0.440 -0.6825 -0.8241  3.5639
13431TIP3   OH240228   5.105   3.647   6.566 -0.3756  0.0943  0.2054
13431TIP3    H140229   5.047   3.723   6.567  0.7014  0.9415 -0.3858
13431TIP3    H240230   5.189   3.680   6.599 -0.3814 -1.2536  1.6303
13432TIP3   OH240231   1.836   1.056   1.180 -0.4732 -0.5127  0.0472
13432TIP3    H140232   1.860   0.972   1.142  0.6661 -0.3166  0.3317
13432TIP3    H240233   1.868   1.121   1.117  2.6841 -0.1283  1.9680
13433TIP3   OH240234   8.373   0.600   1.518 -0.4302  0.1731 -0.0513
13433TIP3    H140235   8.421   0.520   1.541 -0.3579  0.3496  0.4336
13433TIP3    H240236   8.396   0.661   1.588  1.0304  1.2349 -1.4104
13434TIP3   OH240237   2.087   0.491   1.522  0.1371 -0.0631 -0.4872
13434TIP3    H140238   2.040   0.555   1.576 -0.2271  0.4707 -1.4288
13434TIP3    H240239   2.170   0.478   1.567  1.0419  2.5878 -1.3468
13435TIP3   OH240240   6.518   7.288   1.011 -0.4052 -0.1089  0.1109
13435TIP3    H140241   6.545   7.298   0.920  0.0040  1.0826  0.3578
13435TIP3    H240242   6.492   7.196   1.019  0.7097 -0.5077 -0.8878
13436TIP3   OH240243   4.978   3.623   6.095  0.3362  0.8925  0.1775
13436TIP3    H140244   4.939   3.702   6.058 -0.7808 -0.2045 -1.0676
13436TIP3    H240245   4.962   3.556   6.029  0.5446 -0.5551  1.5677
13437TIP3   OH240246   4.883   7.376   2.756 -0.2415 -0.2351  0.6859
13437TIP3    H140247   4.789   7.389   2.766 -0.7819 -3.0936 -0.1502
13437TIP3    H240248   4.896   7.363   2.662  1.2607  1.7359  0.5681
13438TIP3   OH240249   8.084   0.519   1.638  0.2677  0.0185 -0.0003
13438TIP3    H140250   8.143   0.451   1.605  0.4920 -0.4576  1.3533
13438TIP3    H240251   8.120   0.541   1.725 -0.5806  0.9146  0.1273
13439TIP3   OH240252   4.733   1.439   5.756 -0.4986 -0.5479 -0.0680
13439TIP3    H140253   4.749   1.533   5.763 -0.7788 -0.4962 -0.1450
13439TIP3    H240254   4.641   1.432   5.731 -0.1931 -0.8121 -1.1293
13440TIP3   OH240255   4.356   1.275   5.978 -0.6073  0.3055 -0.0250
13440TIP3    H140256   4.306   1.341   6.025  0.6062  1.5452 -0.4473
13440TIP3    H240257   4.436   1.265   6.029  0.0369  0.5349 -0.9932
13441TIP3   OH240258   6.497   6.859   0.964  0.2464 -0.0746 -0.3541
13441TIP3    H140259   6.450   6.941   0.951  1.4305  0.7697  0.5452
13441TIP3    H240260   6.506   6.851   1.059  0.7391 -0.8833 -0.4617
13442TIP3   OH240261   7.984   7.469   1.121  0.5783 -0.2932  0.1295
13442TIP3    H140262   8.039   7.402   1.162  1.1182  0.5655  0.8449
13442TIP3    H240263   7.941   7.513   1.194  2.8446  2.3754 -0.0371
13443TIP3   OH240264   5.189   2.114   5.386 -0.1636 -0.1592  0.7850
13443TIP3    H140265   5.279   2.121   5.355  0.2925 -0.7528  1.9483
13443TIP3    H240266   5.139   2.173   5.329  1.1822  1.2273  1.0108
13444TIP3   OH240267   1.066   0.992   2.489  0.2408  0.3748 -0.2947
13444TIP3    H140268   1.037   1.080   2.466  0.5390  0.0441 -1.9496
13444TIP3    H240269   0.994   0.935   2.464  0.0131  0.1325  0.8480
13445TIP3   OH240270   0.381   6.180   2.369 -0.3495  0.1046 -0.1002
13445TIP3    H140271   0.435   6.255   2.394  1.1664 -0.7365 -0.7704
13445TIP3    H240272   0.318   6.171   2.441  0.1441  1.3501  0.5034
13446TIP3   OH240273   1.473   5.137   0.501 -0.0268  0.4897  0.1679
13446TIP3    H140274   1.413   5.111   0.431  1.7622  0.2587 -1.3004
13446TIP3    H240275   1.560   5.132   0.461  0.9058  1.6447  2.0245
13447TIP3   OH240276   7.450   7.059   1.789 -0.0232  0.2650  0.3128
13447TIP3    H140277   7.534   7.098   1.765 -0.0969  0.2513  0.0238
13447TIP3    H240278   7.465   7.019   1.874 -0.3930  2.3342  1.3825
13448TIP3   OH240279   3.286   2.941   6.869 -0.4620  0.0769 -0.2108
13448TIP3    H140280   3.374   2.941   6.909 -0.3420  0.4290 -0.4656
13448TIP3    H240281   3.243   2.865   6.906  1.1890 -2.2447 -2.8092
13449TIP3   OH240282   3.882   2.360   5.535 -0.0472 -0.2469 -0.5675
13449TIP3    H140283   3.882   2.304   5.613 -0.1493  0.0475 -0.3548
13449TIP3    H240284   3.973   2.390   5.527 -0.7904  3.0019  1.8210
13450TIP3   OH240285   7.907   6.528   2.953  0.1668 -0.0972 -0.0277
13450TIP3    H140286   7.837   6.568   3.003  0.1174 -0.0737 -0.1166
13450TIP3    H240287   7.864   6.491   2.876  0.2561 -0.0583 -0.0959
13451TIP3   OH240288   4.044   1.908   6.555  0.2685 -0.1022 -0.0599
13451TIP3    H140289   4.019   1.918   6.463 -0.7999 -2.1309 -0.0278
13451TIP3    H240290   3.970   1.862   6.595  1.1803 -0.1903  1.5757
13452TIP3   OH240291   0.393   7.726   0.454 -0.3894  0.0096  0.4324
13452TIP3    H140292   0.454   7.706   0.525 -2.3589 -0.4101  2.0642
13452TIP3    H240293   0.383   7.821   0.457  1.5898  0.2751 -1.0485
13453TIP3   OH240294   5.963   7.571   0.889 -0.2958  0.3897  0.2332
13453TIP3    H140295   5.985   7.660   0.916 -0.2832 -0.4403  3.1353
13453TIP3    H240296   5.954   7.576   0.794  0.5915  3.2840  0.2591
13454TIP3   OH240297   5.709   5.626   2.736 -0.6226 -0.0574  0.5353
13454TIP3    H140298   5.636   5.650   2.793 -0.1776 -0.0719  1.1238
13454TIP3    H240299   5.769   5.579   2.793  0.1945  0.5998  0.2395
13455TIP3   OH240300   6.960   7.298   1.099 -0.2911  0.5103  0.3404
13455TIP3    H140301   6.945   7.219   1.150 -0.3372 -0.5389 -1.2994
13455TIP3    H240302   6.895   7.295   1.029  1.9104  0.2700 -1.7319
13456TIP3   OH240303   7.451   4.477   2.380  0.8771  0.0369  0.6234
13456TIP3    H140304   7.508   4.484   2.457 -0.9213  1.1231  1.8800
13456TIP3    H240305   7.363   4.488   2.415 -0.0892 -1.3029 -1.3561
13457TIP3   OH240306   0.263   0.069   0.753  0.1404 -0.1873  0.5941
13457TIP3    H140307   0.250   0.142   0.692 -2.9328  1.3653  2.9908
13457TIP3    H240308   0.184   0.017   0.745  1.0324 -1.6635  1.0988
13458TIP3   OH240309   0.239   6.158   2.848 -0.1747 -0.1751 -0.1095
13458TIP3    H140310   0.184   6.225   2.888 -1.4762 -1.1229 -0.2528
13458TIP3    H240311   0.227   6.081   2.905  1.5464 -0.1981  0.2444
13459TIP3   OH240312   0.799   6.045   2.117 -0.2698  0.1473 -0.5185
13459TIP3    H140313   0.719   6.033   2.167  0.1024 -1.4901 -0.2769
13459TIP3    H240314   0.837   5.957   2.112  0.6274  0.6182 -2.1016
13460TIP3   OH240315   2.138   0.222   0.295  0.5006 -0.2965  0.4079
13460TIP3    H140316   2.201   0.231   0.367  0.2463 -0.4475  0.6525
13460TIP3    H240317   2.054   0.244   0.335  0.3230 -0.6325  0.2201
13461TIP3   OH240318   5.098   4.995   6.468 -0.5340  0.0826 -0.1497
13461TIP3    H140319   5.022   5.051   6.452  0.0495  0.7083 -0.7648
13461TIP3    H240320   5.172   5.056   6.476 -0.1153 -0.5067  0.6109
13462TIP3   OH240321   3.054   0.577   0.103  0.3640  0.3321  0.1630
13462TIP3    H140322   3.051   0.650   0.165 -1.1673  0.5922 -0.2003
13462TIP3    H240323   3.017   0.613   0.022  2.4450  0.0367 -0.9709
13463TIP3   OH240324   8.123   5.648   1.661  0.2948  0.4600  0.4358
13463TIP3    H140325   8.156   5.703   1.732  0.1294  1.8166 -0.5049
13463TIP3    H240326   8.057   5.703   1.618  0.3877 -0.3470 -0.7433
13464TIP3   OH240327   1.086   0.122   1.721 -0.5753 -0.1499 -0.5702
13464TIP3    H140328   1.148   0.049   1.718  1.4467  1.5141 -0.5946
13464TIP3    H240329   1.000   0.082   1.708  0.3633 -2.6740  0.7505
13465TIP3   OH240330   2.324   2.551   1.177 -0.1295 -0.1658  0.4312
13465TIP3    H140331   2.407   2.547   1.226  0.6104 -0.1658 -0.8141
13465TIP3    H240332   2.303   2.460   1.158  0.5047 -0.0689 -0.7761
13466TIP3   OH240333   1.426   0.513   2.627 -0.1942 -0.3450  0.1773
13466TIP3    H140334   1.350   0.554   2.586  0.0052  0.5336  0.6647
13466TIP3    H240335   1.487   0.585   2.641  0.2214 -0.8327  0.9228
13467TIP3   OH240336   0.491   6.505   2.308  0.0671  0.3941 -0.2083
13467TIP3    H140337   0.476   6.435   2.245  0.2839  1.2318 -1.2080
13467TIP3    H240338   0.509   6.460   2.390  0.6099 -0.7360 -0.9330
13468TIP3   OH240339   7.509   6.170   1.259  0.0781  0.1883 -0.0129
13468TIP3    H140340   7.461   6.253   1.269  0.4243  0.5743 -1.4421
13468TIP3    H240341   7.447   6.111   1.217 -0.8537 -0.9532  2.7940
13469TIP3   OH240342   0.397   7.358   0.369 -0.4161 -0.0501  0.7072
13469TIP3    H140343   0.381   7.410   0.448 -1.3598  3.0130 -1.4175
13469TIP3    H240344   0.338   7.394   0.303  0.1064 -2.7479 -1.3545
13470TIP3   OH240345   7.047   6.850   1.660  0.4327  0.0099  0.3851
13470TIP3    H140346   7.134   6.883   1.680  0.8798 -0.5032 -0.6415
13470TIP3    H240347   7.049   6.759   1.690  1.4374 -1.0690 -2.7121
13471TIP3   OH240348   6.455   6.261   1.406 -0.6634  0.1641 -0.0751
13471TIP3    H140349   6.443   6.168   1.386  0.3150 -0.0354  0.2514
13471TIP3    H240350   6.436   6.305   1.323 -1.3919 -0.2952 -0.1660
13472TIP3   OH240351   8.492   6.331   1.535 -0.5791 -0.4216  0.2801
13472TIP3    H140352   8.533   6.355   1.618  0.0761  0.6097 -0.3248
13472TIP3    H240353   8.426   6.266   1.558 -0.8309  0.3237  1.6804
13473TIP3   OH240354   1.198   7.783   0.418 -0.1088  0.6060  0.2540
13473TIP3    H140355   1.148   7.800   0.338 -1.6016  0.2705  1.1014
13473TIP3    H240356   1.139   7.806   0.489  0.3538 -1.3066  1.2955
13474TIP3   OH240357   0.045   7.737   1.347  0.0797  0.0246  0.3297
13474TIP3    H140358   0.049   7.828   1.378 -0.4505 -0.1859  1.0315
13474TIP3    H240359   0.132   7.720   1.311 -0.4630  1.4893 -1.7554
13475TIP3   OH240360   7.302   7.718   1.751 -0.8050  0.1644  0.8111
13475TIP3    H140361   7.217   7.694   1.788 -1.0837  0.7062  0.5151
13475TIP3    H240362   7.360   7.727   1.827 -0.9058 -0.6223  0.9839
13476TIP3   OH240363   8.391   7.457   1.107 -0.4094  0.2191 -0.1113
13476TIP3    H140364   8.328   7.526   1.083 -0.1671  0.9405  1.2614
13476TIP3    H240365   8.365   7.432   1.196 -0.9701 -2.0200 -0.8755
13477TIP3   OH240366   4.788   4.548   6.474  0.2910  0.2104 -0.0928
13477TIP3    H140367   4.850   4.615   6.448  0.1023 -0.3226 -2.0037
13477TIP3    H240368   4.727   4.542   6.401 -0.6281 -0.9183  0.7454
13478TIP3   OH240369   5.988   7.252   2.763  0.3828 -0.4534 -0.5332
13478TIP3    H140370   5.905   7.262   2.810 -0.2576  1.4518 -2.0170
13478TIP3    H240371   5.969   7.190   2.693  0.5402 -0.9719 -0.1180
13479TIP3   OH240372   2.842   0.215   0.652 -0.1864 -0.0197 -0.0354
13479TIP3    H140373   2.791   0.271   0.711 -0.1908  0.4250 -0.4577
13479TIP3    H240374   2.822   0.126   0.681  1.7231  0.2415  2.2166
13480TIP3   OH240375   2.039   0.809   1.311 -0.4861 -0.3014 -0.2709
13480TIP3    H140376   2.108   0.838   1.370 -1.3837  1.6909 -0.1542
13480TIP3    H240377   2.067   0.839   1.224 -0.0036 -1.7133 -0.6238
13481TIP3   OH240378   0.542   7.016   1.842 -0.4820  0.3548 -0.2580
13481TIP3    H140379   0.607   6.973   1.898 -0.1095 -0.2495 -1.1455
13481TIP3    H240380   0.464   7.024   1.897 -1.0848 -2.9061 -0.5691
13482TIP3   OH240381   0.339   6.628   3.274 -0.0185  0.3951  0.5403
13482TIP3    H140382   0.278   6.556   3.260  0.2508  0.1482  0.6539
13482TIP3    H240383   0.289   6.706   3.248 -0.1770  0.1337  0.0546
13483TIP3   OH240384   4.979   6.334   6.476  0.1355  0.0814  0.2018
13483TIP3    H140385   5.044   6.264   6.477  0.2624  0.1768 -0.5609
13483TIP3    H240386   4.982   6.372   6.564  1.0726  0.0491  0.1870
13484TIP3   OH240387   7.037   6.354   1.016 -0.0666  0.7834  0.3326
13484TIP3    H140388   6.945   6.357   0.988  0.0187  0.5628  0.0222
13484TIP3    H240389   7.047   6.431   1.073  0.1701  2.1618 -1.5151
13485TIP3   OH240390   4.155   2.611   6.029  0.3968  0.6546  0.1816
13485TIP3    H140391   4.112   2.646   5.951  0.5851  0.2336 -0.1175
13485TIP3    H240392   4.248   2.632   6.016  0.4823  0.2287  0.0968
13486TIP3   OH240393   0.991   6.267   2.034  0.2177  0.5202 -0.0498
13486TIP3    H140394   0.977   6.322   2.112  0.2298 -0.2185  0.4808
13486TIP3    H240395   0.946   6.185   2.055  2.0191 -0.4636  0.0636
13487TIP3   OH240396   4.397   1.314   6.619 -0.0568 -0.3454 -0.2366
13487TIP3    H140397   4.440   1.229   6.612  2.6274  0.8044  1.8384
13487TIP3    H240398   4.433   1.365   6.546  0.7369  0.0232  0.4076
13488TIP3   OH240399   0.191   6.652   3.014 -0.2483  0.3445 -0.0434
13488TIP3    H140400   0.225   6.741   3.018  0.8481 -0.0724 -0.0442
13488TIP3    H240401   0.120   6.656   2.949  0.5208  0.9758 -0.8504
13489TIP3   OH240402   7.898   5.963   0.686  0.1748 -0.3961 -0.2327
13489TIP3    H140403   7.942   5.956   0.770  0.1434 -1.8831 -0.3330
13489TIP3    H240404   7.958   6.015   0.632  1.2523 -1.3662  0.0094
13490TIP3   OH240405   4.388   1.150   1.030 -0.2850 -0.5816  0.4793
13490TIP3    H140406   4.418   1.173   0.942 -1.0000  0.6067  0.5304
13490TIP3    H240407   4.446   1.080   1.058  0.9049  0.0672 -0.3466
13491TIP3   OH240408   4.094   2.109   6.113  0.0598 -0.6545 -0.1487
13491TIP3    H140409   4.171   2.096   6.058 -0.6493  1.4652 -1.6916
13491TIP3    H240410   4.071   2.201   6.102 -2.6131 -1.1940  0.3833
13492TIP3   OH240411   1.823   7.117   1.989  0.0862  0.0311  0.0866
13492TIP3    H140412   1.854   7.140   2.077  0.9288  0.1181 -0.2299
13492TIP3    H240413   1.898   7.133   1.932 -0.1314 -1.0082 -0.5055
13493TIP3   OH240414   2.401   0.087   2.817 -0.3549  0.0232  0.0254
13493TIP3    H140415   2.457   0.156   2.781 -0.9753  1.0188  0.9653
13493TIP3    H240416   2.319   0.095   2.769  0.1870 -1.2721 -1.1683
13494TIP3   OH240417   6.778   7.677   1.972  0.2397 -0.0288 -0.2498
13494TIP3    H140418   6.733   7.592   1.978 -0.6726  0.4545 -0.1375
13494TIP3    H240419   6.715   7.734   1.928  1.0350  0.4662 -0.7473
13495TIP3   OH240420   7.724   7.922   3.179 -0.5217 -0.4187 -0.2877
13495TIP3    H140421   7.818   7.937   3.172 -0.2642 -1.2754  1.2218
13495TIP3    H240422   7.694   7.984   3.245 -0.9848 -0.3342 -0.5709
13496TIP3   OH240423   8.415   0.332   0.340 -0.5833  0.4327  0.0503
13496TIP3    H140424   8.431   0.263   0.404 -0.5428  0.2380 -0.1700
13496TIP3    H240425   8.501   0.371   0.325 -0.2199 -0.8798 -1.4396
13497TIP3   OH240426   7.425   7.837   0.838  0.2355  0.3711  0.3118
13497TIP3    H140427   7.448   7.766   0.779  1.6158 -0.4174  1.7463
13497TIP3    H240428   7.481   7.910   0.812 -1.6345  1.1801 -1.5750
13498TIP3   OH240429   8.427   6.629   0.233 -0.7127  0.1398 -0.4190
13498TIP3    H140430   8.367   6.569   0.280 -0.2552 -1.2460 -1.5658
13498TIP3    H240431   8.378   6.711   0.226 -1.2353  0.0211  1.4648
13499TIP3   OH240432   6.671   5.317   0.621  0.4259 -0.1553  0.1072
13499TIP3    H140433   6.767   5.316   0.618  0.5063  0.4314  2.0135
13499TIP3    H240434   6.645   5.362   0.541  1.7667  0.2338 -0.1258
13500TIP3   OH240435   4.774   2.526   6.888 -0.4834  0.0890  0.0546
13500TIP3    H140436   4.771   2.588   6.815 -0.6914  1.1440  0.9461
13500TIP3    H240437   4.702   2.465   6.871 -0.9862  0.7579 -0.2465
13501TIP3   OH240438   3.270   1.549   1.353 -0.0725 -0.0016  0.2103
13501TIP3    H140439   3.233   1.636   1.371  1.2877  0.5456  0.4001
13501TIP3    H240440   3.307   1.522   1.437  0.0469 -0.4987 -0.0065
13502TIP3   OH240441   2.820   1.379   2.027 -0.1465  0.0735 -0.8012
13502TIP3    H140442   2.887   1.428   1.979  1.0810 -0.9354 -0.1619
13502TIP3    H240443   2.810   1.425   2.110 -1.4821  1.1905 -1.5575
13503TIP3   OH240444   2.544   0.191   3.801  0.1109  0.1149  0.1249
13503TIP3    H140445   2.611   0.259   3.811  0.1206 -0.0021  0.8949
13503TIP3    H240446   2.594   0.110   3.791  0.1031  0.2484 -1.0631
13504TIP3   OH240447   0.192   7.151   1.275  0.1996  0.6299 -0.5127
13504TIP3    H140448   0.283   7.172   1.293  0.4314 -1.0731  0.3599
13504TIP3    H240449   0.189   7.136   1.180  1.0523 -0.3753 -0.3836
13505TIP3   OH240450   6.670   6.387   0.466  0.1293  0.0709 -0.0103
13505TIP3    H140451   6.673   6.348   0.378 -1.3581  0.9530 -0.4742
13505TIP3    H240452   6.654   6.480   0.451  1.2429  0.4638  1.1638
13506TIP3   OH240453   8.291   6.432   3.616  0.1370  0.3832  0.4608
13506TIP3    H140454   8.200   6.456   3.596  0.9772  2.3726 -1.1238
13506TIP3    H240455   8.317   6.495   3.683  0.1549 -0.6055  1.3904
13507TIP3   OH240456   2.197   0.210   0.663 -0.2941 -0.0635  0.6714
13507TIP3    H140457   2.173   0.137   0.606  0.9001 -0.3168  0.4842
13507TIP3    H240458   2.229   0.168   0.743  1.0354  0.2349  0.3031
13508TIP3   OH240459   2.618   7.292   2.549  0.1049 -0.1716  0.4500
13508TIP3    H140460   2.689   7.259   2.495  0.6036  1.9612 -0.2475
13508TIP3    H240461   2.646   7.276   2.639  1.0217 -0.2169  0.1554
13509TIP3   OH240462   0.094   7.933   2.588  0.4387 -1.0178  0.2720
13509TIP3    H140463   0.148   7.955   2.664 -0.5677 -1.0231  0.9948
13509TIP3    H240464   0.011   7.979   2.603 -0.5326 -2.7288  0.2093
13510TIP3   OH240465   3.794   2.994   6.820  0.6874  0.6574 -0.3734
13510TIP3    H140466   3.833   2.955   6.899 -0.3118 -1.5443 -0.9293
13510TIP3    H240467   3.833   3.081   6.815  2.3079  0.0826  1.4270
13511TIP3   OH240468   3.579   1.106   2.435  0.1340  0.7155 -0.8702
13511TIP3    H140469   3.592   1.092   2.341 -2.2920  2.4931 -1.5132
13511TIP3    H240470   3.506   1.048   2.457 -0.7838  1.9890 -0.5666
13512TIP3   OH240471   6.817   7.437   4.106  0.0088 -0.6810  0.1229
13512TIP3    H140472   6.724   7.442   4.084 -0.1191  0.1403  0.8137
13512TIP3    H240473   6.819   7.436   4.202  0.6731 -1.6326  0.1111
13513TIP3   OH240474   6.649   5.975   1.192 -0.6603 -0.2066 -0.1525
13513TIP3    H140475   6.693   5.958   1.275 -2.4107 -1.1899  0.5937
13513TIP3    H240476   6.703   6.042   1.150 -0.0524  0.7109  2.0235
13514TIP3   OH240477   0.813   6.448   2.814  0.3895  0.0144  0.6021
13514TIP3    H140478   0.812   6.437   2.909 -1.2275  2.9176  0.9797
13514TIP3    H240479   0.810   6.543   2.801 -0.7882 -0.3697 -2.3517
13515TIP3   OH240480   0.591   6.855   1.457  0.4677  0.2432 -0.1557
13515TIP3    H140481   0.650   6.783   1.477  1.2094  0.6266 -0.9110
13515TIP3    H240482   0.636   6.904   1.388 -0.3791  0.9841 -0.1912
13516TIP3   OH240483   6.242   6.073   1.879 -0.3473 -0.3632  0.2453
13516TIP3    H140484   6.280   6.151   1.839  1.2432 -1.4768 -0.4543
13516TIP3    H240485   6.232   6.095   1.971 -1.6394  1.3137 -0.2560
13517TIP3   OH240486   7.288   6.690   1.870 -1.2734  0.0752 -0.0450
13517TIP3    H140487   7.328   6.724   1.950  1.7512  0.0704 -1.4935
13517TIP3    H240488   7.194   6.686   1.890 -0.9515  2.9750  2.4239
13518TIP3   OH240489   7.657   5.782   1.569 -0.9430  0.2544  0.3724
13518TIP3    H140490   7.651   5.688   1.553 -0.5093  0.2974 -0.0548
13518TIP3    H240491   7.587   5.820   1.517 -0.1633  0.3016 -0.6724
13519TIP3   OH240492   0.787   7.462   1.104  1.0531 -0.6966  0.3964
13519TIP3    H140493   0.741   7.424   1.030 -0.9148  0.7132  0.8399
13519TIP3    H240494   0.879   7.458   1.080  0.4537 -0.3389 -2.0956
13520TIP3   OH240495   1.437   6.458   2.051 -0.2173  0.3866  0.2876
13520TIP3    H140496   1.344   6.481   2.047 -0.4947 -0.5856  0.8799
13520TIP3    H240497   1.472   6.487   1.967 -0.8678  1.5725  0.4189
13521TIP3   OH240498   1.894   0.177   1.738 -0.4890 -0.1585 -0.0641
13521TIP3    H140499   1.868   0.160   1.647  1.6488  1.9481 -1.1449
13521TIP3    H240500   1.988   0.160   1.739 -0.3433  0.6741  1.5323
13522TIP3   OH240501   8.366   6.008   1.264 -0.1257  0.1687 -0.6708
13522TIP3    H140502   8.281   5.980   1.230 -0.8457  0.2757  1.0087
13522TIP3    H240503   8.422   6.016   1.186 -0.9031 -2.4182 -1.5528
13523TIP3   OH240504   0.602   6.667   3.236 -0.0944  0.4189 -0.5796
13523TIP3    H140505   0.507   6.654   3.244 -0.2794  1.7765 -0.4358
13523TIP3    H240506   0.637   6.579   3.223 -1.2340 -0.2668  0.7900
13524TIP3   OH240507   2.978   1.126   3.011  0.2279  0.2831  0.6699
13524TIP3    H140508   3.047   1.184   2.979 -0.6243  0.8370 -0.1789
13524TIP3    H240509   3.024   1.061   3.063  1.4977  0.1727 -0.5630
13525TIP3   OH240510   4.627   2.939   2.558 -0.7122  0.0376 -0.1706
13525TIP3    H140511   4.715   2.969   2.581 -0.7932  0.5892 -0.5650
13525TIP3    H240512   4.606   2.872   2.623  1.0372 -1.9752 -1.5844
13526TIP3   OH240513   0.018   7.555   1.604 -0.0153 -0.4170  0.2684
13526TIP3    H140514   0.063   7.617   1.546 -2.3169  0.6675 -0.4211
13526TIP3    H240515  -0.016   7.609   1.675  1.3253 -1.5015  1.7811
13527TIP3   OH240516   6.666   7.341   3.319 -0.0150 -0.0760 -0.1284
13527TIP3    H140517   6.600   7.331   3.251 -1.2377  2.1344  0.6975
13527TIP3    H240518   6.625   7.306   3.398 -0.9439  2.9724  0.7907
13528TIP3   OH240519   7.698   6.691   1.583  0.8733 -0.0662 -1.1056
13528TIP3    H140520   7.721   6.602   1.609  0.2714 -0.4736 -1.9461
13528TIP3    H240521   7.717   6.744   1.660  1.0684 -0.9522 -0.5398
13529TIP3   OH240522   1.906   1.138   2.711 -0.5586 -0.2935 -0.3151
13529TIP3    H140523   1.861   1.222   2.703  0.7869  0.6375  1.5904
13529TIP3    H240524   1.994   1.154   2.675 -0.3855 -0.9525 -0.1945
13530TIP3   OH240525   0.714   6.483   2.013  0.5050  0.1763 -0.8175
13530TIP3    H140526   0.756   6.564   2.041 -0.6576  0.4362  0.2167
13530TIP3    H240527   0.670   6.451   2.092  0.8241 -1.3761 -1.2635
13531TIP3   OH240528   6.911   5.158   2.005 -0.1745  0.5681  0.3858
13531TIP3    H140529   6.938   5.183   2.094 -1.3831 -0.7393  1.1311
13531TIP3    H240530   6.816   5.159   2.007 -0.2217 -0.4462 -0.6192
13532TIP3   OH240531   7.136   5.804   2.484 -0.0619  0.1080  0.0123
13532TIP3    H140532   7.069   5.841   2.540  0.7548 -0.0899  1.1351
13532TIP3    H240533   7.125   5.710   2.491 -0.7937  0.0876 -1.1999
13533TIP3   OH240534   2.378   7.161   1.753 -0.0725  0.3133  0.1773
13533TIP3    H140535   2.431   7.162   1.832 -0.5424  0.4356  0.4898
13533TIP3    H240536   2.365   7.069   1.733  1.2932  0.2788 -0.5942
13534TIP3   OH240537   2.829   1.163   3.513  0.3284 -0.1775  0.0100
13534TIP3    H140538   2.760   1.115   3.560 -0.1527 -1.0673 -1.5656
13534TIP3    H240539   2.877   1.096   3.465 -0.2134  0.8443 -2.0454
13535TIP3   OH240540   7.400   7.539   3.195  0.0022  0.3152 -0.1492
13535TIP3    H140541   7.476   7.589   3.168 -0.5256  1.1785 -0.0419
13535TIP3    H240542   7.371   7.581   3.276  1.2223 -1.8728  1.4851
13536TIP3   OH240543   8.333   7.468   1.925 -0.2508 -0.5329 -0.3209
13536TIP3    H140544   8.271   7.541   1.920 -1.2678 -1.2642  1.3394
13536TIP3    H240545   8.363   7.468   2.016  0.2101 -1.8095 -0.4623
13537TIP3   OH240546   0.753   0.278   2.314  0.1073 -0.2507  0.1058
13537TIP3    H140547   0.776   0.188   2.336  0.6982 -0.0375  0.4020
13537TIP3    H240548   0.674   0.272   2.261  0.8804 -1.0204 -0.9680
13538TIP3   OH240549   4.617   0.353   2.148 -0.9097 -0.1551 -0.2741
13538TIP3    H140550   4.681   0.331   2.081 -1.9842 -0.6639 -1.1519
13538TIP3    H240551   4.553   0.409   2.102 -0.1826  1.7701  1.0035
13539TIP3   OH240552   3.235   1.327   0.284 -0.0029  0.1812 -0.1993
13539TIP3    H140553   3.324   1.336   0.250  0.6845  1.9036  2.0036
13539TIP3    H240554   3.182   1.386   0.230  0.5594  0.7416 -0.1345
13540TIP3   OH240555   7.759   7.070   1.413 -0.3102  0.3610 -0.1778
13540TIP3    H140556   7.759   7.151   1.361 -0.8843 -0.6300 -1.7471
13540TIP3    H240557   7.846   7.033   1.401 -0.1586  0.5601  0.2748
13541TIP3   OH240558   1.627   1.579   1.276 -0.2567  0.4343  0.0320
13541TIP3    H140559   1.721   1.558   1.273 -0.1663  0.7230  0.7877
13541TIP3    H240560   1.588   1.507   1.325 -0.2768  0.8500  0.6328
13542TIP3   OH240561   7.359   5.432   1.532  0.8270  0.2990 -0.7719
13542TIP3    H140562   7.354   5.390   1.618  1.6415  0.9896 -0.3794
13542TIP3    H240563   7.293   5.387   1.480  0.4401 -0.2436  0.1655
13543TIP3   OH240564   5.662   2.022   6.861  0.1504 -0.3938 -0.4099
13543TIP3    H140565   5.696   2.092   6.917 -2.4394  0.7320 -0.1918
13543TIP3    H240566   5.602   1.973   6.918  0.9403 -2.0076 -0.9431
13544TIP3   OH240567   2.803   0.729   1.719 -0.4280  0.2107 -0.0000
13544TIP3    H140568   2.759   0.655   1.760 -2.3097  1.4168  0.1588
13544TIP3    H240569   2.781   0.721   1.626 -0.5868  0.5394  0.0094
13545TIP3   OH240570   1.313   7.446   3.062 -0.6114  0.8647 -0.8106
13545TIP3    H140571   1.346   7.375   3.007  0.9415  0.8206  0.1653
13545TIP3    H240572   1.285   7.403   3.143 -0.3369  1.2741 -0.4961
13546TIP3   OH240573   2.717   0.176   0.931  0.2389 -0.2825  0.4263
13546TIP3    H140574   2.643   0.199   0.986  0.5126  0.9466  0.2971
13546TIP3    H240575   2.787   0.237   0.956  0.5243 -0.0365 -0.9131
13547TIP3   OH240576   0.872   5.088   1.105 -0.4008  0.8098 -0.2632
13547TIP3    H140577   0.882   5.068   1.198  1.4627 -0.4182 -0.7056
13547TIP3    H240578   0.795   5.039   1.078  0.3453 -0.6301  0.1518
13548TIP3   OH240579   8.097   6.978   0.487  0.3919  0.2899 -0.0463
13548TIP3    H140580   8.190   6.997   0.489  0.3406  0.4659  0.7001
13548TIP3    H240581   8.064   7.006   0.572 -0.3542  0.2826 -0.3203
13549TIP3   OH240582   8.462   7.232   0.908 -0.0664  0.0542 -0.6803
13549TIP3    H140583   8.448   7.314   0.955  0.7571 -0.7402  1.0145
13549TIP3    H240584   8.525   7.253   0.840  1.3545  0.4987  0.7575
13550TIP3   OH240585   8.044   6.986   3.236 -0.2429 -0.6211  0.2207
13550TIP3    H140586   8.098   7.057   3.201  0.5817 -1.1144  0.4751
13550TIP3    H240587   7.956   7.003   3.201  0.6790 -1.4939 -2.6862
13551TIP3   OH240588   7.251   6.830   0.926  0.6529 -0.7131 -0.1813
13551TIP3    H140589   7.209   6.907   0.965  0.8677 -1.0107  0.6376
13551TIP3    H240590   7.203   6.755   0.961  1.3601 -1.0189  0.1517
13552TIP3   OH240591   5.248   3.404   5.782 -1.0026  0.3195  0.1068
13552TIP3    H140592   5.256   3.495   5.808 -0.2612  0.5547 -0.9448
13552TIP3    H240593   5.209   3.406   5.695 -1.5863 -0.3995  0.3346
13553TIP3   OH240594   1.764   7.686   1.681  0.2631  0.3581 -0.6438
13553TIP3    H140595   1.857   7.662   1.690  0.2069  0.0787 -0.7995
13553TIP3    H240596   1.722   7.606   1.648 -0.2805 -0.0011  0.8418
13554TIP3   OH240597   3.526   4.874   4.681  0.1194  0.6394 -0.2535
13554TIP3    H140598   3.542   4.805   4.746 -0.7331  0.7178  0.0480
13554TIP3    H240599   3.432   4.892   4.688 -0.7025 -1.7233 -3.8446
13555TIP3   OH240600   8.058   7.457   2.477  0.2117  0.0737  0.4585
13555TIP3    H140601   7.981   7.459   2.534 -0.1133 -1.4932  0.1131
13555TIP3    H240602   8.085   7.365   2.477  0.9130  0.2606 -0.9631
13556TIP3   OH240603   0.860   4.043   2.690 -0.6168 -0.1120 -0.6516
13556TIP3    H140604   0.847   4.115   2.752  1.5185 -1.3815  1.3369
13556TIP3    H240605   0.778   3.995   2.691 -0.7781  0.1635  0.8443
13557TIP3   OH240606   7.902   7.549   1.400  0.3246  0.1951  0.5183
13557TIP3    H140607   7.994   7.546   1.429  0.7595 -1.4382 -0.9455
13557TIP3    H240608   7.852   7.521   1.477  1.1067  0.4906  1.1423
13558TIP3   OH240609   7.936   6.234   2.254 -0.3688 -0.8908  0.3301
13558TIP3    H140610   7.942   6.144   2.221 -0.7880 -1.0368  0.6444
13558TIP3    H240611   7.978   6.287   2.186  0.4310 -1.3865  0.4336
13559TIP3   OH240612   8.050   7.796   2.630  0.1402  0.8191 -0.2888
13559TIP3    H140613   8.000   7.794   2.711  0.5617 -0.3236 -0.0600
13559TIP3    H240614   8.141   7.801   2.657  0.1899  2.9656 -0.7083
13560TIP3   OH240615   7.897   7.331   2.815  0.0510 -0.4488 -0.1787
13560TIP3    H140616   7.882   7.294   2.728 -1.1221 -1.8999  0.6271
13560TIP3    H240617   7.823   7.390   2.829  0.6013  0.3174 -0.4241
13561TIP3   OH240618   0.629   6.510   0.664  0.3575  0.1075  0.0343
13561TIP3    H140619   0.572   6.577   0.625 -0.2067  0.2878  1.1271
13561TIP3    H240620   0.579   6.478   0.739  1.3840 -0.2779  0.5586
13562TIP3   OH240621   8.283   5.387   3.681  0.0027 -0.0825  0.4205
13562TIP3    H140622   8.353   5.414   3.622  1.4565 -0.5434  1.8837
13562TIP3    H240623   8.296   5.441   3.759 -1.8314  0.4634  0.3666
13563TIP3   OH240624   0.695   6.549   1.362 -0.4489  0.5039 -0.3317
13563TIP3    H140625   0.778   6.590   1.340  0.1347 -1.1997 -1.3991
13563TIP3    H240626   0.715   6.493   1.437 -0.7621  0.5333 -0.2239
13564TIP3   OH240627   1.589   1.578   2.786 -0.0557  0.1729 -0.1012
13564TIP3    H140628   1.623   1.631   2.858  1.4143 -0.5645 -0.2313
13564TIP3    H240629   1.494   1.579   2.798  0.2588 -1.1316  2.6808
13565TIP3   OH240630   7.958   4.907   1.130  0.3601 -0.0592  0.8924
13565TIP3    H140631   7.926   4.986   1.174 -0.6340  0.0059  0.0566
13565TIP3    H240632   8.038   4.935   1.086 -0.4890  0.7253 -0.1755
13566TIP3   OH240633   0.547   7.103   1.230 -0.1989 -0.0129  0.1302
13566TIP3    H140634   0.486   7.127   1.300 -0.4410 -1.8379  0.5840
13566TIP3    H240635   0.577   7.186   1.194 -2.5800  0.9245  0.2227
13567TIP3   OH240636   2.088   0.025   1.237  0.0621  0.3666 -0.0277
13567TIP3    H140637   2.081  -0.064   1.274  1.8194  0.0017 -0.5158
13567TIP3    H240638   2.095   0.082   1.314 -0.3844  0.0214  0.2742
13568TIP3   OH240639   6.655   5.898   6.810 -0.0041  0.0080 -0.6154
13568TIP3    H140640   6.637   5.967   6.746 -0.2599  0.3130 -0.2156
13568TIP3    H240641   6.644   5.941   6.895  0.2263 -0.4258 -0.3680
13569TIP3   OH240642   0.534   7.375   1.195  0.2931 -0.6824  0.4192
13569TIP3    H140643   0.456   7.406   1.148 -0.5270  1.0148  2.7828
13569TIP3    H240644   0.607   7.410   1.145 -0.4918 -1.1515 -1.0750
13570TIP3   OH240645   1.109   7.581   2.299  0.3097  0.6191  0.4016
13570TIP3    H140646   1.092   7.562   2.391 -3.7070 -3.8126 -1.0823
13570TIP3    H240647   1.193   7.539   2.282 -0.8784 -2.2163  1.1487
13571TIP3   OH240648   8.311   7.026   0.816 -0.4927 -0.3628 -0.0165
13571TIP3    H140649   8.376   7.074   0.867  0.0385 -1.6424  0.5223
13571TIP3    H240650   8.234   7.083   0.817 -0.3588 -0.1805  1.8763
13572TIP3   OH240651   5.266   0.547   6.437  0.1260 -0.2335 -0.3021
13572TIP3    H140652   5.264   0.637   6.403 -0.1819  0.0402  0.4331
13572TIP3    H240653   5.220   0.552   6.521 -1.0747 -1.3350 -0.8728
13573TIP3   OH240654   6.407   1.600   5.284 -0.1902  0.0744  0.4459
13573TIP3    H140655   6.395   1.509   5.311  1.7379  0.3267  2.2512
13573TIP3    H240656   6.421   1.648   5.366  0.5334  1.7335 -0.6243
13574TIP3   OH240657   3.195   1.999   2.106 -0.5726 -0.4206 -0.1070
13574TIP3    H140658   3.100   1.996   2.107 -0.5825  0.0711  1.6221
13574TIP3    H240659   3.222   1.928   2.164  0.0407  1.0940  1.5185
13575TIP3   OH240660   0.634   6.261   0.347  0.1387 -0.3395  0.3442
13575TIP3    H140661   0.722   6.292   0.367 -0.3737  0.5231  1.3504
13575TIP3    H240662   0.579   6.339   0.354 -0.8338 -1.0323  0.6041
13576TIP3   OH240663   4.588   2.381   6.781  0.5511 -0.3363  0.2350
13576TIP3    H140664   4.600   2.349   6.692  1.2308 -0.2383  0.2843
13576TIP3    H240665   4.496   2.406   6.786 -0.0387 -2.3869  0.2273
13577TIP3   OH240666   2.713   0.511   1.832 -0.1299  0.3250 -0.6194
13577TIP3    H140667   2.799   0.482   1.863 -0.4079  1.4230  1.2720
13577TIP3    H240668   2.658   0.433   1.840 -0.5698  0.9408  3.2476
13578TIP3   OH240669   4.576   1.988   2.497 -0.1236  0.4653 -0.0434
13578TIP3    H140670   4.562   1.924   2.568 -3.6329  1.2190  0.0588
13578TIP3    H240671   4.651   2.040   2.526 -0.7977  0.0386  2.6221
13579TIP3   OH240672   2.196   7.355   2.653  0.2012  0.2328  0.1767
13579TIP3    H140673   2.226   7.305   2.577 -2.0460  0.4379 -0.9093
13579TIP3    H240674   2.177   7.289   2.720 -2.4934 -0.4342 -1.1605
13580TIP3   OH240675   7.123   7.241   0.801 -0.2499 -0.7366  0.3646
13580TIP3    H140676   7.133   7.217   0.709  1.0049  1.2538 -0.0428
13580TIP3    H240677   7.050   7.303   0.801 -3.4235 -4.2292  1.4007
13581TIP3   OH240678   3.964   2.722   6.783  0.1707 -0.1992  0.3170
13581TIP3    H140679   3.943   2.813   6.761 -0.5294 -0.2352  0.7969
13581TIP3    H240680   4.032   2.728   6.849 -0.9737  0.0235  1.4930
13582TIP3   OH240681   3.757   3.505   6.769 -0.3952 -0.0339  0.1845
13582TIP3    H140682   3.673   3.491   6.813  0.1647 -1.7202  0.7792
13582TIP3    H240683   3.739   3.573   6.704 -1.8758  0.6158  1.2357
13583TIP3   OH240684   1.450   0.304   2.444 -0.0229 -0.0419 -0.6788
13583TIP3    H140685   1.460   0.358   2.522 -1.8204 -1.1608  0.3448
13583TIP3    H240686   1.452   0.366   2.371 -0.3725  1.2244  0.3745
13584TIP3   OH240687   5.317   5.277   6.907 -0.3255 -0.0661  0.1352
13584TIP3    H140688   5.293   5.342   6.972 -1.2576  0.4136 -0.6758
13584TIP3    H240689   5.246   5.213   6.908 -0.1899 -0.2255 -0.1982
13585TIP3   OH240690   1.167   7.809   2.554 -0.6340  0.5378 -0.2393
13585TIP3    H140691   1.093   7.750   2.537 -0.9363  0.5976  0.7975
13585TIP3    H240692   1.185   7.798   2.648  0.5053  0.7208 -0.4255
13586TIP3   OH240693   7.745   3.050   5.937  0.6467  0.6073  0.5625
13586TIP3    H140694   7.666   3.103   5.927 -0.9197 -1.8600 -0.5925
13586TIP3    H240695   7.793   3.063   5.855 -0.9359 -1.6119 -0.7637
13587TIP3   OH240696   1.614   2.278   3.057 -0.5485 -0.1572  0.4492
13587TIP3    H140697   1.547   2.298   3.122 -2.1043 -1.2575 -0.7562
13587TIP3    H240698   1.660   2.202   3.092 -1.9082 -1.2446 -0.0834
13588TIP3   OH240699   8.319   6.121   1.555  0.2791 -0.1852  0.1625
13588TIP3    H140700   8.279   6.088   1.635 -0.1581  0.0651  0.0494
13588TIP3    H240701   8.329   6.043   1.500 -1.3952 -0.0507 -0.3811
13589TIP3   OH240702   3.704   0.713   1.405 -0.2810 -0.6791 -0.0532
13589TIP3    H140703   3.715   0.692   1.312 -1.7473  0.5698 -0.5368
13589TIP3    H240704   3.722   0.806   1.411  1.0435 -1.0000  1.1573
13590TIP3   OH240705   5.018   1.394   5.650  0.2008 -0.2799  0.2266
13590TIP3    H140706   4.947   1.434   5.699 -1.5689 -0.8328 -1.8154
13590TIP3    H240707   5.074   1.468   5.625 -1.3546  0.5870 -0.8237
13591TIP3   OH240708   0.091   4.867   0.928  0.0851  0.2677  0.4696
13591TIP3    H140709   0.092   4.829   1.016 -0.3599  0.7450  0.6806
13591TIP3    H240710   0.071   4.793   0.870  1.2755 -0.2257  0.6777
13592TIP3   OH240711   3.247   7.895   1.713 -0.2632 -0.1793  0.4723
13592TIP3    H140712   3.158   7.861   1.710 -0.5565  0.4912  1.4508
13592TIP3    H240713   3.303   7.819   1.701 -0.9850 -0.3190 -2.6702
13593TIP3   OH240714   8.150   7.244   2.652  0.0856 -0.2007  0.3676
13593TIP3    H140715   8.085   7.274   2.716  0.5970 -0.9082  1.2267
13593TIP3    H240716   8.113   7.163   2.617  0.0773 -0.1195  0.1869
13594TIP3   OH240717   1.214   0.058   2.101 -0.1719 -0.0016  0.2532
13594TIP3    H140718   1.265  -0.021   2.120  0.0759 -0.4064 -1.9429
13594TIP3    H240719   1.268   0.106   2.039 -1.6881  0.4154 -0.7659
13595TIP3   OH240720   5.852   0.262   2.615  0.4249 -0.4766 -0.1507
13595TIP3    H140721   5.770   0.251   2.663  2.2230  1.8150  3.6756
13595TIP3    H240722   5.842   0.345   2.569  0.0447 -0.9174 -0.8630
13596TIP3   OH240723   3.545   5.358   1.189 -0.1366  0.2859  0.4971
13596TIP3    H140724   3.462   5.406   1.180  0.1857  0.7592  0.0615
13596TIP3    H240725   3.609   5.413   1.145  0.2667 -0.4617  0.1611
13597TIP3   OH240726   3.815   0.197   2.007  0.1629  0.0762  0.1017
13597TIP3    H140727   3.826   0.107   2.036 -0.9730 -0.1172 -0.0553
13597TIP3    H240728   3.882   0.246   2.054  0.5345 -0.7852  0.4742
13598TIP3   OH240729   0.861   5.887   0.916  0.3968 -0.2080  0.0070
13598TIP3    H140730   0.938   5.855   0.964 -0.5907 -1.0979  1.0222
13598TIP3    H240731   0.810   5.808   0.898  0.2388  0.2555 -1.6055
13599TIP3   OH240732   0.225   6.922   2.577 -0.1521  0.1561  0.0367
13599TIP3    H140733   0.213   6.828   2.585 -2.1398  0.2667 -1.3091
13599TIP3    H240734   0.212   6.955   2.666  0.7300 -0.8477  0.5447
13600TIP3   OH240735   6.514   2.437   6.433  0.5968 -0.4717 -0.6153
13600TIP3    H140736   6.420   2.423   6.448  0.4935  0.5360 -0.2499
13600TIP3    H240737   6.537   2.377   6.362  0.1592 -2.3554  0.7944
13601TIP3   OH240738   0.303   6.954   0.518 -0.5818  0.1065  0.9263
13601TIP3    H140739   0.254   6.949   0.601 -2.7030  1.8188 -0.1526
13601TIP3    H240740   0.244   6.915   0.453  0.6637 -0.3439  0.0570
13602TIP3   OH240741   1.334   0.151  -0.009  1.0846 -0.1061  0.3649
13602TIP3    H140742   1.280   0.229  -0.022  0.3979 -0.5602  0.4941
13602TIP3    H240743   1.307   0.116   0.076  0.3372 -1.3225 -0.3646
13603TIP3   OH240744   6.785   7.865   0.004 -0.1748  0.0778 -0.0026
13603TIP3    H140745   6.725   7.851   0.077  0.8495 -2.7410  0.3885
13603TIP3    H240746   6.759   7.949  -0.033 -0.1307  2.0458  4.1401
13604TIP3   OH240747   8.160   7.911   4.119 -0.3362  0.3965  0.3178
13604TIP3    H140748   8.132   7.846   4.055 -1.7237  0.8520  0.4327
13604TIP3    H240749   8.118   7.992   4.090 -0.7454  0.6675  1.6356
13605TIP3   OH240750   1.906   3.272   0.802  0.2796 -0.7047  0.1449
13605TIP3    H140751   1.841   3.340   0.787  2.0084  1.4936  2.3600
13605TIP3    H240752   1.914   3.227   0.718  0.1026  2.7001 -1.7531
13606TIP3   OH240753   7.827   6.582   0.778 -0.2034 -0.0727 -0.2904
13606TIP3    H140754   7.813   6.561   0.870 -0.3508 -4.0348 -1.1527
13606TIP3    H240755   7.860   6.672   0.779 -1.5564  0.4551  3.4980
13607TIP3   OH240756   3.359   1.820   2.855 -0.1005 -0.0679 -0.0502
13607TIP3    H140757   3.437   1.770   2.879  1.8786  2.8128 -0.1732
13607TIP3    H240758   3.341   1.874   2.932 -0.6621  0.8299 -0.7928
13608TIP3   OH240759   2.214   0.078   1.679  0.4167 -0.0844 -0.1888
13608TIP3    H140760   2.197  -0.008   1.717  0.1671 -0.6026 -1.4337
13608TIP3    H240761   2.306   0.076   1.654  0.4057 -0.0018 -0.2363
13609TIP3   OH240762   3.562   0.843   1.893  0.0784 -0.0689 -0.5053
13609TIP3    H140763   3.487   0.789   1.866 -1.3215  0.4254  2.2652
13609TIP3    H240764   3.563   0.915   1.829 -2.4365  0.4606 -0.0017
13610TIP3   OH240765   1.826   0.290   1.976  0.0487 -0.1226 -0.3232
13610TIP3    H140766   1.847   0.242   1.895  1.0065  0.5354 -0.4763
13610TIP3    H240767   1.911   0.324   2.006 -0.3436 -0.1093  0.8041
13611TIP3   OH240768   8.323   5.286   6.965  0.6805 -0.4393  0.2459
13611TIP3    H140769   8.334   5.381   6.964 -0.1574 -0.3101  1.4311
13611TIP3    H240770   8.292   5.264   6.877  0.4442  0.4461  0.1034
13612TIP3   OH240771   5.858   4.606   5.503 -0.0725 -0.5405 -0.4240
13612TIP3    H140772   5.846   4.556   5.422  0.3642 -1.3846  0.0208
13612TIP3    H240773   5.940   4.654   5.489 -0.0871 -0.5502 -0.5489
13613TIP3   OH240774   3.214   0.372   4.438  0.5058 -0.2974 -0.5051
13613TIP3    H140775   3.263   0.314   4.495 -0.3262 -0.2268  0.2973
13613TIP3    H240776   3.171   0.314   4.375 -1.2213 -0.6749  0.9768
13614TIP3   OH240777   7.544   6.195   1.662  0.0792  0.2482 -0.3827
13614TIP3    H140778   7.536   6.275   1.713 -0.6711 -0.8742  1.3240
13614TIP3    H240779   7.458   6.186   1.619  0.3499  0.6281 -1.0172
13615TIP3   OH240780   2.043   0.027   0.529  0.9218  0.5558  0.1486
13615TIP3    H140781   2.016  -0.009   0.444  1.4397  1.1993 -0.2938
13615TIP3    H240782   1.961   0.036   0.577  0.8902 -2.3286  0.7289
13616TIP3   OH240783   0.488   7.132   0.832  0.1503  0.1079  0.0027
13616TIP3    H140784   0.504   7.116   0.739  1.8633  0.0126  0.2983
13616TIP3    H240785   0.405   7.179   0.835 -0.6551 -1.1910 -1.4707
13617TIP3   OH240786   2.232   6.947   1.670 -0.0932  0.5287  0.0204
13617TIP3    H140787   2.262   6.856   1.667  0.1268  0.6000  0.0838
13617TIP3    H240788   2.136   6.941   1.661 -0.2430  0.1947  1.6585
13618TIP3   OH240789   7.271   7.033   4.660 -0.4916  0.3315  0.3467
13618TIP3    H140790   7.316   6.967   4.712  1.2740  1.9526  0.9592
13618TIP3    H240791   7.232   6.985   4.587  1.6923 -1.2314  0.1800
13619TIP3   OH240792   7.737   5.942   3.385 -0.5045  0.6223 -0.7679
13619TIP3    H140793   7.799   5.870   3.393  0.9191  1.6940 -1.9967
13619TIP3    H240794   7.705   5.937   3.295  0.4136  2.1747 -1.1968
13620TIP3   OH240795   3.020   2.272   2.391  0.1380 -0.2800 -0.0391
13620TIP3    H140796   3.064   2.339   2.338  1.1721 -0.9881 -0.0735
13620TIP3    H240797   2.927   2.286   2.373  0.2999  1.5631  0.4316
13621TIP3   OH240798   0.295   6.261   1.732  0.0690 -0.5410 -0.2786
13621TIP3    H140799   0.281   6.214   1.814 -0.4196  2.0552  1.2048
13621TIP3    H240800   0.213   6.307   1.716  2.0080  3.6515  0.9701
13622TIP3   OH240801   7.916   5.595   2.006 -0.3797  0.1518  0.6455
13622TIP3    H140802   7.863   5.528   2.048 -0.4210 -1.5606 -2.0523
13622TIP3    H240803   8.007   5.569   2.025 -0.4131  0.3625  1.1130
13623TIP3   OH240804   2.891   1.940   3.105 -0.2276  0.1428  0.4684
13623TIP3    H140805   2.852   2.022   3.076 -1.4928 -0.6653 -0.1409
13623TIP3    H240806   2.960   1.967   3.166 -0.0318  1.6847 -0.4088
13624TIP3   OH240807   4.357   2.811   5.668  0.0109  0.2796  0.4925
13624TIP3    H140808   4.272   2.774   5.693  0.0485  1.6082  2.7860
13624TIP3    H240809   4.421   2.756   5.714  0.2503  0.8768  0.8781
13625TIP3   OH240810   1.183   6.451   2.914 -0.3345  0.2430  0.0864
13625TIP3    H140811   1.143   6.502   2.843  0.0012 -0.8277 -0.8822
13625TIP3    H240812   1.277   6.461   2.901 -0.2692  0.5637  0.7746
13626TIP3   OH240813   5.363   1.912   6.968  0.0151  0.3251 -0.1692
13626TIP3    H140814   5.410   1.828   6.967  1.6590  1.2285 -0.9311
13626TIP3    H240815   5.356   1.937   6.876 -2.2695  0.0661 -0.0826
13627TIP3   OH240816   0.282   5.868   2.486 -0.4829  0.1412  0.3554
13627TIP3    H140817   0.280   5.788   2.539  0.5342 -0.1560 -0.0333
13627TIP3    H240818   0.271   5.838   2.396 -1.3721  0.5665  0.3195
13628TIP3   OH240819   1.855   3.258   6.445 -0.1327 -0.1663 -0.1710
13628TIP3    H140820   1.866   3.200   6.521 -0.2184  2.1186  1.6508
13628TIP3    H240821   1.888   3.207   6.371 -0.3434 -2.5740  1.3390
13629TIP3   OH240822   3.287   1.366   0.953 -0.4877  0.0204 -0.1940
13629TIP3    H140823   3.261   1.294   0.895 -0.9069 -0.7282  0.9070
13629TIP3    H240824   3.223   1.365   1.023  1.9181 -1.2448  2.0822
13630TIP3   OH240825   4.796   2.722   1.504  0.3019  0.2787  0.0387
13630TIP3    H140826   4.707   2.703   1.534  0.5836 -0.6900  0.2914
13630TIP3    H240827   4.806   2.669   1.424  0.8685 -0.1237  0.3701
13631TIP3   OH240828   4.575   0.494   0.841  0.1702 -0.9209  0.1689
13631TIP3    H140829   4.514   0.432   0.883 -0.9573 -1.0880 -1.6482
13631TIP3    H240830   4.520   0.569   0.817  0.8541 -0.6793 -0.6633
13632TIP3   OH240831   4.480   4.781   6.525  0.1842  0.2934  0.0070
13632TIP3    H140832   4.461   4.743   6.611 -1.2342  1.9156  0.4151
13632TIP3    H240833   4.474   4.707   6.465 -0.4101 -0.5546  1.0830
13633TIP3   OH240834   5.307   0.515   2.890 -0.4249 -0.0447  0.4407
13633TIP3    H140835   5.389   0.509   2.939 -0.5954 -0.3960  0.6864
13633TIP3    H240836   5.332   0.555   2.807  0.3799 -2.0063 -0.3054
13634TIP3   OH240837   4.571   7.489   1.593 -0.2507  0.2057  0.1191
13634TIP3    H140838   4.508   7.428   1.556  0.9118 -0.2402 -1.1973
13634TIP3    H240839   4.621   7.437   1.656 -0.4687  0.2626  0.3362
13635TIP3   OH240840   7.955   5.306   0.988 -0.0081 -0.2448 -0.0222
13635TIP3    H140841   7.985   5.396   0.999  1.4226 -0.6000 -0.8838
13635TIP3    H240842   8.000   5.274   0.910 -1.3008 -1.3834 -0.3320
13636TIP3   OH240843   0.194   6.123   2.570  0.0729  0.2078 -0.3399
13636TIP3    H140844   0.200   6.140   2.664  1.2354 -0.6172 -0.2564
13636TIP3    H240845   0.230   6.035   2.559  0.2420  0.4177 -1.5995
13637TIP3   OH240846   4.006   0.393   3.151  0.2490 -0.3783 -0.1414
13637TIP3    H140847   3.984   0.472   3.201  3.2560  1.1486 -1.1250
13637TIP3    H240848   4.067   0.346   3.207 -2.1906 -2.5068  0.8123
13638TIP3   OH240849   0.013   6.365   1.079  0.1646 -0.0720 -0.1228
13638TIP3    H140850   0.078   6.400   1.018  1.8730 -0.5137  1.4012
13638TIP3    H240851  -0.012   6.280   1.041  0.1599  0.2926 -0.9406
13639TIP3   OH240852   1.196   7.581   3.604  0.7817  0.0406 -0.6541
13639TIP3    H140853   1.173   7.492   3.628  2.6868 -0.0461  0.9773
13639TIP3    H240854   1.114   7.630   3.610  0.2005 -1.0882  0.8738
13640TIP3   OH240855   5.173   0.079   0.528  0.2793 -0.1592  0.1203
13640TIP3    H140856   5.198   0.001   0.578  1.4770 -0.7939 -1.4527
13640TIP3    H240857   5.216   0.151   0.574  1.4812 -0.7525 -0.0516
13641TIP3   OH240858   4.492   2.374   6.256 -0.4728 -0.0065 -0.5909
13641TIP3    H140859   4.493   2.314   6.182  0.2455  0.2043 -0.7588
13641TIP3    H240860   4.546   2.331   6.323 -0.9494 -0.1028 -0.2706
13642TIP3   OH240861   5.768   0.522   1.787 -0.1238  0.4987  0.0355
13642TIP3    H140862   5.721   0.594   1.746  0.5360  0.2152 -1.2490
13642TIP3    H240863   5.703   0.480   1.843 -0.9674  1.0930 -0.4809
13643TIP3   OH240864   0.316   3.516   6.943  0.6006 -0.1560 -0.1101
13643TIP3    H140865   0.400   3.556   6.921 -0.0807  0.8081 -1.0227
13643TIP3    H240866   0.252   3.586   6.931 -0.1863 -0.4759  1.9461
13644TIP3   OH240867   1.171   6.070   1.015  0.5085  0.1025 -0.6068
13644TIP3    H140868   1.214   6.151   0.990  0.6928  0.0614 -0.4249
13644TIP3    H240869   1.230   6.030   1.079 -0.1670  0.4263  0.2349
13645TIP3   OH240870   0.990   7.124   0.577 -0.9185  0.2842 -0.7290
13645TIP3    H140871   1.074   7.162   0.550  0.1794 -1.0472  0.6951
13645TIP3    H240872   0.957   7.081   0.497  0.6023 -0.6431 -0.8949
13646TIP3   OH240873   1.311   7.219   2.073  0.1636 -0.2029  0.2275
13646TIP3    H140874   1.395   7.186   2.040  0.5083  0.8441  0.0438
13646TIP3    H240875   1.247   7.193   2.007  0.5853  0.3585 -0.4048
13647TIP3   OH240876   3.098   1.453   0.080 -0.1071  0.1868  0.3670
13647TIP3    H140877   3.011   1.482   0.052 -1.5557 -2.7834  1.4660
13647TIP3    H240878   3.127   1.394   0.011  1.0813  1.2474 -0.0358
13648TIP3   OH240879   8.510   5.244   1.034  0.4167  0.7303 -0.3243
13648TIP3    H140880   8.441   5.212   1.091  1.6545  0.0312  0.8171
13648TIP3    H240881   8.535   5.328   1.072  1.4006  0.1570  0.3277
13649TIP3   OH240882   1.539   7.504   0.772  0.1706  0.0587 -0.0397
13649TIP3    H140883   1.541   7.565   0.698 -2.4270  2.0732  1.4298
13649TIP3    H240884   1.561   7.558   0.848 -0.5222 -1.2078  1.0885
13650TIP3   OH240885   3.946   0.897   0.668  0.0648  0.1116 -0.0212
13650TIP3    H140886   4.009   0.840   0.711  0.3695  1.4547  1.3475
13650TIP3    H240887   3.996   0.941   0.598  0.0785 -0.5103 -0.4048
13651TIP3   OH240888   2.731   7.007   1.881 -1.2468 -0.1753  0.5605
13651TIP3    H140889   2.750   7.003   1.975  1.2908  2.1738  0.2070
13651TIP3    H240890   2.807   6.966   1.839 -0.8455  1.6759 -0.5765
13652TIP3   OH240891   7.539   0.615   6.422 -0.5077  0.0192 -0.2111
13652TIP3    H140892   7.462   0.607   6.366  1.8272 -1.1344 -3.4354
13652TIP3    H240893   7.576   0.701   6.399 -0.8633  0.6302  1.4197
13653TIP3   OH240894   7.110   6.504   0.544 -0.2983  0.0204 -0.5345
13653TIP3    H140895   7.024   6.506   0.586 -0.5619  0.0890 -1.0696
13653TIP3    H240896   7.163   6.448   0.600 -0.1867  1.3744  0.7530
13654TIP3   OH240897   6.035   6.612   1.681  0.2282 -0.3789 -0.8282
13654TIP3    H140898   5.976   6.582   1.749  0.0916 -0.5504 -1.0240
13654TIP3    H240899   6.026   6.708   1.682  1.5255 -0.2458  0.5811
13655TIP3   OH240900   1.341   5.779   0.632  0.5967  1.0066  0.6848
13655TIP3    H140901   1.296   5.705   0.593 -0.1449  2.5664 -1.5558
13655TIP3    H240902   1.308   5.784   0.721  1.3308 -1.8477  1.1487
13656TIP3   OH240903   4.709   3.956   6.329 -0.0404  1.3980 -0.0676
13656TIP3    H140904   4.761   4.013   6.274  1.0709 -0.0274 -0.5470
13656TIP3    H240905   4.681   3.885   6.271  0.3712  0.3686  0.9583
13657TIP3   OH240906   1.069   7.574   1.023  0.2624 -0.0598 -0.1589
13657TIP3    H140907   1.071   7.663   1.058 -1.8579  0.1284 -0.4191
13657TIP3    H240908   1.153   7.536   1.046  1.2080  2.0450 -0.1038
13658TIP3   OH240909   7.927   7.416   0.863  0.4520 -0.3281  0.0566
13658TIP3    H140910   7.969   7.493   0.826 -0.2356 -0.2264 -0.5246
13658TIP3    H240911   7.948   7.419   0.956  2.8562 -0.9926 -0.4193
13659TIP3   OH240912   0.221   5.401   0.415  0.0537 -0.1371 -0.2959
13659TIP3    H140913   0.177   5.334   0.468  1.6248 -1.2431 -0.3605
13659TIP3    H240914   0.280   5.445   0.476 -0.6007  0.8668 -0.3734
13660TIP3   OH240915   5.378   0.088   1.750 -0.8664 -0.0175 -0.1478
13660TIP3    H140916   5.369   0.129   1.836 -1.2942 -2.5377  1.0688
13660TIP3    H240917   5.289   0.086   1.715 -1.1054 -1.2604  0.4823
13661TIP3   OH240918   4.447   0.972   1.820  0.3252  0.7724  0.3534
13661TIP3    H140919   4.489   1.021   1.891  1.3326 -1.6209  1.4846
13661TIP3    H240920   4.520   0.941   1.766 -0.1844 -0.5414  0.3945
13662TIP3   OH240921   4.422   0.177   0.898 -0.2294  0.6897 -0.2183
13662TIP3    H140922   4.390   0.216   0.816  0.5738  1.5053 -0.1583
13662TIP3    H240923   4.400   0.241   0.965  0.7092  0.8588 -0.0545
13663TIP3   OH240924   2.825   1.137   1.861  0.1028  0.2884 -0.1373
13663TIP3    H140925   2.839   1.050   1.900  0.8000  0.6101  0.3443
13663TIP3    H240926   2.858   1.198   1.926  0.2336  0.8899 -0.7597
13664TIP3   OH240927   1.866   3.994   6.250  0.3234 -0.1803 -0.1645
13664TIP3    H140928   1.819   4.075   6.229  0.5101 -0.9618 -3.8572
13664TIP3    H240929   1.958   4.015   6.233  0.3550 -1.2069 -1.2759
13665TIP3   OH240930   5.176   3.635   6.279 -0.5850 -0.2137 -0.3105
13665TIP3    H140931   5.145   3.609   6.365  0.2420  2.1437  0.7442
13665TIP3    H240932   5.099   3.625   6.222 -1.5306 -0.4279  0.9715
13666TIP3   OH240933   3.436   0.104   0.770 -0.5129  0.6299  0.0008
13666TIP3    H140934   3.340   0.110   0.776 -0.4965  0.6289  0.2847
13666TIP3    H240935   3.467   0.142   0.852 -0.3327 -0.9562  0.6906
13667TIP3   OH240936   0.014   6.645   1.567 -0.0896  0.4799 -0.2732
13667TIP3    H140937   0.108   6.655   1.578 -0.1043 -0.1682  0.4500
13667TIP3    H240938   0.002   6.551   1.550 -0.8568  0.0874  2.2739
13668TIP3   OH240939   7.177   4.818   6.336  0.1616  0.3397 -0.4695
13668TIP3    H140940   7.102   4.805   6.278  0.1184 -0.9768 -0.1333
13668TIP3    H240941   7.160   4.901   6.379 -0.7648  0.3807 -0.9047
13669TIP3   OH240942   3.812   0.362   1.345 -0.1298  0.4523 -0.6561
13669TIP3    H140943   3.799   0.297   1.276 -0.6193  1.7580 -1.8385
13669TIP3    H240944   3.906   0.376   1.347 -0.0622  0.0203 -0.6937
13670TIP3   OH240945   6.610   6.522   5.222  0.1526  0.4425  0.4340
13670TIP3    H140946   6.660   6.455   5.268 -0.1205  0.6837  1.0861
13670TIP3    H240947   6.539   6.474   5.180  0.4335  0.2146  0.2186
13671TIP3   OH240948   2.698   7.226   0.970 -0.6023 -0.1102 -0.3278
13671TIP3    H140949   2.652   7.309   0.968  1.1265  0.8377 -1.7668
13671TIP3    H240950   2.674   7.182   0.889  1.6849  0.7971 -1.5502
13672TIP3   OH240951   3.872   7.888   1.804  0.0275  0.0627  0.4520
13672TIP3    H140952   3.961   7.923   1.810  0.1440  0.0708 -1.0820
13672TIP3    H240953   3.859   7.870   1.710 -0.7016 -2.2210  0.9510
13673TIP3   OH240954   3.951   0.328   0.376  0.0152  0.6513  0.0159
13673TIP3    H140955   4.022   0.269   0.351  0.5113  0.2357  2.2636
13673TIP3    H240956   3.995   0.410   0.400 -0.4708  1.1524 -0.7918
13674TIP3   OH240957   3.314   1.237   1.844  0.1173 -0.0796 -0.4133
13674TIP3    H140958   3.263   1.157   1.861 -1.0945  0.7078 -0.2128
13674TIP3    H240959   3.396   1.224   1.892 -0.3129 -0.9507  0.1067
13675TIP3   OH240960   2.468   6.613   3.171 -0.3903  0.1925  0.0127
13675TIP3    H140961   2.504   6.619   3.082  0.6107 -0.4801  0.3610
13675TIP3    H240962   2.539   6.575   3.223 -0.3547  2.1916  1.4651
13676TIP3   OH240963   1.760   6.801   0.054  0.3132  0.5794 -0.4425
13676TIP3    H140964   1.776   6.844   0.138 -1.5832  1.0424 -0.3021
13676TIP3    H240965   1.827   6.733   0.049  0.4405  0.5468  1.4488
13677TIP3   OH240966   2.820   6.734   0.652 -0.1995  0.1460 -0.0682
13677TIP3    H140967   2.851   6.818   0.686 -0.5100  0.1378  0.2339
13677TIP3    H240968   2.887   6.672   0.679 -0.8520 -0.0018  1.2553
13678TIP3   OH240969   8.069   6.841   1.633 -0.7194 -0.2710 -0.4199
13678TIP3    H140970   8.004   6.907   1.606 -0.6730 -0.3142 -0.6350
13678TIP3    H240971   8.153   6.882   1.615 -0.6761  0.0747  0.5370
13679TIP3   OH240972   6.782   2.350   6.738 -0.1680  0.0870 -0.3996
13679TIP3    H140973   6.778   2.397   6.654  0.7699 -0.2805 -0.6619
13679TIP3    H240974   6.700   2.302   6.742  0.0494 -0.3984 -1.4210
13680TIP3   OH240975   6.064   0.626   0.272 -0.5278  0.5094 -0.0168
13680TIP3    H140976   5.992   0.623   0.209  0.5498  0.6444 -1.2841
13680TIP3    H240977   6.120   0.697   0.240 -0.5786  1.3746  1.7755
13681TIP3   OH240978   2.841   5.795   1.973  0.5248 -0.2218  0.1419
13681TIP3    H140979   2.904   5.723   1.965 -0.9945 -1.4514 -1.0824
13681TIP3    H240980   2.873   5.861   1.911  0.9291 -0.5905 -0.0474
13682TIP3   OH240981   1.940   0.556   1.290 -0.5822  0.0730  0.3316
13682TIP3    H140982   1.950   0.650   1.274 -0.0086  0.0530  0.5799
13682TIP3    H240983   2.006   0.535   1.355 -1.2778 -0.3439  0.9135
13683TIP3   OH240984   0.474   3.320   6.817  0.1850 -0.2755 -0.5977
13683TIP3    H140985   0.468   3.297   6.724  0.3038  1.3263 -1.0039
13683TIP3    H240986   0.383   3.340   6.842 -0.0850 -2.1405  0.0273
13684TIP3   OH240987   2.769   6.310   1.618  0.2236  0.0311  0.6235
13684TIP3    H140988   2.698   6.350   1.668  1.7534  2.8533  0.6560
13684TIP3    H240989   2.807   6.245   1.677 -0.3001  0.7678  1.7862
13685TIP3   OH240990   2.460   6.111   0.292  0.3373  0.4609 -0.2991
13685TIP3    H140991   2.485   6.201   0.312  0.1076 -0.1615  3.0046
13685TIP3    H240992   2.370   6.103   0.322 -0.5218 -0.1964 -2.9092
13686TIP3   OH240993   3.045   6.606   1.274  0.0462  0.2910 -0.1011
13686TIP3    H140994   2.983   6.557   1.328 -1.0280  1.5853 -0.1091
13686TIP3    H240995   3.074   6.544   1.207  0.4757 -0.9742  1.2339
13687TIP3   OH240996   0.775   7.299   0.657  0.4070  0.5521 -0.0135
13687TIP3    H140997   0.841   7.236   0.626  1.8370  1.6625  0.6984
13687TIP3    H240998   0.826   7.363   0.707 -1.2626  1.3119  0.7254
13688TIP3   OH240999   0.179   2.720   6.739  0.4140  0.0334 -0.0502
13688TIP3    H141000   0.159   2.632   6.772 -3.8275  0.7865 -0.2494
13688TIP3    H241001   0.181   2.709   6.644 -2.3291  0.4589 -0.2034
13689TIP3   OH241002   5.847   2.412   5.908 -0.1555 -0.6810  0.8377
13689TIP3    H141003   5.849   2.317   5.918 -1.2312 -0.8120 -0.0382
13689TIP3    H241004   5.759   2.431   5.874  0.7581  0.4118 -1.0191
13690TIP3   OH241005   4.114   0.600   1.608 -0.0365 -0.2607  0.4367
13690TIP3    H141006   4.136   0.688   1.577  0.3659 -0.7365 -0.6531
13690TIP3    H241007   4.022   0.606   1.634  0.0280  0.5146  0.4934
13691TIP3   OH241008   4.333   2.294   0.894  0.5443  0.1750  0.2262
13691TIP3    H141009   4.239   2.298   0.910  0.1102 -2.6311 -1.2170
13691TIP3    H241010   4.369   2.261   0.976 -0.1395 -1.7787 -0.2292
13692TIP3   OH241011   0.746   7.761   1.388 -0.1353 -0.4604 -0.3091
13692TIP3    H141012   0.693   7.838   1.369 -0.1670 -0.8182 -1.7552
13692TIP3    H241013   0.791   7.782   1.470 -0.6894  0.7961 -0.3192
13693TIP3   OH241014   2.140   7.645   0.620  0.1350 -0.5519 -1.1826
13693TIP3    H141015   2.095   7.724   0.592 -0.4508 -1.0535 -1.6900
13693TIP3    H241016   2.194   7.620   0.545  1.9486  0.5301 -0.2652
13694TIP3   OH241017   2.241   6.626   0.901 -0.3618 -1.1714  1.0662
13694TIP3    H141018   2.295   6.698   0.932 -0.0017 -1.0019  0.0739
13694TIP3    H241019   2.180   6.609   0.973 -1.3413  1.0026  0.7804
13695TIP3   OH241020   4.236   0.404   2.525 -0.2791  0.4066  0.4774
13695TIP3    H141021   4.326   0.427   2.545 -0.1103 -1.3762  1.8822
13695TIP3    H241022   4.210   0.466   2.456  2.6314 -0.3315 -1.3837
13696TIP3   OH241023   6.936   3.037   6.481  0.7732  0.2977  0.4915
13696TIP3    H141024   6.866   3.036   6.546  0.8054 -0.4099  0.5179
13696TIP3    H241025   6.903   2.983   6.409  0.5319  1.4788 -0.3015
13697TIP3   OH241026   7.430   7.195   1.181 -0.7970  0.2961 -0.2441
13697TIP3    H141027   7.400   7.130   1.245 -2.2000  0.7361 -0.4205
13697TIP3    H241028   7.357   7.258   1.175  0.9924  2.5575  0.8312
13698TIP3   OH241029   1.746   7.703   2.516 -0.2226  0.0945 -0.6855
13698TIP3    H141030   1.797   7.635   2.561  0.8199  0.0522 -1.8940
13698TIP3    H241031   1.783   7.785   2.549 -0.5610  0.0761 -0.2518
13699TIP3   OH241032   0.132   6.842   0.995 -0.4300 -0.1733 -0.1068
13699TIP3    H141033   0.223   6.856   1.019 -0.5753 -1.8050  1.5688
13699TIP3    H241034   0.094   6.798   1.072 -2.3300 -0.5601 -1.2348
13700TIP3   OH241035   6.980   1.831   0.980  0.3396 -0.2238 -0.1153
13700TIP3    H141036   6.924   1.908   0.978 -1.6921 -1.5597  2.2805
13700TIP3    H241037   7.035   1.844   1.058  0.0343 -1.1282  0.2578
13701TIP3   OH241038   6.835   2.481   6.485  0.2403 -0.2917  0.2218
13701TIP3    H141039   6.873   2.406   6.440  0.1186 -2.7206  3.9239
13701TIP3    H241040   6.743   2.482   6.458  0.6628 -0.3290 -1.2419
13702TIP3   OH241041   5.025   2.066   1.445 -0.0879 -0.2188  0.1820
13702TIP3    H141042   4.949   2.100   1.493 -2.0088 -3.6195 -0.2570
13702TIP3    H241043   5.002   2.079   1.353  0.8179  0.6699  0.0814
13703TIP3   OH241044   8.018   4.249   5.849  0.2399 -0.3751  0.3335
13703TIP3    H141045   8.092   4.297   5.813 -0.1666  0.8315  1.0754
13703TIP3    H241046   8.057   4.185   5.908  0.5775  2.5455  3.4111
13704TIP3   OH241047   4.295   1.520   0.694 -0.1286 -0.5111 -0.0183
13704TIP3    H141048   4.269   1.518   0.602  1.1286 -1.2624 -0.3865
13704TIP3    H241049   4.216   1.498   0.742 -1.6485  3.1355 -0.6802
13705TIP3   OH241050   1.465   7.133   1.729 -0.5350 -0.2571 -0.0922
13705TIP3    H141051   1.509   7.182   1.799 -0.7144 -0.6009  0.2621
13705TIP3    H241052   1.438   7.200   1.666  1.3336 -0.1191 -0.7891
13706TIP3   OH241053   5.662   0.150   0.259 -0.6403  0.3805  0.3869
13706TIP3    H141054   5.601   0.077   0.274 -0.8650  0.7912  1.5202
13706TIP3    H241055   5.624   0.223   0.307  1.2512  0.3800  1.9537
13707TIP3   OH241056   4.389   2.459   1.192 -0.0123 -0.0328  0.4694
13707TIP3    H141057   4.484   2.449   1.184  0.0210  2.3679 -3.0288
13707TIP3    H241058   4.354   2.373   1.168  1.2133 -0.2738 -0.4700
13708TIP3   OH241059   4.954   3.874   6.576  0.9371 -0.0005 -0.2633
13708TIP3    H141060   4.964   3.933   6.651 -0.2075 -1.4410  1.0704
13708TIP3    H241061   4.874   3.904   6.532  1.0593  0.2226 -0.3360
13709TIP3   OH241062   5.079   0.514   0.680 -0.6448 -0.0803 -0.4168
13709TIP3    H141063   5.052   0.543   0.593  0.4673  0.5393 -0.5629
13709TIP3    H241064   5.108   0.594   0.724 -0.7227 -0.4655  0.3492
13710TIP3   OH241065   6.720   5.121   6.569  0.2784 -0.0405 -0.2234
13710TIP3    H141066   6.666   5.172   6.630 -0.6376 -1.0937 -0.1395
13710TIP3    H241067   6.776   5.068   6.624  0.3256 -0.0738 -0.3031
13711TIP3   OH241068   8.005   5.211   6.573 -0.4440  0.2045 -0.6301
13711TIP3    H141069   7.950   5.144   6.613  0.4795 -0.8378 -1.0761
13711TIP3    H241070   7.986   5.205   6.480  1.9536 -1.6333 -1.0500
13712TIP3   OH241071   1.217   7.311   0.779 -0.5545  0.0105 -0.1963
13712TIP3    H141072   1.135   7.343   0.817  0.0650  0.2860  0.9347
13712TIP3    H241073   1.268   7.390   0.762 -0.3263 -0.1901 -0.4420
13713TIP3   OH241074   8.365   7.066   2.071 -0.4248  0.4677 -0.1899
13713TIP3    H141075   8.424   7.094   2.141 -0.4139  0.0220 -0.0162
13713TIP3    H241076   8.422   7.050   1.996 -0.3380  0.1933 -0.0688
13714TIP3   OH241077   8.407   7.890   0.987  0.0556 -0.6795 -0.3003
13714TIP3    H141078   8.368   7.961   0.935  0.0501 -0.4518  0.0164
13714TIP3    H241079   8.500   7.910   0.989 -0.0096 -0.4192  0.1940
13715TIP3   OH241080   5.868   3.341   5.999  0.1614  0.4216 -0.1549
13715TIP3    H141081   5.926   3.340   5.923 -1.2171 -0.4725 -1.2231
13715TIP3    H241082   5.854   3.248   6.018  0.2753  0.6427  1.0346
13716TIP3   OH241083   1.462   7.485   1.433  0.0464 -0.1505 -0.0336
13716TIP3    H141084   1.423   7.402   1.404  0.4576 -0.3478 -0.0226
13716TIP3    H241085   1.403   7.517   1.501 -0.9958  0.3623 -1.1476
13717TIP3   OH241086   1.153   6.005   1.452  0.3454  0.0519 -0.1625
13717TIP3    H141087   1.136   5.930   1.396  1.6457 -0.1079 -0.3619
13717TIP3    H241088   1.070   6.053   1.455 -0.8537 -2.0493  0.9582
13718TIP3   OH241089   7.679   6.878   0.455  0.5753  0.3665  0.1080
13718TIP3    H141090   7.595   6.833   0.446  1.1706 -0.9028  0.8092
13718TIP3    H241091   7.679   6.912   0.545  1.1067 -0.2469  0.3422
13719TIP3   OH241092   8.305   7.975   0.189  0.4069  0.3528  0.6650
13719TIP3    H141093   8.284   8.004   0.278 -1.0988  2.0876 -0.2196
13719TIP3    H241094   8.326   8.056   0.142  0.6613 -0.4952 -0.7113
13720TIP3   OH241095   0.385   5.811   1.312  0.1717  0.5451  0.2055
13720TIP3    H141096   0.420   5.868   1.380  0.8055 -1.3182  1.4785
13720TIP3    H241097   0.462   5.779   1.265 -0.1474  0.4393 -0.2521
13721TIP3   OH241098   3.349   0.711   0.899 -0.4900 -0.0179 -0.1399
13721TIP3    H141099   3.409   0.705   0.825  0.4244 -1.5399  0.6951
13721TIP3    H241100   3.308   0.797   0.890 -1.2191 -0.6166 -3.0230
13722TIP3   OH241101   0.987   7.051   2.168 -0.4789  0.5047 -0.0948
13722TIP3    H141102   1.039   7.071   2.246  0.6296 -1.2468 -0.3585
13722TIP3    H241103   1.024   7.106   2.100  1.5314 -1.2405 -0.4481
13723TIP3   OH241104   2.841   6.887   2.142  0.0270  0.0292 -0.3969
13723TIP3    H141105   2.803   6.820   2.199  1.2080  1.3031  1.9847
13723TIP3    H241106   2.910   6.841   2.094  1.2552 -0.3681  1.6798
13724TIP3   OH241107   0.116   7.021   0.107  0.0020 -0.0532 -0.8403
13724TIP3    H141108   0.075   6.951   0.055  1.4785 -2.4309  1.0768
13724TIP3    H241109   0.209   6.998   0.108  0.5761  2.1642 -0.4439
13725TIP3   OH241110   8.453   7.368   1.412  0.3538 -0.2906  1.0828
13725TIP3    H141111   8.461   7.430   1.484  0.2525 -0.0236  0.8675
13725TIP3    H241112   8.542   7.340   1.394  0.3763 -0.3737  1.3259
13726TIP3   OH241113   4.002   0.166   1.644  0.1267  0.1994 -0.0772
13726TIP3    H141114   4.064   0.233   1.614  1.7173 -0.3218  1.9352
13726TIP3    H241115   3.977   0.119   1.565  0.1615  2.1887 -1.2993
13727TIP3   OH241116   6.583   1.287   6.585 -0.0156 -0.0565 -0.1179
13727TIP3    H141117   6.496   1.248   6.594 -0.1744 -0.0634 -1.5613
13727TIP3    H241118   6.576   1.342   6.507  0.7742  1.3369  0.7725
13728TIP3   OH241119   4.928   2.894   6.396 -0.4383  0.4264 -0.1731
13728TIP3    H141120   4.909   2.972   6.343 -0.0627 -0.1330 -1.1484
13728TIP3    H241121   4.882   2.909   6.478 -0.0581  1.8664 -0.1980
13729TIP3   OH241122   8.029   7.494   6.814  0.8386  0.3338  0.2932
13729TIP3    H141123   8.003   7.408   6.848  0.1770 -0.2052 -1.5522
13729TIP3    H241124   8.120   7.482   6.785 -0.1471 -0.5076 -2.5124
13730TIP3   OH241125   5.805   4.794   5.702  0.0163 -0.1785 -0.4892
13730TIP3    H141126   5.787   4.730   5.632 -0.5199  1.7285 -2.1291
13730TIP3    H241127   5.899   4.808   5.698  0.2330 -1.3310  0.3037
13731TIP3   OH241128   5.769   3.710   6.911  0.6680  0.0741 -0.7914
13731TIP3    H141129   5.861   3.686   6.909  0.6897  0.0890  0.0585
13731TIP3    H241130   5.723   3.630   6.885  0.8905 -0.0879 -0.6895
13732TIP3   OH241131   2.006   7.093   0.186  0.1745  0.0491  0.3218
13732TIP3    H141132   1.965   7.038   0.252  0.6502  1.0659  1.4881
13732TIP3    H241133   2.023   7.176   0.231 -0.6801  1.2090 -1.4454
13733TIP3   OH241134   2.709   7.299   0.707 -0.3791 -0.4627 -0.3248
13733TIP3    H141135   2.750   7.305   0.620 -0.3074 -0.0034 -0.2629
13733TIP3    H241136   2.643   7.369   0.707 -1.4564 -1.4643 -0.5756
13734TIP3   OH241137   6.325   1.153   6.606 -0.1113  0.0963  0.4309
13734TIP3    H141138   6.270   1.120   6.534  0.4179  0.1843 -0.0151
13734TIP3    H241139   6.331   1.079   6.667  1.6472 -0.9055 -0.8930
13735TIP3   OH241140   4.787   0.203   2.590  0.5496  0.1785  0.4505
13735TIP3    H141141   4.694   0.181   2.585  0.8382 -1.5517  1.9662
13735TIP3    H241142   4.790   0.298   2.592 -1.1083  0.2778 -0.8189
13736TIP3   OH241143   3.099   0.103   0.250 -0.6616  0.0295 -0.0109
13736TIP3    H141144   3.058   0.061   0.175 -3.4663 -0.7647  1.9017
13736TIP3    H241145   3.053   0.187   0.259  0.3431  0.5635  0.2404
13737TIP3   OH241146   1.048   7.860   0.204 -0.2967 -0.0260  0.0497
13737TIP3    H141147   1.122   7.909   0.168  0.6503 -0.9681  0.7128
13737TIP3    H241148   0.995   7.926   0.250 -0.2506  0.7646 -1.0238
13738TIP3   OH241149   5.949   2.822   6.776 -0.2275 -0.2422  0.8144
13738TIP3    H141150   5.861   2.830   6.813  0.5815  0.2509  2.6846
13738TIP3    H241151   5.979   2.736   6.806 -0.3069 -0.7027 -0.3885
13739TIP3   OH241152   3.310   1.144   5.301 -0.3930 -0.4472 -0.1853
13739TIP3    H141153   3.235   1.096   5.333  0.7157  0.6049  4.2593
13739TIP3    H241154   3.279   1.234   5.291 -0.7265 -0.7569 -2.2384
13740TIP3   OH241155   7.548   1.822   6.830 -0.3932 -0.2596  0.4779
13740TIP3    H141156   7.573   1.732   6.811  0.1541 -0.1575  0.7039
13740TIP3    H241157   7.599   1.875   6.769 -0.3898 -0.0797  0.6361
13741TIP3   OH241158   6.249   5.893   6.221 -0.1377 -0.0260  0.1789
13741TIP3    H141159   6.252   5.878   6.316  1.0785 -0.4650  0.0888
13741TIP3    H241160   6.274   5.985   6.211  1.0436 -0.3362  0.2117
13742TIP3   OH241161   3.023   1.039   0.368  0.1410 -0.2177 -0.2264
13742TIP3    H141162   3.046   0.949   0.343 -0.1307 -0.3277 -0.0808
13742TIP3    H241163   3.000   1.033   0.461 -0.8004 -0.1742 -0.4487
13743TIP3   OH241164   4.686   0.155   0.785 -0.0485 -0.1874  0.5448
13743TIP3    H141165   4.730   0.235   0.756 -1.7867  0.7042  0.2721
13743TIP3    H241166   4.597   0.184   0.807 -1.1689 -2.3195 -1.0349
13744TIP3   OH241167   4.860   1.091   1.292 -0.2119 -0.0088  0.6041
13744TIP3    H141168   4.830   1.003   1.271 -0.3845 -0.5364  2.9769
13744TIP3    H241169   4.898   1.084   1.379  0.0445  2.1986  0.7046
13745TIP3   OH241170   8.246   3.825   6.209  0.1536  0.5248 -0.2445
13745TIP3    H141171   8.270   3.865   6.293 -0.3661  0.4169 -0.0384
13745TIP3    H241172   8.290   3.740   6.210  0.2855  0.5938 -0.1536
13746TIP3   OH241173   2.693   6.807   1.388 -0.5877 -0.5400  0.2391
13746TIP3    H141174   2.741   6.840   1.312 -0.7354 -2.2862 -0.6244
13746TIP3    H241175   2.759   6.794   1.455  0.1015 -2.5594 -0.8163
13747TIP3   OH241176   0.954   7.449   0.813 -0.0931 -0.2903 -0.0366
13747TIP3    H141177   1.011   7.496   0.874 -1.1662  1.5739 -0.4425
13747TIP3    H241178   0.983   7.477   0.726  0.8336 -2.2419 -0.3841
13748TIP3   OH241179   1.665   7.913   0.126 -0.3124  0.4759  0.2216
13748TIP3    H141180   1.666   7.865   0.208  1.0048  0.3099  0.1112
13748TIP3    H241181   1.572   7.925   0.106 -0.6385 -1.0282  0.8237
13749TIP3   OH241182   0.220   4.000   6.022  0.1752 -0.3914  0.0862
13749TIP3    H141183   0.312   3.982   6.001  0.2520  0.7075 -0.5668
13749TIP3    H241184   0.199   3.939   6.093  1.3640 -0.7513  0.1383
13750TIP3   OH241185   1.722   7.778   0.621  0.5648  0.4022 -0.2301
13750TIP3    H141186   1.777   7.707   0.655 -0.2815 -0.5158 -0.7635
13750TIP3    H241187   1.681   7.815   0.699  2.0010  1.1492  0.1813
13751TIP3   OH241188   0.458   6.612   1.929 -0.1965  0.6022 -0.0268
13751TIP3    H141189   0.470   6.673   2.002  0.4832  1.1907 -0.6326
13751TIP3    H241190   0.501   6.531   1.957  1.9208  1.4983 -0.6386
13752TIP3   OH241191   5.538   0.108   0.568 -0.0274  0.5185 -0.4076
13752TIP3    H141192   5.564   0.042   0.632  0.6021 -1.2901 -2.4780
13752TIP3    H241193   5.590   0.185   0.590 -0.9235  0.4592  2.1679
13753TIP3   OH241194   1.113   4.998   0.522  0.0029  0.1092  0.1710
13753TIP3    H141195   1.192   4.944   0.535  0.4823  0.9883  0.9948
13753TIP3    H241196   1.083   4.976   0.434  1.8812  0.6762 -0.6259
13754TIP3   OH241197   3.708   0.986   1.452  0.2943  0.3229 -0.1046
13754TIP3    H141198   3.681   1.041   1.525 -1.6388  1.4332 -1.6125
13754TIP3    H241199   3.804   0.992   1.451  0.2178  1.8337  1.1240
13755TIP3   OH241200   1.995   1.100   6.622  0.1073  0.0878  0.9057
13755TIP3    H141201   2.000   1.029   6.686 -0.8268 -0.2434  0.6217
13755TIP3    H241202   1.936   1.067   6.555 -0.7430  1.3514  1.0333
13756TIP3   OH241203   8.434   4.747   1.468  0.5066  0.3149 -0.7169
13756TIP3    H141204   8.355   4.693   1.473  1.5467 -1.0873  0.8459
13756TIP3    H241205   8.405   4.833   1.500 -0.5425 -0.0059 -0.7771
13757TIP3   OH241206   5.737   0.778   1.618 -0.0437 -0.0769 -0.0058
13757TIP3    H141207   5.831   0.764   1.627  0.1301  1.6521  1.1428
13757TIP3    H241208   5.712   0.730   1.539  1.8005 -0.5300 -0.3217
13758TIP3   OH241209   0.832   5.965   3.696  0.3792  0.6782 -0.1443
13758TIP3    H141210   0.882   6.037   3.657 -0.6020  2.0091  0.9896
13758TIP3    H241211   0.743   5.976   3.662  0.6091 -1.0875 -1.3731
13759TIP3   OH241212   3.383   4.377   0.508 -0.0646 -0.1994  0.0350
13759TIP3    H141213   3.408   4.469   0.507 -0.3509 -0.1180 -2.0782
13759TIP3    H241214   3.348   4.361   0.420 -0.5927 -2.1596  0.5856
13760TIP3   OH241215   6.616   4.203   6.041 -0.6873  0.7423  0.0800
13760TIP3    H141216   6.622   4.290   6.081 -0.6148  0.9107 -0.2944
13760TIP3    H241217   6.552   4.214   5.970  0.5781  0.9138 -1.0602
13761TIP3   OH241218   7.577   6.050   0.927 -0.3525 -0.0248  0.1043
13761TIP3    H141219   7.601   6.014   0.841 -1.9765 -0.6167 -0.1077
13761TIP3    H241220   7.565   6.143   0.911 -0.8383 -0.1643 -0.3465
13762TIP3   OH241221   7.712   7.313   1.295 -0.4103  0.0291 -0.6810
13762TIP3    H141222   7.762   7.386   1.257  0.1622 -0.7928 -1.5199
13762TIP3    H241223   7.635   7.306   1.239 -0.4989  0.0265 -0.5595
13763TIP3   OH241224   7.618   4.992   5.521  0.1581 -0.0843 -0.0737
13763TIP3    H141225   7.618   4.979   5.426  0.5270  1.3944 -0.2765
13763TIP3    H241226   7.572   5.075   5.534  0.2601 -0.1965  1.0297
13764TIP3   OH241227   0.906   4.413   6.588  0.2986 -0.0660  0.5483
13764TIP3    H141228   0.949   4.334   6.622 -0.8036 -0.9692 -0.0987
13764TIP3    H241229   0.973   4.454   6.532  0.6170 -1.0057  0.2119
13765TIP3   OH241230   8.426   5.747   6.041 -0.0057 -0.3963  0.7484
13765TIP3    H141231   8.474   5.751   6.123  1.6867  0.8610 -0.2661
13765TIP3    H241232   8.430   5.656   6.014  1.9376 -0.2818  0.6184
13766TIP3   OH241233   0.767   7.686   0.504  0.2463 -0.2980 -0.0871
13766TIP3    H141234   0.744   7.743   0.431  2.1901  1.9361  0.9914
13766TIP3    H241235   0.812   7.612   0.463 -1.0174 -0.3823 -1.3643
13767TIP3   OH241236   8.367   6.730   1.339  0.0939  0.0788  0.4308
13767TIP3    H141237   8.379   6.770   1.425 -1.2905  0.6420  0.3862
13767TIP3    H241238   8.440   6.763   1.287  0.8384 -0.1190  1.3409
13768TIP3   OH241239   5.296   5.139   6.149 -0.3282 -0.2757 -0.4534
13768TIP3    H141240   5.325   5.071   6.210  0.0604 -2.7483 -3.3108
13768TIP3    H241241   5.374   5.193   6.135  1.2644 -3.1185 -3.1297
13769TIP3   OH241242   7.516   6.303   2.127 -0.4661 -0.0765 -0.5322
13769TIP3    H141243   7.489   6.339   2.212 -0.5141 -0.7165 -0.2758
13769TIP3    H241244   7.536   6.212   2.145  3.2206  0.6949 -0.4342
13770TIP3   OH241245   1.566   6.635   0.443  0.7574 -0.4755 -0.0391
13770TIP3    H141246   1.654   6.645   0.479  0.3091  0.4136  0.8328
13770TIP3    H241247   1.572   6.558   0.386  1.2999 -2.4767  2.5824
13771TIP3   OH241248   0.091   7.259   0.505  0.0946 -0.6339 -0.3682
13771TIP3    H141249   0.101   7.352   0.488  1.6166 -0.6049  0.5361
13771TIP3    H241250   0.049   7.224   0.427 -0.9409  0.8807 -0.5127
13772TIP3   OH241251   1.711   6.699   0.755 -0.2788  0.0783  0.0783
13772TIP3    H141252   1.757   6.621   0.722  0.7692  1.7568 -2.6044
13772TIP3    H241253   1.618   6.678   0.744 -0.0167 -0.8314 -0.5566
13773TIP3   OH241254   5.435   2.920   6.892  0.1162 -0.2816 -0.4106
13773TIP3    H141255   5.435   2.960   6.805 -0.2397  2.1697  0.6961
13773TIP3    H241256   5.342   2.909   6.913  0.1287  1.8915  0.8821
13774TIP3   OH241257   7.359   1.440   5.619 -0.4055  0.3167 -0.5369
13774TIP3    H141258   7.355   1.501   5.545 -3.7484  0.3756 -0.3680
13774TIP3    H241259   7.325   1.490   5.693  1.1090 -0.3675  0.6547
13775TIP3   OH241260   2.405   7.921   6.182  0.1286 -0.2745  0.1270
13775TIP3    H141261   2.435   8.010   6.199  0.6694 -0.8849  2.4741
13775TIP3    H241262   2.321   7.915   6.226 -0.6833 -0.4237 -1.4242
13776TIP3   OH241263   0.631   7.561   0.122 -0.4289 -0.5303  0.8429
13776TIP3    H141264   0.546   7.601   0.140  0.0646  0.4703  0.9777
13776TIP3    H241265   0.694   7.633   0.130  0.1473 -0.6805 -1.7944
13777TIP3   OH241266   0.329   7.513   2.420 -1.1775 -0.0573  0.4083
13777TIP3    H141267   0.390   7.466   2.363 -0.4450  1.7358 -0.3133
13777TIP3    H241268   0.382   7.542   2.494 -1.4942  0.1581  0.5530
13778TIP3   OH241269   7.536   2.568   6.811 -0.4041 -0.2472  0.1433
13778TIP3    H141270   7.604   2.501   6.809  0.1846  0.3830 -1.5165
13778TIP3    H241271   7.454   2.519   6.802 -0.1040 -0.8847  0.8028
13779TIP3   OH241272   1.135   6.400   5.217 -0.2759  0.5731 -0.7756
13779TIP3    H141273   1.160   6.459   5.146  0.2583  0.4987 -0.6492
13779TIP3    H241274   1.217   6.362   5.247 -0.6322 -0.3743 -0.9699
13780TIP3   OH241275   6.135   0.420   1.201 -0.9310 -0.2758  0.1485
13780TIP3    H141276   6.053   0.407   1.249 -0.5823 -0.5246  0.6752
13780TIP3    H241277   6.128   0.362   1.125 -1.3344 -0.1402  0.0813
13781TIP3   OH241278   6.917   5.662   6.668 -0.4194  0.2164 -0.2097
13781TIP3    H141279   6.888   5.668   6.759 -0.1239  0.9410 -0.1562
13781TIP3    H241280   6.990   5.724   6.662 -2.1404  2.1880 -1.6030
13782TIP3   OH241281   5.456   0.425   2.636  0.0736 -0.0157 -0.1379
13782TIP3    H141282   5.470   0.333   2.613 -0.0703 -0.1559  0.3261
13782TIP3    H241283   5.526   0.445   2.698 -1.8616 -0.8067  2.4320
13783TIP3   OH241284   1.851   6.214   5.954 -0.1401 -0.0286  0.0162
13783TIP3    H141285   1.819   6.148   6.015  0.5688 -0.1552  0.2650
13783TIP3    H241286   1.809   6.193   5.871 -1.6854  0.5848  0.6232
13784TIP3   OH241287   8.287   2.055   0.160  0.2920 -0.5645  0.3802
13784TIP3    H141288   8.287   2.138   0.111 -0.4742 -0.4004  0.6400
13784TIP3    H241289   8.379   2.029   0.164  0.7179  1.0519  1.5995
13785TIP3   OH241290   1.544   4.294   4.580 -0.4827  0.5493  0.1287
13785TIP3    H141291   1.536   4.345   4.500 -3.2303 -0.5900 -0.3449
13785TIP3    H241292   1.618   4.235   4.564 -0.3677  1.0407 -1.1463
13786TIP3   OH241293   3.863   5.711   0.973 -0.5240 -0.7361  0.4667
13786TIP3    H141294   3.848   5.783   1.035  0.8433  0.5843 -0.7152
13786TIP3    H241295   3.788   5.715   0.914 -0.2383 -0.0172  0.1516
13787TIP3   OH241296   5.217   0.267   1.219 -0.0374 -0.4599  0.2149
13787TIP3    H141297   5.148   0.323   1.255  0.6712  0.9400 -0.5269
13787TIP3    H241298   5.192   0.254   1.127  0.2920 -0.5590  0.1394
13788TIP3   OH241299   6.271   0.431   0.163  0.6739  0.0458 -0.4006
13788TIP3    H141300   6.284   0.347   0.207 -0.9433 -0.6128 -1.1362
13788TIP3    H241301   6.283   0.497   0.232 -2.9099 -0.9879  1.3499
13789TIP3   OH241302   2.826   7.001   2.671 -0.7452 -0.6020  0.0514
13789TIP3    H141303   2.817   7.047   2.587 -0.8986 -1.4969 -0.4334
13789TIP3    H241304   2.893   6.935   2.655  0.4702  0.3523  1.1501
13790TIP3   OH241305   1.253   5.836   5.718  0.2244 -0.4225 -0.0130
13790TIP3    H141306   1.210   5.916   5.686  1.1039  0.0448 -0.0179
13790TIP3    H241307   1.298   5.801   5.642 -0.3260 -1.0335 -0.0574
13791TIP3   OH241308   0.609   5.175   6.835  0.4833 -0.2206  0.1470
13791TIP3    H141309   0.559   5.176   6.916  1.0172 -0.2767  0.4780
13791TIP3    H241310   0.637   5.085   6.824  0.3700 -0.2248 -0.1295
13792TIP3   OH241311   8.186   4.513   5.568  0.6728  0.1432 -0.1982
13792TIP3    H141312   8.208   4.597   5.528 -0.5057  0.4611 -0.2002
13792TIP3    H241313   8.163   4.535   5.658 -0.3118 -0.0776 -0.3883
13793TIP3   OH241314   0.211   7.021   5.139  0.2542  0.1497  0.2460
13793TIP3    H141315   0.198   7.060   5.052 -3.0746  0.6164  0.8753
13793TIP3    H241316   0.258   6.940   5.123 -0.3233  0.2348 -2.0136
13794TIP3   OH241317   7.527   1.144   0.272  0.4221 -0.1708  0.1076
13794TIP3    H141318   7.498   1.076   0.333 -0.8914  0.6308  0.3926
13794TIP3    H241319   7.509   1.107   0.185 -1.3237  0.2365  0.2747
13795TIP3   OH241320   3.979   0.925   2.027  0.3436  0.7864 -0.6851
13795TIP3    H141321   3.912   0.878   1.977  0.2379 -1.0981  1.1819
13795TIP3    H241322   4.062   0.898   1.988  0.2311 -0.2316 -0.2417
13796TIP3   OH241323   8.398   4.302   5.465  0.5288  0.3837  0.2949
13796TIP3    H141324   8.334   4.370   5.487  1.0228  0.7472  0.6055
13796TIP3    H241325   8.373   4.274   5.376 -0.1966  0.3644  0.5000
13797TIP3   OH241326   1.886   3.538   6.423  0.4975  0.2433  0.9069
13797TIP3    H141327   1.982   3.543   6.431  0.6001 -0.9110  0.3714
13797TIP3    H241328   1.867   3.445   6.415 -0.6488  0.4991  0.5843
13798TIP3   OH241329   8.423   6.172   5.462 -0.2133 -0.4059 -0.8068
13798TIP3    H141330   8.485   6.100   5.472  0.8398  0.7145  0.9881
13798TIP3    H241331   8.354   6.153   5.525 -0.6546 -0.5614 -1.3310
13799TIP3   OH241332   7.050   4.477   4.838 -0.0499  0.2595 -0.2979
13799TIP3    H141333   6.988   4.458   4.768 -2.6973 -4.0322  2.9549
13799TIP3    H241334   7.111   4.403   4.838  0.8828  1.0053  0.9117
13800TIP3   OH241335   8.274   3.629   6.555  0.6628 -0.4102  0.4244
13800TIP3    H141336   8.221   3.565   6.602  1.6960 -0.5031  1.4874
13800TIP3    H241337   8.309   3.581   6.479  1.0626 -0.9879  0.9669
13801TIP3   OH241338   5.307   1.779   0.482  0.0099  0.1731 -0.0201
13801TIP3    H141339   5.390   1.826   0.484 -0.3473  0.8068  0.0567
13801TIP3    H241340   5.302   1.744   0.393 -0.2242  1.2045 -0.4222
13802TIP3   OH241341   6.177   4.621   4.310 -0.0453 -0.7267  0.5583
13802TIP3    H141342   6.177   4.628   4.406  0.5451 -1.1109  0.5879
13802TIP3    H241343   6.261   4.658   4.283 -0.9251  0.9687  0.0619
13803TIP3   OH241344   6.741   1.058   0.477 -0.1523  0.3439  0.2595
13803TIP3    H141345   6.771   1.052   0.567 -0.2790  1.4675  0.3848
13803TIP3    H241346   6.819   1.043   0.424  0.4559  2.3298  0.5749
13804TIP3   OH241347   8.430   5.206   5.435 -0.3442  0.1335  0.3125
13804TIP3    H141348   8.507   5.232   5.487  0.0250 -0.5093  0.0928
13804TIP3    H241349   8.359   5.259   5.471  0.6402  2.4648 -1.0023
13805TIP3   OH241350   2.501   7.029   0.554  0.1821  0.0709 -0.1196
13805TIP3    H141351   2.431   7.034   0.488  0.3304 -1.2047 -0.3772
13805TIP3    H241352   2.541   7.116   0.553  0.6148 -0.1346 -2.1879
13806TIP3   OH241353   0.989   3.811   5.064  0.7056 -0.1707 -0.3864
13806TIP3    H141354   1.082   3.820   5.040  0.0923 -0.4661 -3.0565
13806TIP3    H241355   0.989   3.807   5.160  3.4878 -0.6849 -0.3704
13807TIP3   OH241356   6.811   1.277   0.222  0.2397 -0.0447  0.2418
13807TIP3    H141357   6.876   1.345   0.210 -0.8065  1.9182  4.8133
13807TIP3    H241358   6.856   1.208   0.271 -0.6519  0.7111  2.1915
13808TIP3   OH241359   7.521   3.670   6.360  0.2318 -0.1046  0.4497
13808TIP3    H141360   7.445   3.715   6.398 -0.2670 -0.3963 -0.1955
13808TIP3    H241361   7.527   3.588   6.408 -2.0708 -1.7235 -1.9083
13809TIP3   OH241362   4.241   2.924   1.881  0.3847 -0.3159 -0.1793
13809TIP3    H141363   4.214   2.927   1.973 -0.4708  1.8851 -0.4859
13809TIP3    H241364   4.318   2.979   1.876  0.5220 -0.5556 -0.7553
13810TIP3   OH241365   5.594   0.875   1.305 -0.1411 -0.1522  0.7193
13810TIP3    H141366   5.681   0.895   1.340 -0.5770  0.8062  1.2813
13810TIP3    H241367   5.581   0.783   1.325  1.3020 -0.6648 -0.5884
13811TIP3   OH241368   2.039   5.549   6.035 -0.0812  0.2151  0.0985
13811TIP3    H141369   2.018   5.462   6.001  2.5141 -0.1244 -0.7570
13811TIP3    H241370   1.994   5.554   6.120 -0.8585 -1.6535 -0.1907
13812TIP3   OH241371   5.648   0.748   0.276  0.6043 -0.6013 -0.4033
13812TIP3    H141372   5.665   0.704   0.193 -3.1278 -1.3388 -0.8629
13812TIP3    H241373   5.608   0.832   0.251 -0.8317 -0.9641  0.6156
13813TIP3   OH241374   8.120   4.658   5.816 -0.0277  0.2855 -0.5926
13813TIP3    H141375   8.042   4.681   5.766  0.2700 -0.0386 -1.2255
13813TIP3    H241376   8.096   4.673   5.907 -1.2006 -0.8742 -0.6918
13814TIP3   OH241377   5.183   1.027   1.495  0.1512 -0.4283 -0.1446
13814TIP3    H141378   5.196   1.061   1.584 -0.2455  0.1672 -0.3137
13814TIP3    H241379   5.267   1.043   1.451  0.1999 -0.3164 -0.0118
13815TIP3   OH241380   6.886   2.292   0.806 -0.3852  0.2143  0.8059
13815TIP3    H141381   6.893   2.283   0.711 -0.7925 -1.5658  0.9331
13815TIP3    H241382   6.799   2.329   0.820 -0.6672 -0.3349  0.5247
13816TIP3   OH241383   6.205   1.984   2.895  0.1872  0.4679 -0.6053
13816TIP3    H141384   6.165   1.934   2.824 -1.4482  0.8518  0.0234
13816TIP3    H241385   6.280   2.027   2.855 -1.0035  1.0752 -2.2337
13817TIP3   OH241386   0.347   7.495   1.027 -0.1004 -0.9568  0.4744
13817TIP3    H141387   0.382   7.534   0.947  1.7153 -1.1829  1.1359
13817TIP3    H241388   0.252   7.502   1.017  0.1370  1.4790 -0.4814
13818TIP3   OH241389   7.918   1.725   0.362  0.0258 -0.3257 -0.3067
13818TIP3    H141390   7.872   1.768   0.290 -0.3805  0.7546  0.5839
13818TIP3    H241391   7.854   1.719   0.432  0.4880 -1.1518  0.0533
13819TIP3   OH241392   7.403   0.891   0.398 -0.2565 -0.2399 -0.2404
13819TIP3    H141393   7.453   0.891   0.480 -0.7656 -0.2773  0.0687
13819TIP3    H241394   7.379   0.799   0.385  1.4503 -0.5490 -1.4274
13820TIP3   OH241395   4.741   6.776   0.214 -0.0603 -0.4446 -0.1768
13820TIP3    H141396   4.786   6.860   0.201  0.9469 -0.5561  2.2848
13820TIP3    H241397   4.771   6.722   0.142  1.2195  0.5372 -0.4064
13821TIP3   OH241398   8.507   2.786   0.967 -0.0325 -0.0444  0.0789
13821TIP3    H141399   8.425   2.819   1.003 -0.4040 -0.7676 -0.1075
13821TIP3    H241400   8.495   2.790   0.872 -0.3102 -1.2824  0.0542
13822TIP3   OH241401   0.922   1.187   1.940  0.0787 -0.4065  0.0795
13822TIP3    H141402   1.010   1.171   1.974 -0.3426 -0.1872  1.3170
13822TIP3    H241403   0.871   1.111   1.969  0.2793 -1.4266 -2.2038
13823TIP3   OH241404   1.106   6.637   5.059  0.1960 -0.0517 -0.1513
13823TIP3    H141405   1.031   6.667   5.007 -0.9282 -0.2882  1.3118
13823TIP3    H241406   1.182   6.673   5.013 -0.7862  0.0437 -1.7614
13824TIP3   OH241407   5.620   6.897   0.736  0.3925  0.0828 -0.1707
13824TIP3    H141408   5.553   6.953   0.697  0.1895 -0.0118  0.0412
13824TIP3    H241409   5.596   6.890   0.828  0.3529 -0.4412 -0.2173
13825TIP3   OH241410   8.384   2.789   1.432 -0.1148  0.1155  0.0054
13825TIP3    H141411   8.337   2.707   1.414  0.0832 -0.6356  2.6424
13825TIP3    H241412   8.476   2.764   1.430 -0.0420  0.3378  0.4768
13826TIP3   OH241413   1.230   6.231   6.141  0.1741 -0.7823  0.3211
13826TIP3    H141414   1.175   6.157   6.116 -0.2674 -0.0753 -0.8517
13826TIP3    H241415   1.286   6.245   6.065  0.8601 -0.4634  0.8781
13827TIP3   OH241416   1.682   3.026   1.508  0.0115  0.1472 -0.2299
13827TIP3    H141417   1.691   2.954   1.571 -1.6062 -0.9378 -1.2243
13827TIP3    H241418   1.670   2.983   1.424 -1.8971  1.5570 -0.7111
13828TIP3   OH241419   7.478   2.158   0.358  0.4912  0.0416  0.2338
13828TIP3    H141420   7.435   2.232   0.400  1.1108  0.6734 -0.2363
13828TIP3    H241421   7.451   2.164   0.267 -0.5170 -1.0868  0.4440
13829TIP3   OH241422   0.959   5.316   6.714 -0.0236  0.5702 -0.7028
13829TIP3    H141423   0.985   5.287   6.626 -1.9849 -1.8832 -0.5420
13829TIP3    H241424   0.867   5.341   6.705  0.6357  3.3866 -0.0064
13830TIP3   OH241425   2.423   2.589   0.881 -0.7633 -0.6792 -0.6091
13830TIP3    H141426   2.452   2.549   0.799 -0.9916 -1.0463 -0.5153
13830TIP3    H241427   2.498   2.582   0.940 -1.1539 -2.0114 -0.2294
13831TIP3   OH241428   0.195   6.352   6.606  0.1169 -0.2079  0.0703
13831TIP3    H141429   0.149   6.271   6.628 -0.3338  0.4012  1.4289
13831TIP3    H241430   0.224   6.386   6.690  4.5672 -1.4221 -0.8464
13832TIP3   OH241431   6.513   0.398   2.048 -0.5452 -0.1401  0.5562
13832TIP3    H141432   6.426   0.364   2.069 -1.0112  0.3330 -0.5600
13832TIP3    H241433   6.509   0.491   2.071 -0.5828  0.0461 -0.1660
13833TIP3   OH241434   3.549   5.257   6.621 -0.0875  0.0445 -0.4243
13833TIP3    H141435   3.611   5.327   6.640 -0.5027  0.8535 -1.9447
13833TIP3    H241436   3.473   5.276   6.675  0.4438 -0.1752  0.4084
13834TIP3   OH241437   7.930   0.998   1.128 -0.1953  0.5735 -0.3473
13834TIP3    H141438   8.005   0.961   1.081  0.0672 -1.3298  1.4849
13834TIP3    H241439   7.885   1.052   1.063  0.6124 -1.3188 -2.5434
13835TIP3   OH241440   1.183   6.233   6.658 -0.3690  0.2229  0.1737
13835TIP3    H141441   1.274   6.262   6.651 -1.1494  2.6927 -0.3551
13835TIP3    H241442   1.168   6.179   6.581  0.9099 -0.9964  0.7599
13836TIP3   OH241443   4.996   2.361   2.080  0.6234 -0.0544 -0.2206
13836TIP3    H141444   5.067   2.297   2.091  1.8890  1.4094  0.3670
13836TIP3    H241445   5.014   2.428   2.147 -1.1563  0.4854 -0.2603
13837TIP3   OH241446   0.591   1.237   0.610  0.3774  0.0663  0.4180
13837TIP3    H141447   0.683   1.228   0.634  0.7032 -1.0154 -1.1685
13837TIP3    H241448   0.552   1.290   0.680  2.1429  0.3018  1.2235
13838TIP3   OH241449   0.114   0.583   0.921  0.1459  0.3176  0.0699
13838TIP3    H141450   0.054   0.579   0.846  0.1829 -0.2095  0.0622
13838TIP3    H241451   0.097   0.668   0.961 -1.0634 -0.0806  0.4331
13839TIP3   OH241452   4.973   7.841   2.233  0.3175 -0.2765  0.1128
13839TIP3    H141453   4.947   7.864   2.144  0.1544  0.3960  0.3290
13839TIP3    H241454   4.942   7.751   2.244 -0.2814 -0.1275 -0.2751
13840TIP3   OH241455   8.131   0.312   2.134  0.6725 -0.3111 -0.4624
13840TIP3    H141456   8.192   0.265   2.190 -0.2743  0.0394  0.8830
13840TIP3    H241457   8.049   0.262   2.140  0.6411 -0.4437 -1.7734
13841TIP3   OH241458   1.418   0.907   1.920 -0.2787 -0.5400 -0.3040
13841TIP3    H141459   1.414   0.932   1.828  1.4844 -0.9963 -0.5256
13841TIP3    H241460   1.496   0.952   1.953 -1.0643 -0.1380  1.0396
13842TIP3   OH241461   4.127   7.807   2.359  0.1448  0.1872  0.0730
13842TIP3    H141462   4.196   7.805   2.425  1.6775  0.5086 -1.4623
13842TIP3    H241463   4.107   7.715   2.343  1.0622  0.0459 -0.3052
13843TIP3   OH241464   6.572   8.030   2.610  0.4810 -0.0308  0.1345
13843TIP3    H141465   6.629   7.953   2.604  0.9274  0.4035 -1.2703
13843TIP3    H241466   6.550   8.036   2.703  2.8839 -0.0859  0.7286
13844TIP3   OH241467   6.996   7.585   2.573 -0.3887 -0.3449  0.0464
13844TIP3    H141468   7.015   7.494   2.551 -0.5391 -0.2495 -0.4911
13844TIP3    H241469   7.067   7.611   2.632  0.1298 -0.5473 -0.4834
13845TIP3   OH241470   8.277   3.323   2.485 -0.1201 -0.0902  0.1045
13845TIP3    H141471   8.231   3.408   2.490  0.0390 -0.0195  0.3368
13845TIP3    H241472   8.357   3.343   2.437 -1.3736 -0.6473 -2.3006
13846TIP3   OH241473   5.452   1.067   0.801 -0.3706  0.1960 -0.2921
13846TIP3    H141474   5.409   1.054   0.717 -1.1020 -2.2116  0.4324
13846TIP3    H241475   5.385   1.105   0.857 -1.1487 -2.0875  0.3786
13847TIP3   OH241476   8.429   1.444   1.124  0.7565 -0.1298 -0.5585
13847TIP3    H141477   8.461   1.507   1.059  1.3330  0.9132  0.7209
13847TIP3    H241478   8.464   1.360   1.095 -0.9752 -0.0796 -2.9386
13848TIP3   OH241479   2.304   0.450   1.076 -0.0309  0.5873 -0.7332
13848TIP3    H141480   2.385   0.399   1.072 -0.5486 -0.2556 -0.7870
13848TIP3    H241481   2.241   0.390   1.117 -0.5029  1.3976 -0.2574
13849TIP3   OH241482   6.727   2.105   2.538  0.1265 -0.7254 -0.4771
13849TIP3    H141483   6.780   2.126   2.460 -0.9813 -3.8225 -2.1557
13849TIP3    H241484   6.779   2.039   2.584  1.4534  2.1218  2.2831
13850TIP3   OH241485   1.620   3.564   2.205  0.2711 -0.8814  0.4525
13850TIP3    H141486   1.709   3.590   2.229  0.7854  0.2428 -2.5041
13850TIP3    H241487   1.575   3.646   2.189 -0.2727 -1.5403 -1.5191
13851TIP3   OH241488   0.468   2.593   1.574  0.1457  0.3342 -0.1553
13851TIP3    H141489   0.403   2.535   1.612 -1.0455  2.3847  1.0111
13851TIP3    H241490   0.421   2.641   1.506  0.6445  1.2561  0.1442
13852TIP3   OH241491   0.224   1.808   1.456 -0.4993  0.2912  0.7203
13852TIP3    H141492   0.158   1.766   1.400 -0.7827  1.8383 -0.1387
13852TIP3    H241493   0.209   1.902   1.444  1.2566  0.6549  1.2358
13853TIP3   OH241494   3.115   4.181   6.415 -0.1434  0.2763 -0.6903
13853TIP3    H141495   3.080   4.159   6.501  0.0823 -0.7977 -0.8713
13853TIP3    H241496   3.040   4.212   6.365 -0.3033  0.7548 -0.1688
13854TIP3   OH241497   2.122   4.371   3.109 -0.1831  0.5842 -0.2061
13854TIP3    H141498   2.028   4.392   3.109 -0.0847  1.0373 -0.3058
13854TIP3    H241499   2.164   4.452   3.138  0.2049  0.5255 -0.6075
13855TIP3   OH241500   1.112   1.288   1.642  0.1139 -0.2138 -0.4250
13855TIP3    H141501   1.136   1.255   1.555  0.9127 -1.6432  0.3232
13855TIP3    H241502   1.066   1.214   1.683 -1.2266  0.8238 -0.0222
13856TIP3   OH241503   2.595   0.268   2.756  0.0136  0.3184 -0.1497
13856TIP3    H141504   2.679   0.301   2.726  0.9802 -0.0950  2.0216
13856TIP3    H241505   2.539   0.346   2.763  0.7162  0.8092  0.0032
13857TIP3   OH241506   1.371   0.802   2.810 -0.1733 -0.1705  0.4566
13857TIP3    H141507   1.298   0.772   2.864 -1.1761 -2.0244 -1.8717
13857TIP3    H241508   1.330   0.839   2.732  1.2662  2.4618  0.8727
13858TIP3   OH241509   7.760   1.288   0.251 -0.1353 -0.0217 -0.1030
13858TIP3    H141510   7.732   1.342   0.177  0.5321 -0.7225 -0.8724
13858TIP3    H241511   7.695   1.218   0.256  0.5544 -0.7141 -0.8491
13859TIP3   OH241512   8.060   5.572   0.876 -0.4759 -0.2172  0.4160
13859TIP3    H141513   7.980   5.611   0.912  0.0411 -0.2296  1.5962
13859TIP3    H241514   8.113   5.553   0.952  1.6792  2.0058 -0.4633
13860TIP3   OH241515   1.253   1.117   2.322  0.4971  0.0648 -0.3477
13860TIP3    H141516   1.324   1.057   2.344 -0.9690 -1.8557 -0.7762
13860TIP3    H241517   1.179   1.087   2.375 -0.2204  1.5964 -0.4568
13861TIP3   OH241518   6.822   7.742   0.847  0.6951 -0.2958 -0.0737
13861TIP3    H141519   6.794   7.796   0.921 -0.4371 -2.0882  0.8109
13861TIP3    H241520   6.741   7.717   0.803  1.3167  0.1158 -1.5003
13862TIP3   OH241521   3.543   1.687   1.832  0.2507  0.0905 -0.0079
13862TIP3    H141522   3.621   1.701   1.779 -0.1973  0.2491 -0.6266
13862TIP3    H241523   3.548   1.753   1.900 -0.8246  2.0127 -1.7463
13863TIP3   OH241524   0.633   2.607   2.835 -0.2953  0.1493 -0.0484
13863TIP3    H141525   0.667   2.557   2.760 -2.7997 -0.8626 -0.5826
13863TIP3    H241526   0.696   2.678   2.847  0.5756 -0.1148 -2.6429
13864TIP3   OH241527   3.675   3.787   6.339 -0.4470  0.3322 -0.0571
13864TIP3    H141528   3.708   3.870   6.373  1.5494 -0.3307 -0.3134
13864TIP3    H241529   3.656   3.735   6.417  1.1512 -0.0433  0.0996
13865TIP3   OH241530   2.746   2.501   2.333 -0.3686 -0.5389  1.0213
13865TIP3    H141531   2.725   2.569   2.398 -1.1064 -0.4982  0.7458
13865TIP3    H241532   2.833   2.525   2.301 -1.6378  1.7318 -0.8889
13866TIP3   OH241533   7.157   7.403   1.465 -0.7154 -0.4810 -0.0269
13866TIP3    H141534   7.078   7.353   1.481 -0.5549 -0.3765  1.1541
13866TIP3    H241535   7.217   7.377   1.536 -0.7746  1.6440  0.8354
13867TIP3   OH241536   3.386   2.366   2.557  0.1085 -0.1271  0.3808
13867TIP3    H141537   3.307   2.383   2.607  0.9966  0.9801  1.4409
13867TIP3    H241538   3.416   2.280   2.588 -0.5070 -0.4080  0.1941
13868TIP3   OH241539   2.531   1.381   2.030 -0.2645  0.0335  0.4836
13868TIP3    H141540   2.623   1.381   2.004 -0.6414 -0.7562 -0.9221
13868TIP3    H241541   2.487   1.329   1.962 -1.9734  1.6606  0.2996
13869TIP3   OH241542   1.434   1.048   0.690  0.2745 -0.8067  0.3762
13869TIP3    H141543   1.380   1.013   0.761 -0.3996  1.5879  1.0968
13869TIP3    H241544   1.511   1.084   0.733 -0.9611  2.2534  0.1419
13870TIP3   OH241545   2.097   0.305   1.166 -0.2441  0.0502  0.0980
13870TIP3    H141546   2.036   0.353   1.222 -0.4086  0.1615 -0.1756
13870TIP3    H241547   2.063   0.215   1.165 -0.2013  0.0319  0.2310
13871TIP3   OH241548   7.439   6.910   0.683 -0.4887 -0.1928  0.5952
13871TIP3    H141549   7.460   7.000   0.662 -1.6814 -0.2787 -1.0407
13871TIP3    H241550   7.489   6.891   0.762  0.6554  1.5314  0.2943
13872TIP3   OH241551   3.191   3.442   2.513 -0.3465 -0.4972 -0.3277
13872TIP3    H141552   3.170   3.457   2.421 -2.5357  0.0562  0.2196
13872TIP3    H241553   3.195   3.530   2.551 -0.3327 -0.7613  0.2875
13873TIP3   OH241554   6.671   8.002   0.564 -0.4782  0.2573 -0.3084
13873TIP3    H141555   6.676   7.918   0.519 -1.2868 -0.5132  0.9814
13873TIP3    H241556   6.752   8.047   0.542  0.1067 -0.9994 -0.7577
13874TIP3   OH241557   7.540   0.567   1.420 -0.0415 -0.1684 -0.0360
13874TIP3    H141558   7.481   0.635   1.452  0.0487  0.0678 -0.3710
13874TIP3    H241559   7.603   0.614   1.365 -1.2648 -0.7984 -2.0223
13875TIP3   OH241560   0.870   2.496   4.003 -0.2342  0.3528  0.1079
13875TIP3    H141561   0.849   2.402   4.007  1.1463  0.0239 -0.1371
13875TIP3    H241562   0.784   2.539   4.005 -0.9855 -0.9759 -1.5890
13876TIP3   OH241563   0.284   1.738   2.006  0.3579 -0.1371 -0.2354
13876TIP3    H141564   0.225   1.665   2.027 -1.8518  1.3056 -1.2378
13876TIP3    H241565   0.275   1.749   1.912  1.5388  0.7044 -0.2554
13877TIP3   OH241566   1.956   1.671   2.260  0.2252 -0.0172  0.1396
13877TIP3    H141567   2.023   1.605   2.280  0.4356  0.0068 -0.4751
13877TIP3    H241568   1.888   1.623   2.213  0.9033  0.4088 -1.3268
13878TIP3   OH241569   7.651   1.249   0.884 -0.6152  0.1245 -0.4823
13878TIP3    H141570   7.574   1.217   0.837 -0.6840  0.0537 -0.3222
13878TIP3    H241571   7.627   1.338   0.910 -0.7815 -0.0296 -0.1150
13879TIP3   OH241572   2.801   5.786   3.509 -0.1239 -0.3473  0.3674
13879TIP3    H141573   2.775   5.864   3.558 -0.1751 -0.6269  0.7901
13879TIP3    H241574   2.724   5.729   3.513  0.0513 -0.5810  0.3860
13880TIP3   OH241575   4.028   6.375   0.045 -0.6065  0.0929 -0.5237
13880TIP3    H141576   4.085   6.334  -0.019  0.4885  1.7944 -0.6735
13880TIP3    H241577   3.946   6.391  -0.003 -0.5589 -0.6301 -0.8495
13881TIP3   OH241578   7.487   0.184   1.011  0.2789  0.1350  0.0340
13881TIP3    H141579   7.446   0.247   1.070 -1.0199  1.2057 -1.9640
13881TIP3    H241580   7.581   0.199   1.022  0.0389  0.8877  1.1890
13882TIP3   OH241581   1.347   1.901   1.127  0.2476  0.1747  0.5633
13882TIP3    H141582   1.282   1.888   1.197  0.3243 -1.5321  0.3449
13882TIP3    H241583   1.295   1.913   1.048  0.1689  1.2109  0.7743
13883TIP3   OH241584   1.766   1.932   2.670 -0.3670 -0.4505  0.7355
13883TIP3    H141585   1.816   1.854   2.645 -2.3182 -1.9870  1.4345
13883TIP3    H241586   1.675   1.907   2.654 -0.9826  1.9386  0.4011
13884TIP3   OH241587   7.556   2.038   2.081 -0.1576  0.2375  0.1575
13884TIP3    H141588   7.607   2.111   2.049 -0.4856  0.1186 -0.6402
13884TIP3    H241589   7.580   2.031   2.174  0.4377  0.8677  0.0540
13885TIP3   OH241590   0.605   1.170   1.850  0.4800 -0.0022  0.1104
13885TIP3    H141591   0.623   1.082   1.818  1.9422 -0.3803  1.8800
13885TIP3    H241592   0.645   1.229   1.786 -1.6846 -0.5568 -1.8011
13886TIP3   OH241593   7.914   2.045   1.801 -0.2656 -0.3340  0.4220
13886TIP3    H141594   7.853   2.098   1.852 -0.1999 -1.9593  2.2626
13886TIP3    H241595   7.865   1.965   1.780  0.1633 -0.2592 -0.9358
13887TIP3   OH241596   4.468   3.512   6.810 -0.4980 -0.6544 -0.3459
13887TIP3    H141597   4.529   3.518   6.737 -1.1354 -0.8735 -0.9058
13887TIP3    H241598   4.469   3.599   6.849 -0.8128 -0.2819 -1.1585
13888TIP3   OH241599   2.165   0.631   0.911  0.3056 -0.2450 -0.6353
13888TIP3    H141600   2.206   0.600   0.992 -1.0141 -1.6247 -0.4723
13888TIP3    H241601   2.094   0.569   0.895 -0.4121  0.9095 -2.0295
13889TIP3   OH241602   0.069  -0.020   1.248 -0.4942  0.8024 -0.2532
13889TIP3    H141603   0.110   0.045   1.191  1.1436  0.0074 -0.0263
13889TIP3    H241604   0.004   0.029   1.299  0.7512  2.2740 -0.0474
13890TIP3   OH241605   2.072   0.413   2.007  0.1116  0.1672  0.5602
13890TIP3    H141606   2.160   0.387   1.979  0.2983  2.0835 -0.7804
13890TIP3    H241607   2.081   0.506   2.028 -1.0509 -0.2106  2.8559
13891TIP3   OH241608   0.036   3.895   0.513  0.5701 -0.2634  0.6066
13891TIP3    H141609  -0.040   3.869   0.565  0.4561  0.7422  0.9600
13891TIP3    H241610   0.004   3.900   0.423  0.5326 -1.0730  0.5700
13892TIP3   OH241611   0.032   6.039   1.053 -0.7388 -0.0264  0.1750
13892TIP3    H141612   0.041   5.985   0.974  0.4994  1.2705 -0.5939
13892TIP3    H241613   0.112   6.092   1.054 -0.2065 -0.8199  2.9136
13893TIP3   OH241614   1.472   3.994   5.180 -0.4744 -0.3359  0.7115
13893TIP3    H141615   1.563   3.974   5.201 -0.1082 -0.0172 -0.5463
13893TIP3    H241616   1.451   4.070   5.235 -0.6471 -1.6702  2.5468
13894TIP3   OH241617   0.311   0.143   1.941  0.3715  0.1487 -0.2359
13894TIP3    H141618   0.321   0.114   1.850  1.2420  0.1876 -0.1590
13894TIP3    H241619   0.335   0.067   1.993 -0.1263  0.1277 -0.0384
13895TIP3   OH241620   2.034   2.049   1.977  0.6942 -0.1555  0.3666
13895TIP3    H141621   2.110   2.108   1.975  0.3111  0.3116 -1.2327
13895TIP3    H241622   2.053   1.987   2.047  1.4136  1.4711  1.6465
13896TIP3   OH241623   8.046   7.109   1.837 -0.3343  0.3740  0.1193
13896TIP3    H141624   7.991   7.109   1.759  1.5823 -0.7443 -1.2665
13896TIP3    H241625   8.115   7.172   1.818  0.7531 -0.6981  0.4714
13897TIP3   OH241626   6.581   7.729   0.704 -0.0179  0.4885  0.1741
13897TIP3    H141627   6.559   7.754   0.615 -0.1352 -1.7207 -0.4450
13897TIP3    H241628   6.547   7.640   0.713  2.5301 -0.3990  1.4677
13898TIP3   OH241629   8.183   1.381   1.816 -0.1759 -0.4283 -0.3806
13898TIP3    H141630   8.241   1.322   1.768 -1.8106 -1.0573 -1.6620
13898TIP3    H241631   8.118   1.409   1.751 -1.6456 -0.2093  1.1362
13899TIP3   OH241632   1.313   2.178   2.388  0.3278  0.0170  0.2609
13899TIP3    H141633   1.354   2.103   2.344  0.4638  0.3614 -0.1949
13899TIP3    H241634   1.297   2.241   2.318 -0.8954 -0.0748  0.4495
13900TIP3   OH241635   5.717   0.831   1.894  0.5068 -0.3823 -0.1326
13900TIP3    H141636   5.727   0.737   1.902  0.8511 -0.2743  0.7497
13900TIP3    H241637   5.744   0.851   1.804 -3.6189 -1.6410 -1.7442
13901TIP3   OH241638   2.528   1.009   0.980  0.0454 -0.2631  0.7381
13901TIP3    H141639   2.570   1.053   1.054  0.1881  0.0916  0.4441
13901TIP3    H241640   2.489   1.080   0.929 -1.6408 -0.6362  1.4494
13902TIP3   OH241641   6.292   6.926   0.400  0.3575 -0.7977  0.1941
13902TIP3    H141642   6.342   6.911   0.480 -0.9351 -1.0907  0.9552
13902TIP3    H241643   6.298   7.021   0.386  0.1321 -0.6664  0.9531
13903TIP3   OH241644   7.053   7.544   1.228 -0.1897  0.3884  0.3879
13903TIP3    H141645   6.962   7.535   1.255  0.0651  1.7013  1.7678
13903TIP3    H241646   7.103   7.538   1.310  0.9028  0.3849 -0.2696
13904TIP3   OH241647   1.788   3.269   2.315 -0.4423  0.7380 -0.0694
13904TIP3    H141648   1.790   3.294   2.222  0.7976 -0.7236 -0.4569
13904TIP3    H241649   1.695   3.250   2.332 -0.8536  2.0720 -0.6942
13905TIP3   OH241650   1.466   2.170   1.173 -0.2498  0.3497  0.0627
13905TIP3    H141651   1.424   2.084   1.184 -0.2754  0.5602  1.5694
13905TIP3    H241652   1.468   2.182   1.078 -0.3998 -1.2460 -0.1690
13906TIP3   OH241653   4.598   3.902   5.711  0.5765 -0.2918 -0.5971
13906TIP3    H141654   4.569   3.981   5.757 -1.4964  0.3507 -2.8530
13906TIP3    H241655   4.616   3.839   5.780  0.5908  1.6131  1.1939
13907TIP3   OH241656   1.006   1.304   0.313 -0.1738  0.3431 -0.2133
13907TIP3    H141657   1.008   1.342   0.401  0.3050 -0.9978  0.3782
13907TIP3    H241658   1.046   1.217   0.324  0.5460  0.4437 -1.8922
13908TIP3   OH241659   1.248   1.770   2.352  0.2756  0.1221  0.2362
13908TIP3    H141660   1.233   1.706   2.282 -0.2249  0.2113  0.2572
13908TIP3    H241661   1.172   1.760   2.410  0.6229  0.1424  0.6931
13909TIP3   OH241662   8.369   6.442   1.298  0.2213  0.4891  0.4695
13909TIP3    H141663   8.425   6.399   1.233 -1.1079  0.6593 -0.8284
13909TIP3    H241664   8.399   6.407   1.382 -0.0993 -2.1738 -0.4611
13910TIP3   OH241665   1.867   2.125   2.312 -0.4086  0.6838  0.2675
13910TIP3    H141666   1.913   2.204   2.283 -1.6819  1.5307  0.5290
13910TIP3    H241667   1.933   2.076   2.361  0.3100  1.7287  0.3713
13911TIP3   OH241668   1.411   1.288   0.564  0.3144  0.4246  0.3694
13911TIP3    H141669   1.481   1.301   0.501 -1.0169  1.9436 -0.8558
13911TIP3    H241670   1.407   1.193   0.577  1.4286  0.1953 -0.8707
13912TIP3   OH241671   1.346   1.789   1.540 -0.2732 -0.8939 -0.1531
13912TIP3    H141672   1.326   1.696   1.542 -0.1647 -0.9629 -1.5285
13912TIP3    H241673   1.288   1.828   1.605  0.2232 -2.0137  0.9733
13913TIP3   OH241674   1.092   1.776   2.582  0.3808  0.8094 -0.0188
13913TIP3    H141675   1.073   1.867   2.561  1.0351  0.9312 -0.0950
13913TIP3    H241676   1.091   1.772   2.678 -1.0638  0.5883 -0.0409
13914TIP3   OH241677   8.048   0.385   1.272  0.3093 -0.0193 -0.8130
13914TIP3    H141678   8.090   0.369   1.188 -0.3334 -1.1520 -0.9362
13914TIP3    H241679   8.096   0.458   1.310  1.3252 -0.2332 -1.6673
13915TIP3   OH241680   1.987   2.329   0.892 -0.0555 -0.9289  0.1640
13915TIP3    H141681   2.082   2.333   0.904  0.7222 -0.0135 -5.0001
13915TIP3    H241682   1.958   2.420   0.897 -0.1433 -0.8537 -1.5070
13916TIP3   OH241683   1.289   2.771   2.071 -0.2464 -0.0338  0.3068
13916TIP3    H141684   1.361   2.785   2.133 -1.3206  0.9859  1.3604
13916TIP3    H241685   1.324   2.708   2.007  0.8850 -1.1003  1.9312
13917TIP3   OH241686   6.991   0.446   0.953 -0.5722  0.5906  0.1253
13917TIP3    H141687   7.082   0.466   0.976 -0.4991  1.5550 -0.9845
13917TIP3    H241688   6.993   0.355   0.922  0.1874  0.9611 -0.9037
13918TIP3   OH241689   4.697   3.295   6.569  0.3648 -0.6141  0.0814
13918TIP3    H141690   4.604   3.300   6.550  0.0740  0.3025  1.6202
13918TIP3    H241691   4.739   3.343   6.497 -0.6634  2.4567  1.4104
13919TIP3   OH241692   2.215   1.955   1.624  0.4081  0.4086 -0.0546
13919TIP3    H141693   2.136   1.916   1.661  0.0684  2.3842  1.3853
13919TIP3    H241694   2.199   1.957   1.529  0.0246 -1.9594 -0.0594
13920TIP3   OH241695   0.168   6.182   0.068  1.1684  0.0950  0.2784
13920TIP3    H141696   0.161   6.190   0.163  1.3166  0.1701  0.2836
13920TIP3    H241697   0.262   6.187   0.050  1.2953 -1.7992  0.2905
13921TIP3   OH241698   1.972   2.525   1.714 -0.0057  0.3477  1.0399
13921TIP3    H141699   1.995   2.493   1.801 -0.6984 -1.5113  0.5535
13921TIP3    H241700   1.877   2.537   1.717  0.0919  1.2379  0.8379
13922TIP3   OH241701   7.733   1.788   1.191 -0.0883 -0.0430 -0.3716
13922TIP3    H141702   7.761   1.874   1.159  1.2523 -1.2114 -2.5412
13922TIP3    H241703   7.786   1.726   1.141  0.9613 -2.0925  3.1088
13923TIP3   OH241704   3.295   5.240   5.768  0.0825 -0.4194  0.3959
13923TIP3    H141705   3.206   5.231   5.802 -0.5990 -1.8765 -1.6819
13923TIP3    H241706   3.350   5.200   5.835 -1.0723 -1.6967  0.6214
13924TIP3   OH241707   8.241   2.530   2.311  0.8143 -0.4041 -0.4709
13924TIP3    H141708   8.146   2.525   2.318  0.7842  0.2857 -0.3582
13924TIP3    H241709   8.263   2.618   2.343  1.5390 -0.7813  0.0804
13925TIP3   OH241710   4.256   4.477   6.702 -0.5339  0.1628  0.3783
13925TIP3    H141711   4.237   4.570   6.710 -0.1326  0.4916 -2.2347
13925TIP3    H241712   4.215   4.451   6.620  0.8758 -1.5602  0.1924
13926TIP3   OH241713   3.313   4.030   5.542 -0.3374  0.2578  0.1489
13926TIP3    H141714   3.252   4.058   5.474 -1.5775 -0.1899  1.0675
13926TIP3    H241715   3.332   3.939   5.522  1.0989  0.7647 -0.9087
13927TIP3   OH241716   7.240   0.957   1.271  0.0426  0.0768 -0.4225
13927TIP3    H141717   7.207   0.961   1.181  0.0907 -1.3869 -0.5224
13927TIP3    H241718   7.166   0.925   1.322  1.0217 -2.4438 -0.5185
13928TIP3   OH241719   7.699   0.657   1.114 -0.2181  0.1588  0.5633
13928TIP3    H141720   7.726   0.628   1.028  1.6276  0.9181  0.8732
13928TIP3    H241721   7.745   0.600   1.175  0.3812  1.1862  1.0902
13929TIP3   OH241722   8.201   1.114   0.313 -0.5425 -0.5223 -0.0271
13929TIP3    H141723   8.112   1.104   0.278 -0.1622 -0.9256 -0.9009
13929TIP3    H241724   8.253   1.052   0.263  0.3202  0.0470  0.1595
13930TIP3   OH241725   4.239   4.749   6.763 -0.0410 -0.3278  0.2896
13930TIP3    H141726   4.307   4.799   6.809  0.0058 -0.4323  0.3346
13930TIP3    H241727   4.158   4.771   6.809 -0.0797  0.0275  0.0449
13931TIP3   OH241728   2.059   0.816   1.690  0.4557  0.0016  0.0042
13931TIP3    H141729   2.035   0.909   1.687  1.1215  0.1243 -2.6487
13931TIP3    H241730   1.975   0.770   1.685  0.2975  0.4786 -2.9611
13932TIP3   OH241731   1.100   2.349   0.956 -0.4339  0.1738 -0.0742
13932TIP3    H141732   1.031   2.337   1.021  0.0295 -2.4287 -0.0416
13932TIP3    H241733   1.169   2.396   1.003 -1.7935  2.0317  0.1274
13933TIP3   OH241734   0.610   0.479   0.321  0.3041 -0.2406 -0.0940
13933TIP3    H141735   0.530   0.532   0.318  0.0762 -0.6474 -2.3139
13933TIP3    H241736   0.594   0.414   0.389 -1.0177  0.0411 -0.1331
13934TIP3   OH241737   1.477   1.491   3.066 -0.0290  0.2376 -0.0376
13934TIP3    H141738   1.563   1.468   3.031 -0.0869 -2.7483  1.5995
13934TIP3    H241739   1.420   1.492   2.989  0.4643 -3.1746 -0.5395
13935TIP3   OH241740   5.301   7.135   1.055 -0.3757  0.3189  0.1563
13935TIP3    H141741   5.222   7.135   1.000 -0.3214 -0.6092  0.0836
13935TIP3    H241742   5.360   7.197   1.011 -0.6848  0.2650 -0.3393
13936TIP3   OH241743   7.799   1.796   1.705  0.1081  0.1991 -0.8021
13936TIP3    H141744   7.724   1.793   1.764  1.4512 -1.6221  0.8685
13936TIP3    H241745   7.761   1.809   1.618 -2.1514 -0.9797 -0.0159
13937TIP3   OH241746   7.297   0.943   1.006 -0.2058 -0.8748  0.2104
13937TIP3    H141747   7.318   0.893   0.927  1.2136 -0.0209  0.0401
13937TIP3    H241748   7.375   0.996   1.022 -1.4057  0.7286  0.8206
13938TIP3   OH241749   5.975   7.346   1.054  0.4570  0.4104 -0.0965
13938TIP3    H141750   5.909   7.291   1.012  1.7640 -0.5564 -0.9105
13938TIP3    H241751   5.991   7.417   0.991  0.4486  0.4531 -0.0504
13939TIP3   OH241752   1.075   0.145   0.776 -0.2523 -0.2706 -0.1429
13939TIP3    H141753   1.035   0.080   0.720 -0.7242  1.3718 -1.7641
13939TIP3    H241754   1.129   0.095   0.837  0.9246 -2.0595 -2.5867
13940TIP3   OH241755   6.854   0.379   0.587  0.3107  0.1403  0.0008
13940TIP3    H141756   6.789   0.373   0.657  1.1977  1.4213  0.9737
13940TIP3    H241757   6.927   0.427   0.627  1.0355  0.4462 -1.6582
13941TIP3   OH241758   0.231   1.455   1.867  0.1081 -0.4467  0.2151
13941TIP3    H141759   0.151   1.422   1.825  1.4142 -2.1241 -1.0210
13941TIP3    H241760   0.201   1.490   1.950 -2.0760 -0.0904 -0.6748
13942TIP3   OH241761   3.840   4.116   6.904  0.5071  0.0480  0.2108
13942TIP3    H141762   3.776   4.108   6.975 -0.7307 -0.0191 -0.8889
13942TIP3    H241763   3.891   4.194   6.926 -0.8835  0.9280  0.3986
13943TIP3   OH241764   0.931   0.662   1.616  0.2759  0.1451  0.1760
13943TIP3    H141765   1.008   0.719   1.612 -0.9739  1.8901  0.4796
13943TIP3    H241766   0.928   0.631   1.706 -0.9508  2.3492  0.9330
13944TIP3   OH241767   1.357   1.155   1.512  0.6058 -0.3664 -0.0995
13944TIP3    H141768   1.391   1.216   1.446  1.0473 -2.0154 -1.4383
13944TIP3    H241769   1.301   1.095   1.463 -1.4939  0.1887  1.5370
13945TIP3   OH241770   7.181   1.529   0.419  0.0007  0.4681 -0.2912
13945TIP3    H141771   7.125   1.452   0.420  0.6040  0.0236 -0.4646
13945TIP3    H241772   7.258   1.502   0.370  0.0375  1.3106 -0.7070
13946TIP3   OH241773   5.946   0.085   1.361 -0.0249 -0.3319 -0.0177
13946TIP3    H141774   5.977   0.168   1.325 -0.9667  0.1165  0.2011
13946TIP3    H241775   5.969   0.020   1.294  0.1941  0.1847 -0.4473
13947TIP3   OH241776   3.865   0.695   1.632 -0.6382 -0.1230 -0.2321
13947TIP3    H141777   3.902   0.777   1.600  1.1783 -0.7766  0.1409
13947TIP3    H241778   3.802   0.669   1.564 -0.4830  1.0548 -0.8337
13948TIP3   OH241779   3.531   1.728   2.574 -0.3044  0.2466 -0.2902
13948TIP3    H141780   3.479   1.661   2.618 -0.2850  0.8021  0.5859
13948TIP3    H241781   3.620   1.715   2.608 -0.1156  0.1130 -0.8280
13949TIP3   OH241782   1.132   1.095   0.776 -0.3423  0.4697  0.0116
13949TIP3    H141783   1.176   1.093   0.691  0.1287 -0.0373  0.2696
13949TIP3    H241784   1.090   1.010   0.784 -0.2431  0.4534  0.3663
13950TIP3   OH241785   0.056   1.409   1.473 -0.3926  0.3378  0.0592
13950TIP3    H141786   0.039   1.410   1.567 -3.2852 -1.0300 -0.3825
13950TIP3    H241787   0.025   1.495   1.443 -1.9312 -0.2128  0.0113
13951TIP3   OH241788   2.561   1.197   1.816 -0.0088  1.1149 -0.4447
13951TIP3    H141789   2.643   1.149   1.815 -0.1517  0.8786 -0.7437
13951TIP3    H241790   2.510   1.160   1.744 -0.1143  1.7176 -0.6867
13952TIP3   OH241791   2.485   1.078   4.453  0.0216 -0.8967 -0.1597
13952TIP3    H141792   2.406   1.130   4.468 -0.6363 -1.9380  0.0388
13952TIP3    H241793   2.473   1.042   4.365 -0.4550 -2.3201  0.4871
13953TIP3   OH241794   0.100   3.291   0.992  0.2539 -0.4200  0.6808
13953TIP3    H141795   0.109   3.217   0.931 -0.2712  0.1446 -0.1071
13953TIP3    H241796   0.005   3.307   0.995  0.3292 -0.0717  1.2083
13954TIP3   OH241797   3.099   1.460   0.731 -0.0140 -0.1780 -0.1304
13954TIP3    H141798   3.060   1.474   0.817 -0.8195 -0.7803 -0.3875
13954TIP3    H241799   3.145   1.542   0.712 -0.1679  0.1075  0.6902
13955TIP3   OH241800   1.320   0.829   0.816 -0.1631  0.2738 -0.9115
13955TIP3    H141801   1.344   0.785   0.734  0.9104  0.6081 -0.7821
13955TIP3    H241802   1.391   0.809   0.876 -0.9231  0.0732 -0.0658
13956TIP3   OH241803   0.808   3.938   0.979  0.1169 -0.1402  0.5291
13956TIP3    H141804   0.880   3.909   0.922 -0.2565  1.9613 -1.0959
13956TIP3    H241805   0.762   3.857   1.001  1.3610 -1.2263 -0.6630
13957TIP3   OH241806   3.603   1.986   0.976  0.0132 -0.7193 -0.0696
13957TIP3    H141807   3.668   1.938   1.027 -1.3408 -0.9991  1.4235
13957TIP3    H241808   3.593   1.936   0.895  1.5254 -0.7489 -0.2590
13958TIP3   OH241809   1.809   0.148   0.152  0.1686  0.3176  0.3691
13958TIP3    H141810   1.845   0.172   0.066  0.3700 -0.5470  0.2076
13958TIP3    H241811   1.723   0.112   0.132  0.4885 -0.5096  0.4624
13959TIP3   OH241812   5.335   6.905   6.169  0.2234 -0.2349 -0.4351
13959TIP3    H141813   5.315   6.861   6.086  0.9045 -0.7648 -0.3173
13959TIP3    H241814   5.249   6.928   6.205 -0.0377  0.9677 -1.8083
13960TIP3   OH241815   1.787   0.853   1.418  0.3116  0.3843 -0.2746
13960TIP3    H141816   1.870   0.863   1.372  0.2192  1.6883 -0.1646
13960TIP3    H241817   1.805   0.788   1.486  1.6854  1.8159  0.7770
13961TIP3   OH241818   1.404   1.704   2.602 -0.1154 -0.1423 -0.1007
13961TIP3    H141819   1.439   1.793   2.602 -0.2271 -0.0807 -2.1516
13961TIP3    H241820   1.326   1.709   2.547 -0.9027 -1.2221  0.8972
13962TIP3   OH241821   0.976   0.313   1.353  0.0229 -0.2226  0.4278
13962TIP3    H141822   1.045   0.299   1.417  1.3891 -0.0854 -0.9867
13962TIP3    H241823   1.007   0.385   1.298 -1.4229  0.1198  0.0272
13963TIP3   OH241824   3.507   1.271   0.179  0.0114 -0.3234 -0.0263
13963TIP3    H141825   3.503   1.226   0.095  0.2167 -1.1240  0.3856
13963TIP3    H241826   3.561   1.348   0.163 -0.6307 -0.0320 -0.8237
13964TIP3   OH241827   1.850   0.077   0.706  0.5104  0.2469 -0.0033
13964TIP3    H141828   1.793   0.150   0.683 -0.0190 -0.1641 -0.0262
13964TIP3    H241829   1.910   0.112   0.772  1.0918  1.0383 -0.9396
13965TIP3   OH241830   8.121   6.907   1.066 -0.6582  0.2541  0.2098
13965TIP3    H141831   8.174   6.863   1.000  0.2309 -1.8212  2.2343
13965TIP3    H241832   8.036   6.922   1.023  0.9111  1.9090 -2.4250
13966TIP3   OH241833   2.906   4.669   6.260 -0.1899  0.0863  0.8671
13966TIP3    H141834   2.920   4.739   6.323  1.6906  0.3374  0.1997
13966TIP3    H241835   2.967   4.600   6.286 -0.1335 -0.2195 -0.0553
13967TIP3   OH241836   0.768   2.674   0.888 -0.1946 -0.3667  0.0697
13967TIP3    H141837   0.673   2.668   0.875 -0.3036 -2.0254  1.5211
13967TIP3    H241838   0.779   2.685   0.982  0.9537  3.0380 -0.3746
13968TIP3   OH241839   2.277   3.059   1.548  0.3520 -0.0975  0.2279
13968TIP3    H141840   2.261   3.153   1.561 -0.5073 -0.2852  0.5584
13968TIP3    H241841   2.298   3.026   1.636  2.1902  0.0607 -0.1261
13969TIP3   OH241842   1.727   0.902   0.455 -0.0481 -0.7525  0.3557
13969TIP3    H141843   1.760   0.978   0.502 -0.8948  0.9451 -1.6993
13969TIP3    H241844   1.667   0.859   0.517  0.6975  0.0510  1.6449
13970TIP3   OH241845   2.889   1.332   6.247  0.1381  0.1419  0.6809
13970TIP3    H141846   2.975   1.301   6.216  0.1804  0.6712  0.2666
13970TIP3    H241847   2.903   1.424   6.267 -1.0795  1.0193 -2.3039
13971TIP3   OH241848   0.025   2.113   1.987  0.6383  0.1317 -0.3026
13971TIP3    H141849   0.023   2.176   2.060  2.1572 -0.7198  0.4977
13971TIP3    H241850  -0.010   2.162   1.913  1.4575  1.8208  0.3908
13972TIP3   OH241851   6.165   0.603   2.097  0.0139  0.5910 -0.1440
13972TIP3    H141852   6.150   0.536   2.031 -0.3485 -0.1909  0.7184
13972TIP3    H241853   6.256   0.589   2.124 -0.3394 -0.1560  0.6884
13973TIP3   OH241854   2.328   3.405   0.170  0.2314  0.4106 -0.2016
13973TIP3    H141855   2.324   3.493   0.206 -1.6251 -0.5899  2.2209
13973TIP3    H241856   2.420   3.379   0.180  0.7596  2.0166 -0.8395
13974TIP3   OH241857   8.483   1.373   1.764  0.0974  0.2471 -0.1291
13974TIP3    H141858   8.437   1.298   1.725 -1.2844  0.0806  1.7580
13974TIP3    H241859   8.416   1.441   1.770  1.1164  1.3408 -0.9653
13975TIP3   OH241860   1.163   0.319   4.605  0.9073  0.3404  0.3468
13975TIP3    H141861   1.236   0.378   4.623  0.4720  0.6520  1.1048
13975TIP3    H241862   1.099   0.374   4.560  0.8390  0.2486  0.3319
13976TIP3   OH241863   8.478   7.243   0.227  0.0540  0.0081 -0.0848
13976TIP3    H141864   8.514   7.170   0.177  1.3111  1.2797 -1.0771
13976TIP3    H241865   8.408   7.278   0.172 -0.1574 -0.0774  0.1268
13977TIP3   OH241866   2.786   0.397   0.441  0.5912 -0.3864 -0.5374
13977TIP3    H141867   2.701   0.368   0.407 -0.2645  1.8184 -0.3666
13977TIP3    H241868   2.804   0.339   0.515 -0.8289 -0.7747 -0.4939
13978TIP3   OH241869   1.808   1.485   3.161 -0.5458 -0.3866 -0.2000
13978TIP3    H141870   1.856   1.408   3.133 -1.5446 -1.1079  0.0175
13978TIP3    H241871   1.771   1.461   3.246  0.0196  0.7182  0.3727
13979TIP3   OH241872   1.065   0.253   2.686  0.7830  0.4955  0.1136
13979TIP3    H141873   1.034   0.290   2.603 -0.3610 -0.1378  0.2549
13979TIP3    H241874   0.993   0.198   2.716  1.2103  0.7058  1.5298
13980TIP3   OH241875   7.475   6.166   0.577  0.6610 -0.9093 -0.8097
13980TIP3    H141876   7.522   6.107   0.637  0.7531  0.7521  0.7954
13980TIP3    H241877   7.542   6.227   0.547 -0.1133  0.5402  0.3090
13981TIP3   OH241878   5.842   4.374   6.749 -0.0579 -0.6573  0.1972
13981TIP3    H141879   5.792   4.319   6.689  1.3275 -0.5682 -1.0759
13981TIP3    H241880   5.899   4.313   6.796 -0.9691 -0.6980  1.2692
13982TIP3   OH241881   3.635   3.763   6.704  0.1686 -0.3909 -0.9489
13982TIP3    H141882   3.670   3.851   6.722 -0.4895 -0.0468 -1.3443
13982TIP3    H241883   3.549   3.779   6.666 -0.6207 -1.2444  0.4514
13983TIP3   OH241884   7.451   6.660   0.460 -0.1117  0.4314  0.4389
13983TIP3    H141885   7.421   6.726   0.397 -0.4582  0.7534  0.9467
13983TIP3    H241886   7.475   6.585   0.405 -3.7598 -0.6154  0.1426
13984TIP3   OH241887   6.383   7.357   1.775 -0.3346 -0.4511  0.5699
13984TIP3    H141888   6.403   7.296   1.705 -1.1838  0.0687 -0.1337
13984TIP3    H241889   6.305   7.322   1.817 -1.1375  0.4065 -0.1724
13985TIP3   OH241890   1.545   4.493   0.914 -0.1733  0.2663  0.4079
13985TIP3    H141891   1.568   4.586   0.921 -1.5221  0.5883  0.6230
13985TIP3    H241892   1.553   4.459   1.003 -1.0297  0.4971  0.5728
13986TIP3   OH241893   0.177   3.550   0.821  0.2486 -0.0235 -0.0376
13986TIP3    H141894   0.117   3.484   0.858 -0.6294  1.4812  1.3036
13986TIP3    H241895   0.202   3.603   0.897 -0.2182  2.0867 -1.3477
13987TIP3   OH241896   1.859   2.074   1.773 -0.4435  0.2189  0.1036
13987TIP3    H141897   1.809   2.156   1.777  0.5521  0.8371  0.1687
13987TIP3    H241898   1.911   2.075   1.853  1.4680  0.7602 -1.1240
13988TIP3   OH241899   2.990   2.015   1.561 -0.5266 -0.4382 -0.3035
13988TIP3    H141900   2.907   1.997   1.518  0.6230 -0.6811 -2.4924
13988TIP3    H241901   2.981   1.976   1.648 -2.3339 -1.3031 -0.8496
13989TIP3   OH241902   5.772   3.897   5.950 -0.2070  0.2347  0.3190
13989TIP3    H141903   5.860   3.931   5.970  0.0808  0.3153 -1.0458
13989TIP3    H241904   5.787   3.834   5.879 -1.1159 -0.5667  0.8292
13990TIP3   OH241905   0.693   3.939   1.987 -0.8881  0.2881  0.2555
13990TIP3    H141906   0.693   4.023   2.033 -1.3875  0.4472 -0.0289
13990TIP3    H241907   0.760   3.949   1.919  0.6144 -0.3277  1.6132
13991TIP3   OH241908   6.477   4.579   6.818  0.0196  1.0170  0.2036
13991TIP3    H141909   6.419   4.577   6.741 -1.8270  2.3307  1.5194
13991TIP3    H241910   6.564   4.563   6.782 -1.2690 -2.2245 -1.6836
13992TIP3   OH241911   8.102   7.583   0.734  0.1886  0.0979  0.4873
13992TIP3    H141912   8.127   7.650   0.670  1.0026 -1.5250 -0.9542
13992TIP3    H241913   8.163   7.511   0.717 -0.2407 -0.7514  2.4441
13993TIP3   OH241914   3.236   0.940   1.513  0.1632  0.2878  0.2041
13993TIP3    H141915   3.144   0.964   1.527  0.1306 -0.4754  1.3643
13993TIP3    H241916   3.277   1.020   1.480 -1.2573  0.1947 -1.8701
13994TIP3   OH241917   1.163   0.828   1.860 -0.3425  0.4050  0.7578
13994TIP3    H141918   1.163   0.740   1.897  1.5442 -0.2456 -0.7414
13994TIP3    H241919   1.234   0.873   1.906  0.0579  0.4939  0.0615
13995TIP3   OH241920   5.944   4.891   6.849 -0.0368  0.7135  0.2154
13995TIP3    H141921   5.966   4.980   6.821 -1.1215  1.1058  0.5785
13995TIP3    H241922   5.851   4.895   6.872 -0.2720 -0.6888 -0.4323
13996TIP3   OH241923   3.320   3.612   1.090  0.0745 -0.1585  0.2002
13996TIP3    H141924   3.314   3.624   1.184  0.3458 -1.9324  0.4611
13996TIP3    H241925   3.334   3.700   1.055  1.7281  0.3121  1.9645
13997TIP3   OH241926   5.682   7.988   5.067  0.0061  0.2464  0.0789
13997TIP3    H141927   5.749   7.956   5.006 -1.9541 -1.1726 -1.3703
13997TIP3    H241928   5.708   7.950   5.152  0.0334 -1.8533 -0.8251
13998TIP3   OH241929   7.091   6.595   0.848  0.8470  0.0097 -0.5459
13998TIP3    H141930   7.058   6.519   0.801  0.0359 -1.0957  1.7475
13998TIP3    H241931   7.121   6.655   0.779 -1.2879 -1.0897 -2.4908
13999TIP3   OH241932   7.051   6.123   0.796  0.5749 -0.4939 -0.8098
13999TIP3    H141933   7.057   6.175   0.876 -0.4963 -2.8109  0.8431
13999TIP3    H241934   6.989   6.171   0.741 -0.7142 -0.1962  0.8517
14000TIP3   OH241935   2.708   1.625   0.898 -0.9412  0.4749  0.7490
14000TIP3    H141936   2.693   1.691   0.966 -2.1785  1.7123 -0.6819
14000TIP3    H241937   2.662   1.659   0.822  0.5453 -0.8182 -0.7642
14001TIP3   OH241938   3.353   0.878   0.511  0.7865 -0.1223  0.2522
14001TIP3    H141939   3.356   0.898   0.418 -0.9106  2.7546  0.7696
14001TIP3    H241940   3.401   0.950   0.553 -0.5800 -0.0683  1.7759
14002TIP3   OH241941   3.348   6.703   6.624  0.3249 -0.3512  0.3250
14002TIP3    H141942   3.308   6.755   6.555  1.7409 -0.0378 -0.2846
14002TIP3    H241943   3.383   6.767   6.686  1.5157 -0.5568 -0.1074
14003TIP3   OH241944   2.445   1.384   0.604 -0.0672 -0.9467 -0.0184
14003TIP3    H141945   2.365   1.435   0.593  0.2303 -0.4679  0.0069
14003TIP3    H241946   2.441   1.352   0.694  0.1698 -0.2153  0.2617
14004TIP3   OH241947   3.671   2.978   0.921  0.3598 -0.1268  0.5893
14004TIP3    H141948   3.632   3.010   1.003  0.6582 -0.6895  0.9562
14004TIP3    H241949   3.678   2.883   0.934 -1.3693 -0.4854 -0.8361
14005TIP3   OH241950   1.628   1.263   3.219 -0.1840 -0.3404  0.9002
14005TIP3    H141951   1.541   1.303   3.230  0.0082  0.1990  0.4615
14005TIP3    H241952   1.640   1.259   3.124  0.7191  0.5572  0.9691
14006TIP3   OH241953   4.453   2.638   0.904  0.1182 -0.2195  0.2291
14006TIP3    H141954   4.510   2.704   0.942 -0.9701  0.1265  1.2843
14006TIP3    H241955   4.458   2.564   0.964 -0.8345 -0.0420  0.5344
14007TIP3   OH241956   1.323   0.218   1.906 -0.0506  0.0483  0.1583
14007TIP3    H141957   1.415   0.208   1.929 -0.3130 -0.0556  1.1912
14007TIP3    H241958   1.315   0.309   1.878  0.5260 -0.1620 -0.7154
14008TIP3   OH241959   1.802   0.570   1.917  0.2979  0.1098 -0.3129
14008TIP3    H141960   1.811   0.477   1.936  3.5055 -0.2601 -3.0149
14008TIP3    H241961   1.864   0.612   1.977  0.7242  0.2100 -0.8139
14009TIP3   OH241962   1.058   0.644   2.092 -0.4441  0.2511  0.7450
14009TIP3    H141963   0.975   0.604   2.121 -0.5007  0.0137  0.2548
14009TIP3    H241964   1.111   0.647   2.172 -0.9376  0.4393  1.0735
14010TIP3   OH241965   2.313   0.266   2.003 -0.3371  0.0842 -0.1221
14010TIP3    H141966   2.265   0.183   1.996 -2.9195  1.6575 -2.4109
14010TIP3    H241967   2.381   0.260   1.936  1.4244 -1.3010  1.7078
14011TIP3   OH241968   0.682   2.489   0.564  0.2053  0.2013  0.0519
14011TIP3    H141969   0.716   2.428   0.629 -0.7113 -0.6393 -0.2553
14011TIP3    H241970   0.588   2.476   0.566  0.3415 -2.2452 -3.7907
14012TIP3   OH241971   3.849   1.748   0.604 -0.4193  0.3076 -0.2436
14012TIP3    H141972   3.896   1.819   0.560 -0.4012  0.1839 -0.4250
14012TIP3    H241973   3.808   1.790   0.679  0.5741  0.2768  0.3282
14013TIP3   OH241974   8.193   6.216   0.744  0.2366  0.4748 -0.3665
14013TIP3    H141975   8.259   6.285   0.753  0.7807  0.1879 -1.9812
14013TIP3    H241976   8.113   6.254   0.780  1.0832  1.1118  0.8726
14014TIP3   OH241977   7.421   7.168   0.627  0.2399  1.0186 -0.2445
14014TIP3    H141978   7.481   7.217   0.572 -1.2442  0.7860 -2.1571
14014TIP3    H241979   7.394   7.229   0.695  2.0401  1.3434  0.1909
14015TIP3   OH241980   3.579   1.869   0.729  0.4209  0.8852  0.3203
14015TIP3    H141981   3.606   1.794   0.781 -0.4741 -1.6251 -2.6609
14015TIP3    H241982   3.488   1.884   0.755  0.0386 -0.2323 -0.3351
14016TIP3   OH241983   2.385   0.393   2.253 -0.0721  0.2140 -0.1856
14016TIP3    H141984   2.358   0.369   2.164  0.1894  0.1344 -0.2443
14016TIP3    H241985   2.324   0.347   2.310 -0.4294  0.5083 -0.3315
14017TIP3   OH241986   4.828   6.119   5.683 -0.5593 -0.0425  0.1877
14017TIP3    H141987   4.756   6.154   5.736 -1.3450 -2.8088  1.0706
14017TIP3    H241988   4.835   6.179   5.609 -2.6819  1.2180  0.9574
14018TIP3   OH241989   4.614   6.494   6.246  0.1202 -0.2186  0.0078
14018TIP3    H141990   4.593   6.522   6.156  3.0776  0.9612 -0.3884
14018TIP3    H241991   4.681   6.427   6.235  0.9723  0.3906  1.3519
14019TIP3   OH241992   1.614   1.795   1.062 -0.4609  0.2181 -0.1798
14019TIP3    H141993   1.552   1.859   1.098  1.2920  1.7011  0.3426
14019TIP3    H241994   1.612   1.722   1.124 -1.9728  0.0621 -0.3995
14020TIP3   OH241995   1.885   1.208   0.981  0.1013  0.0189 -0.4699
14020TIP3    H141996   1.832   1.266   0.926 -0.1914 -0.2347 -0.4537
14020TIP3    H241997   1.974   1.218   0.947  0.4303  2.1765  0.9469
14021TIP3   OH241998   3.462   2.186   1.284 -0.2847 -0.5395 -0.2905
14021TIP3    H141999   3.473   2.201   1.190 -0.0905  0.5067 -0.1075
14021TIP3    H242000   3.462   2.273   1.322 -0.0181 -0.9772  0.7250
14022TIP3   OH242001   4.015   1.326   0.373  0.1078 -0.3251  0.0254
14022TIP3    H142002   4.058   1.390   0.429 -1.4229  2.2209 -1.6349
14022TIP3    H242003   3.966   1.270   0.433  2.5122 -0.8032  1.6025
14023TIP3   OH242004   7.811   4.946   5.731 -0.0035 -0.0502 -0.3594
14023TIP3    H142005   7.747   4.970   5.664  1.3693  0.7623 -1.4030
14023TIP3    H242006   7.858   4.872   5.693 -0.4774 -0.8112  0.5118
14024TIP3   OH242007   3.216   0.566   1.076 -0.3284  0.0672 -0.4973
14024TIP3    H142008   3.274   0.609   1.014  1.7841 -2.7136 -0.5618
14024TIP3    H242009   3.268   0.556   1.156 -1.3295 -0.8492  0.0608
14025TIP3   OH242010   4.708   6.357   5.141 -0.1373 -0.2389 -0.0376
14025TIP3    H142011   4.710   6.347   5.045 -0.0021 -2.7855  0.2149
14025TIP3    H242012   4.797   6.385   5.163  0.6016 -2.2367 -0.4042
14026TIP3   OH242013   8.442   0.797   0.551 -0.0614  0.8035 -0.1405
14026TIP3    H142014   8.439   0.875   0.494  1.8066  0.2042 -1.0837
14026TIP3    H242015   8.405   0.727   0.497  3.1166 -0.1079 -1.2288
14027TIP3   OH242016   3.298   1.966   1.292 -0.0348  0.3478 -0.8951
14027TIP3    H142017   3.335   2.052   1.311 -0.4893 -0.1107  2.3663
14027TIP3    H242018   3.373   1.912   1.269  0.7476  0.6613  0.8746
14028TIP3   OH242019   7.336   7.613   1.392  0.2037  0.4473  0.0500
14028TIP3    H142020   7.269   7.672   1.357  0.8605  0.6008 -0.9640
14028TIP3    H242021   7.287   7.536   1.421 -0.5371  1.0317  0.3699
14029TIP3   OH242022   5.411   5.413   6.684  0.5692  0.0281 -0.1025
14029TIP3    H142023   5.488   5.463   6.711 -1.6175  3.3538  0.3027
14029TIP3    H242024   5.386   5.363   6.762  0.9644  0.7322  0.4811
14030TIP3   OH242025   2.976   1.574   0.932 -0.1763 -0.3655 -0.3808
14030TIP3    H142026   2.989   1.591   1.025 -0.4267 -0.6274 -0.2957
14030TIP3    H242027   2.880   1.569   0.922 -0.1112 -2.0244 -0.3484
14031TIP3   OH242028   7.557   6.414   0.363  0.3133  0.4276  0.4501
14031TIP3    H142029   7.625   6.442   0.426  0.8042 -1.3840  0.7471
14031TIP3    H242030   7.605   6.399   0.282  0.4026 -1.5519  0.8525
14032TIP3   OH242031   0.297   0.924   0.111  0.3985 -0.1417  0.2369
14032TIP3    H142032   0.374   0.943   0.165  0.0616  0.7784  0.3856
14032TIP3    H242033   0.237   0.879   0.170  0.3272  0.2206  0.4413
14033TIP3   OH242034   2.092   2.633   0.611 -0.0413 -0.0259 -0.5359
14033TIP3    H142035   2.119   2.587   0.691 -1.2553  0.1971  0.0118
14033TIP3    H242036   2.050   2.713   0.643  0.7010  0.7389 -1.4432
14034TIP3   OH242037   2.739   1.420   3.436  0.2125  0.1291 -0.2244
14034TIP3    H142038   2.770   1.333   3.461  1.0434  0.3857 -0.3325
14034TIP3    H242039   2.693   1.453   3.514 -0.0340 -0.3775 -0.1583
14035TIP3   OH242040   2.729   2.017   0.282  0.4585 -0.1164 -0.0363
14035TIP3    H142041   2.669   1.943   0.281  1.5164 -0.9737 -1.2073
14035TIP3    H242042   2.774   2.011   0.366  1.4878 -1.5909 -0.6721
14036TIP3   OH242043   2.591   3.166   1.958  0.3584 -0.4758 -0.1511
14036TIP3    H142044   2.673   3.217   1.958 -0.4458  0.8575 -1.3385
14036TIP3    H242045   2.584   3.133   1.869  0.3377 -1.8186  0.3488
14037TIP3   OH242046   1.709   1.537   0.678  0.6229 -0.2193 -0.0786
14037TIP3    H142047   1.680   1.611   0.731 -3.0841 -1.2589 -0.4814
14037TIP3    H242048   1.648   1.536   0.604  2.5023 -1.8750 -1.6628
14038TIP3   OH242049   2.931   1.068   2.202 -0.6633  0.2716 -0.1470
14038TIP3    H142050   3.002   1.008   2.178 -1.3684 -0.6403  0.0401
14038TIP3    H242051   2.971   1.155   2.196  0.2552 -0.1846 -0.7993
14039TIP3   OH242052   5.568   6.493   6.364 -0.1766  0.1047 -0.2663
14039TIP3    H142053   5.637   6.558   6.356  0.0501 -0.0022  0.7283
14039TIP3    H242054   5.486   6.543   6.357 -0.0107  0.5756  0.9940
14040TIP3   OH242055   2.775   4.248   1.916 -0.7599  0.1088  0.4492
14040TIP3    H142056   2.767   4.165   1.870 -2.2406 -0.9060  2.4558
14040TIP3    H242057   2.868   4.254   1.940 -0.7657 -1.2740  0.8412
14041TIP3   OH242058   3.572   1.486   3.108  0.5973  0.2624 -0.3222
14041TIP3    H142059   3.558   1.402   3.153  0.5368  0.5115  0.1274
14041TIP3    H242060   3.610   1.543   3.175 -1.7010  1.3499  0.0943
14042TIP3   OH242061   8.097   2.036   1.582  0.1291  0.1278 -0.4357
14042TIP3    H142062   8.067   2.072   1.666  2.4542  0.3502  0.3322
14042TIP3    H242063   8.085   1.942   1.591  1.9496 -0.0180  0.8510
14043TIP3   OH242064   2.903   1.671   2.561  0.4267 -0.1140  0.3379
14043TIP3    H142065   2.940   1.742   2.614 -0.8447 -0.2089  1.3898
14043TIP3    H242066   2.924   1.694   2.471  0.2511  1.4682  0.6896
14044TIP3   OH242067   1.331   2.016   2.034 -0.4562 -0.2951  0.2456
14044TIP3    H142068   1.275   2.093   2.046  1.3089  1.1667 -0.6106
14044TIP3    H242069   1.384   2.013   2.114 -0.2692 -0.4133  0.1159
14045TIP3   OH242070   3.174   0.980   1.848  0.3068 -0.1320 -0.1660
14045TIP3    H142071   3.219   0.993   1.931 -0.0991  2.0233 -0.2648
14045TIP3    H242072   3.086   0.951   1.872  1.0779 -2.4260  0.0600
14046TIP3   OH242073   7.752   4.766   4.809  0.4262  0.0038  0.1393
14046TIP3    H142074   7.810   4.705   4.763  1.3984  0.4312  0.7796
14046TIP3    H242075   7.746   4.730   4.898 -0.1186  0.0833  0.1369
14047TIP3   OH242076   1.767   0.094   1.531  0.0067  0.5343 -0.0520
14047TIP3    H142077   1.723   0.057   1.608 -0.0217 -0.5210 -0.5618
14047TIP3    H242078   1.783   0.018   1.474  0.5745  1.2181 -0.8134
14048TIP3   OH242079   7.937   7.118   2.140  0.5311  0.3418 -0.2060
14048TIP3    H142080   7.980   7.078   2.064  1.3185 -0.5837  0.6955
14048TIP3    H242081   8.009   7.139   2.200 -0.1815 -0.3974  0.9485
14049TIP3   OH242082   3.431   1.554   1.578 -0.3440  0.1876 -0.0525
14049TIP3    H142083   3.470   1.602   1.505 -0.6832 -0.4202 -0.6330
14049TIP3    H242084   3.443   1.612   1.654 -0.5514  1.0973 -0.7024
14050TIP3   OH242085   5.392   5.759   5.563 -0.4180 -0.0273  0.3458
14050TIP3    H142086   5.311   5.750   5.513 -0.0227 -0.7197 -0.1894
14050TIP3    H242087   5.432   5.839   5.529 -0.6571  0.0671  0.2870
14051TIP3   OH242088   8.092   5.468   0.345 -0.0224 -0.0346 -0.3146
14051TIP3    H142089   8.127   5.402   0.285 -1.0158 -0.8684  0.0083
14051TIP3    H242090   8.049   5.418   0.414 -1.6965  0.9510 -0.6105
14052TIP3   OH242091   5.824   5.082   6.450 -0.2916 -0.7802  0.5548
14052TIP3    H142092   5.798   5.174   6.454  1.0872 -0.3373 -0.0721
14052TIP3    H242093   5.896   5.075   6.513  1.1634 -0.8605 -1.0772
14053TIP3   OH242094   5.777   5.708   1.143 -0.0876  0.1460  0.0065
14053TIP3    H142095   5.844   5.641   1.128  1.3111  1.4378  0.4498
14053TIP3    H242096   5.745   5.729   1.055 -0.9060 -1.4764 -0.0924
14054TIP3   OH242097   1.664   2.047   0.685 -0.9251  0.5599  0.0708
14054TIP3    H142098   1.661   2.084   0.597 -0.0520 -0.4992 -0.4078
14054TIP3    H242099   1.756   2.023   0.698 -1.0482  0.6939  1.2687
14055TIP3   OH242100   4.732   4.982   5.904  0.1254  0.2502 -0.6010
14055TIP3    H142101   4.729   4.887   5.902  0.8728  0.1602  1.2548
14055TIP3    H242102   4.814   5.002   5.950  0.4457  1.8022 -1.7977
14056TIP3   OH242103   7.581   2.561   0.753  0.5526  0.4523  0.7841
14056TIP3    H142104   7.650   2.522   0.698  0.4204  0.4360  0.6303
14056TIP3    H242105   7.577   2.652   0.725 -0.4817  0.1101 -0.2065
14057TIP3   OH242106   6.588   3.441   1.628 -0.1858 -0.0243  0.4521
14057TIP3    H142107   6.532   3.511   1.595  0.8484  0.9006  0.6287
14057TIP3    H242108   6.672   3.483   1.643  1.6208 -2.0824 -3.0912
14058TIP3   OH242109   1.436   1.945   2.273  0.3131  0.0002 -1.2535
14058TIP3    H142110   1.526   1.915   2.287  0.0616 -0.0625  0.2592
14058TIP3    H242111   1.382   1.874   2.308 -0.3047  0.7787 -0.6234
14059TIP3   OH242112   1.357   1.625   1.166  0.4947  0.3320  0.0251
14059TIP3    H142113   1.431   1.631   1.227  1.1226  2.2355 -0.8908
14059TIP3    H242114   1.342   1.715   1.137 -1.3973 -0.2015 -0.7594
14060TIP3   OH242115   4.983   3.624   1.526  0.5178 -0.2920  0.3914
14060TIP3    H142116   4.972   3.708   1.481 -1.4212  0.0825  1.4820
14060TIP3    H242117   5.003   3.562   1.456  1.8293  1.0503 -0.4467
14061TIP3   OH242118   1.250   0.824   2.565  0.0033 -0.0804  0.2810
14061TIP3    H142119   1.177   0.884   2.550 -2.0704 -2.1033  1.9688
14061TIP3    H242120   1.218   0.740   2.532  1.4535 -1.0569  1.3543
14062TIP3   OH242121   0.198   2.052   1.770  0.0815  0.8906 -0.6080
14062TIP3    H142122   0.149   2.078   1.848  1.3939  1.7490 -0.0545
14062TIP3    H242123   0.188   1.957   1.767 -0.0463  0.8527  0.5706
14063TIP3   OH242124   4.916   4.056   6.789  0.8817 -0.2939  0.2341
14063TIP3    H142125   4.920   4.151   6.776 -0.6239 -0.3041 -0.3092
14063TIP3    H242126   4.967   4.041   6.869  0.2511  1.1036  0.9135
14064TIP3   OH242127   0.196   7.192   0.762  0.1550  0.1648  0.3144
14064TIP3    H142128   0.165   7.232   0.681  0.5793  1.6597  0.8654
14064TIP3    H242129   0.188   7.098   0.747  0.4327  0.4099 -1.5503
14065TIP3   OH242130   6.458   7.870   1.454 -0.3662 -0.7439  0.9181
14065TIP3    H142131   6.382   7.914   1.416  0.2471 -0.1963  0.3158
14065TIP3    H242132   6.534   7.918   1.419  0.2813 -1.7146  0.9633
14066TIP3   OH242133   5.889   3.172   1.581 -0.6339  0.0838  0.1808
14066TIP3    H142134   5.889   3.255   1.533 -0.5879  0.1458  0.2864
14066TIP3    H242135   5.958   3.183   1.647 -1.7546  0.5998  1.2892
14067TIP3   OH242136   1.981   7.102   1.062 -0.2011  0.2931  0.6390
14067TIP3    H142137   1.909   7.040   1.073  0.8128 -0.9616  0.3744
14067TIP3    H242138   2.046   7.075   1.127 -0.5349  2.2771  1.8271
14068TIP3   OH242139   8.192   7.512   0.143  0.0398 -0.9046 -0.1019
14068TIP3    H142140   8.129   7.581   0.165 -0.9548 -1.9290  0.2897
14068TIP3    H242141   8.277   7.550   0.167 -0.5972 -0.2415  1.2032
14069TIP3   OH242142   3.075   0.400   2.196  0.3739 -0.6817 -0.3884
14069TIP3    H142143   3.034   0.324   2.238 -0.5607  0.3932  0.7009
14069TIP3    H242144   3.154   0.416   2.247  0.5107 -0.8677 -0.5451
14070TIP3   OH242145   7.562   4.809   6.447 -0.9689 -0.0149 -0.5400
14070TIP3    H142146   7.596   4.818   6.536 -0.9335 -3.7332 -0.1015
14070TIP3    H242147   7.639   4.788   6.394 -0.8893  2.8048 -1.6153
14071TIP3   OH242148   7.682   7.565   1.081  0.2822  0.5923 -0.0173
14071TIP3    H142149   7.617   7.636   1.084  0.6432  0.9204  0.0636
14071TIP3    H242150   7.732   7.581   1.001 -0.1464 -0.0275 -0.4144
14072TIP3   OH242151   2.282   4.478   5.866  0.3035  0.2040 -0.0740
14072TIP3    H142152   2.329   4.500   5.785  1.2086 -0.0140  0.3924
14072TIP3    H242153   2.326   4.399   5.898 -1.4306 -0.9817 -0.5107
14073TIP3   OH242154   3.097   2.521   1.636  0.7310  0.5933 -0.1372
14073TIP3    H142155   3.090   2.492   1.545  1.1954  1.2542 -0.3834
14073TIP3    H242156   3.153   2.455   1.677  1.7602  1.1049 -0.6903
14074TIP3   OH242157   3.050   2.606   4.138  0.0266 -0.3385  1.0951
14074TIP3    H142158   3.109   2.556   4.194  1.5630 -1.7137 -1.6282
14074TIP3    H242159   2.997   2.539   4.093  1.8715  0.3734 -2.3283
14075TIP3   OH242160   2.058   1.095   2.963  0.5638 -0.2447 -0.3992
14075TIP3    H142161   1.986   1.115   2.903 -0.7504  0.5370  1.3896
14075TIP3    H242162   2.025   1.023   3.017  1.0143  0.2526  0.5618
14076TIP3   OH242163   6.597   5.920   5.869  0.0181  0.0871  0.3488
14076TIP3    H142164   6.660   5.865   5.916  1.3344  1.4364  0.2250
14076TIP3    H242165   6.640   5.939   5.785 -2.1935 -2.0849 -1.3397
14077TIP3   OH242166   4.162   3.633   1.014  0.1074 -0.0515  0.3837
14077TIP3    H142167   4.180   3.565   0.949  0.8940  0.6655 -0.1536
14077TIP3    H242168   4.248   3.666   1.039 -0.3246  1.8983 -0.5909
14078TIP3   OH242169   2.311   1.158   2.366 -0.3549 -0.0019 -0.0571
14078TIP3    H142170   2.307   1.208   2.285 -1.5444 -1.1783 -0.7576
14078TIP3    H242171   2.328   1.068   2.338 -2.1955 -0.6706  0.8692
14079TIP3   OH242172   2.426   1.380   0.213 -0.2193  0.1678  0.2695
14079TIP3    H142173   2.467   1.315   0.270 -2.6435 -0.5777  1.1995
14079TIP3    H242174   2.435   1.463   0.261 -0.0048 -0.0235  0.5615
14080TIP3   OH242175   8.348   1.527   2.045 -0.5929  0.2804 -0.3007
14080TIP3    H142176   8.290   1.454   2.023 -0.7543  0.2986  0.0479
14080TIP3    H242177   8.360   1.574   1.963  0.2692 -0.6710 -0.7214
14081TIP3   OH242178   7.416   6.912   0.253 -0.2868 -0.1261 -0.5898
14081TIP3    H142179   7.356   6.987   0.247  2.4486  2.1445 -0.2796
14081TIP3    H242180   7.408   6.869   0.168 -1.1329  1.1055 -1.1485
14082TIP3   OH242181   6.500   7.993   1.696  0.6404  0.0717  0.1465
14082TIP3    H142182   6.419   8.044   1.700  0.8530  0.3575  1.2277
14082TIP3    H242183   6.491   7.938   1.619 -0.5784  0.1166  0.2496
14083TIP3   OH242184   1.674   3.670   1.211 -0.4657  0.6933  0.1811
14083TIP3    H142185   1.695   3.711   1.295 -0.1053 -0.2089  0.5357
14083TIP3    H242186   1.593   3.712   1.184 -1.3869 -0.0758  1.7053
14084TIP3   OH242187   7.895   2.010   1.383 -0.0776  0.0210  0.2255
14084TIP3    H142188   7.826   1.947   1.405  0.6466 -0.7386  0.3492
14084TIP3    H242189   7.941   2.025   1.465 -0.6450  1.2054  0.3280
14085TIP3   OH242190   4.622   0.889   2.554  0.0276  0.4971 -0.3406
14085TIP3    H142191   4.598   0.796   2.547 -0.1114  0.4494  0.6011
14085TIP3    H242192   4.712   0.888   2.586  0.7815  0.6902 -2.3783
14086TIP3   OH242193   6.194   7.165   6.046  0.4482  0.0340  1.3285
14086TIP3    H142194   6.181   7.070   6.047 -0.0798  0.0964  0.2610
14086TIP3    H242195   6.282   7.177   6.083  0.9499 -0.9417  0.4750
14087TIP3   OH242196   1.821   0.624   0.813  0.2847  0.2106  0.0821
14087TIP3    H142197   1.843   0.715   0.796  0.6126  0.4987  1.9555
14087TIP3    H242198   1.898   0.575   0.786 -0.2090  0.3885 -1.7272
14088TIP3   OH242199   2.560   1.779   0.260 -0.2743  0.3459  0.1227
14088TIP3    H142200   2.590   1.740   0.178 -1.2593 -0.0711 -0.0437
14088TIP3    H242201   2.465   1.774   0.256 -0.3113 -1.3294  2.0720
14089TIP3   OH242202   2.125   2.414   1.483  0.5888 -0.1115  0.2706
14089TIP3    H142203   2.095   2.467   1.410 -0.5431 -0.9205  0.1276
14089TIP3    H242204   2.099   2.463   1.561  0.6176  0.1095  0.1420
14090TIP3   OH242205   6.441   6.300   5.105  0.3024  0.3465  0.5794
14090TIP3    H142206   6.378   6.296   5.033  0.1398  1.4177  0.6435
14090TIP3    H242207   6.402   6.247   5.175  0.8765 -1.4249 -0.4162
14091TIP3   OH242208   1.688   1.773   3.620 -0.0363 -0.8219 -0.6132
14091TIP3    H142209   1.746   1.835   3.663 -2.5908  3.2366 -2.6125
14091TIP3    H242210   1.642   1.729   3.691  0.9910  0.4861  0.8858
14092TIP3   OH242211   3.785   2.110   0.601  0.7003 -0.0339  0.0421
14092TIP3    H142212   3.743   2.196   0.610  0.8931 -0.0322  1.0352
14092TIP3    H242213   3.725   2.060   0.545  0.2693  0.5447 -0.0226
14093TIP3   OH242214   0.231   1.257   0.449 -0.4637 -0.0714  0.3580
14093TIP3    H142215   0.166   1.303   0.397  0.3371  1.3918  0.6040
14093TIP3    H242216   0.286   1.212   0.385 -0.8226 -0.1001  0.0704
14094TIP3   OH242217   3.136   1.131   0.069  0.1634 -0.2922 -0.5907
14094TIP3    H142218   3.053   1.167   0.038 -0.1352 -1.1273 -0.7708
14094TIP3    H242219   3.155   1.180   0.149 -0.4066  0.0245 -0.6478
14095TIP3   OH242220   0.377   7.657   0.184 -0.6092  0.6641 -0.1298
14095TIP3    H142221   0.387   7.671   0.278 -0.2332  0.0753 -0.0749
14095TIP3    H242222   0.299   7.602   0.176 -0.0595 -0.1317 -0.0835
14096TIP3   OH242223   3.463   1.561   3.897  0.1291 -0.1350 -0.3839
14096TIP3    H142224   3.496   1.544   3.808  2.5264  2.1624  0.0014
14096TIP3    H242225   3.542   1.569   3.950 -1.1401  3.0705  1.0988
14097TIP3   OH242226   4.661   6.166   6.509  0.3035  0.0624 -0.2795
14097TIP3    H142227   4.609   6.173   6.589 -1.3975 -1.3968 -1.2263
14097TIP3    H242228   4.730   6.104   6.531  1.8094  2.1196  1.0314
14098TIP3   OH242229   2.409   0.554   0.544 -0.1912  0.1373  0.1387
14098TIP3    H142230   2.497   0.591   0.539 -0.9709  1.8803 -1.1066
14098TIP3    H242231   2.352   0.620   0.505 -1.9100 -1.5202 -0.2740
14099TIP3   OH242232   1.285   0.251   1.218 -0.0882  0.7067  0.6054
14099TIP3    H142233   1.279   0.187   1.290  0.7465  0.5366  0.5240
14099TIP3    H242234   1.337   0.322   1.254  1.7589 -0.1312 -0.3755
14100TIP3   OH242235   1.017   0.526   1.840 -0.5320 -0.2931  0.0062
14100TIP3    H142236   1.055   0.560   1.921  0.1406 -1.0216  0.0042
14100TIP3    H242237   0.980   0.441   1.864 -0.3868 -0.4850 -0.4281
14101TIP3   OH242238   1.609   0.866   0.901  0.3009  0.0806 -0.2789
14101TIP3    H142239   1.608   0.797   0.834  1.7198 -0.2940  0.0737
14101TIP3    H242240   1.685   0.919   0.880 -0.6136  1.3755 -0.3614
14102TIP3   OH242241   2.112   0.997   0.592 -0.1030  0.2977 -0.0267
14102TIP3    H142242   2.069   1.057   0.530 -0.7321 -1.1653 -1.0333
14102TIP3    H242243   2.060   0.917   0.587 -0.5167  0.3368  2.8573
14103TIP3   OH242244   4.243   5.553   6.941 -0.1127  0.1653 -0.0307
14103TIP3    H142245   4.264   5.620   6.876  0.3258 -1.1121 -1.2414
14103TIP3    H242246   4.152   5.530   6.923 -0.4617  0.8773  0.7979
14104TIP3   OH242247   0.791   3.103   1.325 -0.2260  0.0532 -0.0826
14104TIP3    H142248   0.804   3.189   1.366  1.2669 -1.7018  3.3315
14104TIP3    H242249   0.799   3.119   1.231 -0.7206  3.7603  0.4510
14105TIP3   OH242250   5.145   2.629   6.125 -0.1846  0.3289  0.2700
14105TIP3    H142251   5.164   2.627   6.219  0.3992 -0.8965  0.1309
14105TIP3    H242252   5.098   2.547   6.108  1.6806 -0.5529 -0.9074
14106TIP3   OH242253   2.166   1.636   0.680  0.3475 -0.1245  0.3828
14106TIP3    H142254   2.172   1.721   0.723 -2.3814  1.4477 -2.0931
14106TIP3    H242255   2.167   1.573   0.751 -0.7996  2.1564  2.5123
14107TIP3   OH242256   0.847   6.752   0.804 -0.0450 -0.2490  0.3753
14107TIP3    H142257   0.834   6.698   0.726  3.0383 -0.9736  0.2996
14107TIP3    H242258   0.870   6.690   0.872 -0.6288  0.5944  1.3575
14108TIP3   OH242259   2.073   0.185   3.256 -0.0485  0.0266  0.2446
14108TIP3    H142260   1.996   0.213   3.306 -1.6610 -2.0480 -1.0310
14108TIP3    H242261   2.133   0.150   3.322 -0.4904  0.9683  1.1609
14109TIP3   OH242262   1.280   2.325   1.311  0.3936  0.2034 -0.2110
14109TIP3    H142263   1.367   2.294   1.288 -0.1679 -0.6503 -1.2575
14109TIP3    H242264   1.261   2.394   1.248 -0.0202 -0.1932 -0.5230
14110TIP3   OH242265   4.254   4.854   5.902  0.3008 -0.3558 -0.1382
14110TIP3    H142266   4.185   4.805   5.947 -0.3907  0.0024 -0.8089
14110TIP3    H242267   4.271   4.929   5.960  0.0620 -0.3907 -0.0216
14111TIP3   OH242268   3.074   1.877   1.143 -0.7194  0.3427  0.3463
14111TIP3    H142269   3.146   1.896   1.202 -1.3711 -2.2752  2.0766
14111TIP3    H242270   2.996   1.877   1.200 -1.0769 -4.6354  0.0940
14112TIP3   OH242271   6.423   5.431   5.497  0.0582 -0.1669  0.3777
14112TIP3    H142272   6.356   5.479   5.448  0.0255 -0.2927  0.3002
14112TIP3    H242273   6.452   5.362   5.437  0.5516  0.1392  0.2563
14113TIP3   OH242274   2.668   1.073   0.054  0.2886  0.5016  0.0623
14113TIP3    H142275   2.643   1.161   0.027 -0.5768 -0.0578 -1.0187
14113TIP3    H242276   2.590   1.020   0.038  1.4337 -0.8450 -1.2693
14114TIP3   OH242277   1.659   1.270   2.958  0.4058 -0.5541  0.2950
14114TIP3    H142278   1.570   1.251   2.929  0.8687 -1.5083 -0.5721
14114TIP3    H242279   1.708   1.284   2.877  0.8516  0.8848  0.8004
14115TIP3   OH242280   2.656   1.701   1.661  0.2882  0.3926  0.2903
14115TIP3    H142281   2.646   1.606   1.675  2.1187 -0.2007 -2.0797
14115TIP3    H242282   2.603   1.741   1.730  0.2408 -2.3478  1.9261
14116TIP3   OH242283   3.039   2.863   1.829 -0.3717  0.3688  0.0065
14116TIP3    H142284   2.949   2.851   1.796  0.4495  0.4236 -2.3685
14116TIP3    H242285   3.094   2.856   1.751  1.6714  0.8046  1.3689
14117TIP3   OH242286   1.211   2.269   2.033  0.2207 -0.1148 -0.0887
14117TIP3    H142287   1.166   2.326   2.096  1.3604  1.7953 -0.9328
14117TIP3    H242288   1.206   2.316   1.950 -0.0418 -1.9470 -1.1390
14118TIP3   OH242289   7.409   5.929   1.090  0.4108  0.1905 -0.2059
14118TIP3    H142290   7.425   5.834   1.093  0.5833  0.1368 -2.0416
14118TIP3    H242291   7.480   5.963   1.036  0.3002  1.3684  0.3821
14119TIP3   OH242292   4.524   4.704   6.859  0.5192  0.0326 -0.0061
14119TIP3    H142293   4.572   4.648   6.921  0.6910  1.7536  1.4432
14119TIP3    H242294   4.578   4.782   6.850 -0.5606  0.7081 -0.6989
14120TIP3   OH242295   1.438   0.892   0.091  0.3584 -0.5574 -0.1406
14120TIP3    H142296   1.448   0.818   0.152 -1.7463 -0.9224 -0.1952
14120TIP3    H242297   1.526   0.907   0.057  1.2680 -1.4212  1.7522
14121TIP3   OH242298   8.469   7.298   5.755 -0.1754  0.1283 -0.3880
14121TIP3    H142299   8.473   7.206   5.782  0.1627  0.0238 -0.7877
14121TIP3    H242300   8.556   7.316   5.718 -0.6536  0.2342 -1.4905
14122TIP3   OH242301   5.309   6.076   6.856  0.0301  0.3646 -0.0471
14122TIP3    H142302   5.266   6.003   6.900  0.0113  0.7263  0.5340
14122TIP3    H242303   5.382   6.036   6.810  0.2218  0.0256  0.5474
14123TIP3   OH242304   6.729   7.685   3.496 -0.2563 -0.0045 -0.2596
14123TIP3    H142305   6.711   7.599   3.532  0.3161  0.5772  1.4618
14123TIP3    H242306   6.810   7.674   3.447  0.3752 -0.2235  0.8182
14124TIP3   OH242307   2.941   0.016   2.861 -0.5080  0.1411  0.0207
14124TIP3    H142308   2.918   0.101   2.824 -1.1206 -0.7429 -1.6938
14124TIP3    H242309   2.863  -0.012   2.909  0.0028  0.9241  1.3365
14125TIP3   OH242310   2.960   0.319   1.029  0.1731  0.3007  0.8788
14125TIP3    H142311   3.053   0.299   1.038 -0.0348 -0.7293  0.7877
14125TIP3    H242312   2.958   0.408   0.993  1.1344 -0.1525 -0.3356
14126TIP3   OH242313   4.417   0.041   2.831  0.0066 -0.0987  0.5972
14126TIP3    H142314   4.415   0.076   2.920 -1.7484  1.1854  0.0807
14126TIP3    H242315   4.431  -0.053   2.843 -0.9776 -0.0544  2.2832
14127TIP3   OH242316   6.629   7.703   2.395 -0.1962 -0.4138 -0.1916
14127TIP3    H142317   6.585   7.636   2.342 -2.5023 -0.0673  1.2095
14127TIP3    H242318   6.663   7.766   2.331 -2.0240 -0.5384 -1.3311
14128TIP3   OH242319   6.965   6.922   1.403  0.0165  0.2357 -0.0572
14128TIP3    H142320   6.977   6.895   1.494  1.1554 -2.5338 -0.9930
14128TIP3    H242321   7.047   6.966   1.380 -0.5326  1.5421  0.4356
14129TIP3   OH242322   6.983   6.345   6.783 -0.7925  0.3470 -0.5319
14129TIP3    H142323   6.937   6.425   6.757  0.2551  1.2604  0.3789
14129TIP3    H242324   7.074   6.362   6.762 -0.6378 -0.8551 -0.8723
14130TIP3   OH242325   3.524   2.304   3.027 -0.8485 -0.5700  0.2045
14130TIP3    H142326   3.603   2.357   3.038 -1.1894  0.2015 -0.9965
14130TIP3    H242327   3.466   2.357   2.972 -1.8272 -1.5228  0.2953
14131TIP3   OH242328   1.582   0.135   2.020 -0.0782 -0.3353  0.5432
14131TIP3    H142329   1.658   0.194   2.019  0.4056 -0.9571 -1.6391
14131TIP3    H242330   1.603   0.071   2.088  0.9194  0.0649  0.6284
14132TIP3   OH242331   1.704   2.316   0.829 -0.7408 -0.5700 -0.2029
14132TIP3    H142332   1.711   2.305   0.734 -0.6504 -2.9035  0.0388
14132TIP3    H242333   1.785   2.277   0.864 -0.9877 -0.1577  0.8573
14133TIP3   OH242334   0.550   7.473   0.585 -0.6242  0.0160 -0.0695
14133TIP3    H142335   0.634   7.516   0.605 -1.4061  0.3340  2.8264
14133TIP3    H242336   0.570   7.380   0.583  0.3018  0.2222 -2.2736
14134TIP3   OH242337   2.464   1.696   2.673 -0.1172  0.2760 -0.3158
14134TIP3    H142338   2.504   1.638   2.738  2.3984  1.0410 -1.1361
14134TIP3    H242339   2.473   1.650   2.590 -1.5063  0.1913 -0.4251
14135TIP3   OH242340   7.611   7.201   2.987  0.3610  0.4096 -0.6416
14135TIP3    H142341   7.660   7.283   2.978 -0.6356  1.1012  0.1693
14135TIP3    H242342   7.585   7.198   3.079  2.2279 -1.8885 -0.1173
14136TIP3   OH242343   4.230   0.968   0.605  0.4382  0.4831 -0.2969
14136TIP3    H142344   4.269   0.884   0.630 -2.5142 -0.5572  1.1591
14136TIP3    H242345   4.255   1.029   0.674 -1.0998 -0.3825  1.0614
14137TIP3   OH242346   5.868   5.742   6.842  0.2206 -0.5835 -0.0440
14137TIP3    H142347   5.788   5.691   6.851  1.1806 -2.0658  0.3222
14137TIP3    H242348   5.930   5.681   6.801  0.8033  0.9140 -1.4281
14138TIP3   OH242349   2.962   3.143   0.196  0.4500  0.7420 -0.0250
14138TIP3    H142350   2.994   3.231   0.215 -0.3674  1.0528 -0.0320
14138TIP3    H242351   2.942   3.145   0.102  3.3057 -0.4013 -0.7028
14139TIP3   OH242352   5.832   5.442   4.974 -1.0811  0.4451 -0.0988
14139TIP3    H142353   5.756   5.495   4.998 -0.4704  0.3855  2.1067
14139TIP3    H242354   5.820   5.360   5.023 -0.1079  0.0364 -0.5424
14140TIP3   OH242355   5.943   6.238   5.813  0.3646  0.8501 -0.3060
14140TIP3    H142356   5.895   6.186   5.878  0.9762  0.3652 -0.2370
14140TIP3    H242357   5.937   6.187   5.732  2.2482 -0.1071  0.1127
14141TIP3   OH242358   1.847   1.978   0.104 -0.1670  0.1169 -0.3618
14141TIP3    H142359   1.877   1.887   0.103 -0.6384 -0.0260 -3.3217
14141TIP3    H242360   1.762   1.974   0.149  0.0158 -0.8251 -0.0859
14142TIP3   OH242361   2.430   0.615   0.819 -0.3332  0.5279  0.1234
14142TIP3    H142362   2.351   0.615   0.874 -1.1783  1.3049 -1.0445
14142TIP3    H242363   2.396   0.608   0.730  1.0436 -1.2716 -0.2907
14143TIP3   OH242364   0.141   2.602   2.226 -0.2428  0.5331 -0.0659
14143TIP3    H142365   0.079   2.649   2.282 -0.0541  0.3010  0.3358
14143TIP3    H242366   0.187   2.542   2.285 -2.8476 -2.6591 -1.1217
14144TIP3   OH242367   4.499   3.091   1.874 -0.5486  0.2403 -0.4006
14144TIP3    H142368   4.555   3.014   1.886 -0.3684  0.3955 -0.2572
14144TIP3    H242369   4.518   3.147   1.949  0.0983  0.9131 -1.0632
14145TIP3   OH242370   4.353   1.788   0.833  0.3817  0.3264 -0.7438
14145TIP3    H142371   4.422   1.830   0.782  1.0387 -0.7477 -0.7769
14145TIP3    H242372   4.313   1.726   0.772 -0.7985  1.1429 -0.8008
14146TIP3   OH242373   1.914   3.536   1.224 -0.1489 -0.1448  0.1257
14146TIP3    H142374   1.831   3.583   1.211  0.3218  0.5238 -0.4460
14146TIP3    H242375   1.911   3.464   1.161 -0.6342 -0.5792  0.6366
14147TIP3   OH242376   4.454   3.249   4.873  0.0386  0.3313 -0.1322
14147TIP3    H142377   4.510   3.182   4.911 -1.7256 -0.1052  1.7628
14147TIP3    H242378   4.381   3.201   4.834 -0.4551  1.0550 -0.1151
14148TIP3   OH242379   7.076   5.990   6.848  0.2521 -0.2555  0.3243
14148TIP3    H142380   7.008   6.050   6.877 -1.4166 -0.7163 -2.4705
14148TIP3    H242381   7.110   6.030   6.767  0.8911 -1.7657 -0.1690
14149TIP3   OH242382   3.087   2.891   1.311  0.0742  0.0508 -0.3969
14149TIP3    H142383   3.127   2.927   1.231 -0.1987  0.9487 -0.1346
14149TIP3    H242384   3.134   2.935   1.382 -0.0866 -0.3101 -0.0695
14150TIP3   OH242385   6.762   2.826   6.301  0.2025  0.0646 -0.6178
14150TIP3    H142386   6.845   2.785   6.277  0.4082 -0.3605  0.7576
14150TIP3    H242387   6.708   2.754   6.333  0.0857  0.6533  0.5406
14151TIP3   OH242388   5.998   7.538   0.245  0.1925  0.4785 -0.0023
14151TIP3    H142389   5.982   7.455   0.200  1.0489 -0.6194  1.6676
14151TIP3    H242390   5.911   7.572   0.264 -0.1670 -0.1013 -0.5860
14152TIP3   OH242391   2.300   1.764   0.202 -0.0930  0.6236  0.0929
14152TIP3    H142392   2.317   1.732   0.290 -0.2506  1.3966  0.4101
14152TIP3    H242393   2.263   1.852   0.215  0.3744  0.9522 -0.7592
14153TIP3   OH242394   1.525   3.447   1.562 -0.2269  0.2610 -0.4470
14153TIP3    H142395   1.431   3.435   1.545 -0.3883  0.1822  0.4525
14153TIP3    H242396   1.568   3.393   1.496 -0.8665 -1.4568  0.4908
14154TIP3   OH242397   4.865   3.604   6.879 -0.1083 -0.3571  0.7760
14154TIP3    H142398   4.839   3.643   6.963 -0.0364 -0.7390  0.9747
14154TIP3    H242399   4.829   3.515   6.882  0.0014 -0.4113  0.4520
14155TIP3   OH242400   7.318   7.607   2.342  0.1526  0.1223  0.3481
14155TIP3    H142401   7.364   7.549   2.403 -3.1267 -1.2644  1.6179
14155TIP3    H242402   7.307   7.689   2.391 -0.7441 -0.3267  0.9079
14156TIP3   OH242403   6.246   5.366   6.248  0.0580  0.3461 -0.2329
14156TIP3    H142404   6.162   5.362   6.201 -0.3073  0.0722  0.4374
14156TIP3    H242405   6.274   5.457   6.239  0.5106  0.0566 -1.8798
14157TIP3   OH242406   6.918   6.822   2.260  0.4994  0.5533 -0.8430
14157TIP3    H142407   6.992   6.763   2.268  0.1431  0.1410 -0.6278
14157TIP3    H242408   6.915   6.869   2.343 -0.0781 -0.1195 -0.4847
14158TIP3   OH242409   1.216   2.472   2.251  0.2953  0.2078  0.7499
14158TIP3    H142410   1.303   2.488   2.216  0.9503 -2.1935  1.2030
14158TIP3    H242411   1.215   2.518   2.335  1.3079 -0.1826  0.9796
14159TIP3   OH242412   1.424   2.604   2.468 -0.3451 -0.3034  0.1860
14159TIP3    H142413   1.455   2.518   2.440 -0.8792 -0.0484 -1.2568
14159TIP3    H242414   1.410   2.596   2.562 -0.1415 -1.7153  0.0982
14160TIP3   OH242415   8.059   2.875   2.128  0.3321  0.6336  0.1572
14160TIP3    H142416   8.150   2.855   2.104  0.4368  0.9766  0.2655
14160TIP3    H242417   8.022   2.913   2.049 -0.5295 -2.0656 -0.8002
14161TIP3   OH242418   2.655   0.799   0.868 -0.3606  0.1135  0.2024
14161TIP3    H142419   2.612   0.872   0.912 -2.5432 -1.1538  0.2651
14161TIP3    H242420   2.584   0.739   0.845  1.0949 -0.8597 -2.0425
14162TIP3   OH242421   0.594   7.888   1.005 -0.0941 -1.0072 -0.2051
14162TIP3    H142422   0.612   7.863   0.914 -1.2090 -1.9788 -0.1752
14162TIP3    H242423   0.664   7.845   1.055 -0.1886 -1.5049 -0.4896
14163TIP3   OH242424   2.331   4.083   0.937  0.3925 -0.0873  0.0212
14163TIP3    H142425   2.356   4.065   0.846  0.7761  0.8178 -0.0538
14163TIP3    H242426   2.392   4.151   0.965 -0.1163  0.0549  0.7673
14164TIP3   OH242427   0.022   0.809   1.150  0.2491 -0.0465 -0.5531
14164TIP3    H142428   0.072   0.785   1.228  0.4685  1.1056 -0.3350
14164TIP3    H242429   0.079   0.870   1.103 -0.4006  0.2322 -0.9861
14165TIP3   OH242430   3.159   2.209   0.367  0.2577 -0.4339  0.5714
14165TIP3    H142431   3.241   2.195   0.414 -1.2740  0.1197  3.4956
14165TIP3    H242432   3.125   2.292   0.402 -1.7601 -0.8551 -0.3145
14166TIP3   OH242433   3.154   1.198   0.759  0.2846 -0.2273  0.4971
14166TIP3    H142434   3.136   1.290   0.743  0.6462  0.0434  1.6083
14166TIP3    H242435   3.100   1.151   0.696 -0.2699  0.7319  0.2637
14167TIP3   OH242436   1.879   1.655   0.086 -0.5554 -0.3434 -0.1569
14167TIP3    H142437   1.913   1.570   0.115  0.2962 -0.0377 -0.2523
14167TIP3    H242438   1.859   1.643  -0.007  1.2650  0.0600 -0.6362
14168TIP3   OH242439   2.999   1.029   0.640 -0.3996  0.0961  0.9469
14168TIP3    H142440   2.934   1.085   0.683 -1.9581 -1.0693  0.1934
14168TIP3    H242441   2.967   0.940   0.657  0.3538 -0.4493 -0.4766
14169TIP3   OH242442   0.551   0.307   1.966 -0.0599  0.3208  0.0409
14169TIP3    H142443   0.510   0.238   1.914  0.5384 -0.5318  0.6868
14169TIP3    H242444   0.527   0.286   2.056  0.2559  0.8710  0.2543
14170TIP3   OH242445   1.821   4.038   1.680  0.5850  0.0175 -0.2697
14170TIP3    H142446   1.799   4.123   1.718  0.2815  0.0703 -0.5675
14170TIP3    H242447   1.917   4.033   1.687  0.8576  1.4662 -2.5370
14171TIP3   OH242448   5.654   5.351   4.332  0.1240  0.5736 -0.5480
14171TIP3    H142449   5.680   5.356   4.424 -0.2042  1.3193 -0.4958
14171TIP3    H242450   5.576   5.405   4.326  0.4174  0.9093 -1.3647
14172TIP3   OH242451   7.510   7.458   0.903  0.1305  0.8294  0.2653
14172TIP3    H142452   7.550   7.492   0.983 -0.3182 -0.3801  1.0233
14172TIP3    H242453   7.575   7.397   0.868  0.2006  1.1299 -0.1258
14173TIP3   OH242454   1.766   0.491   0.155  0.6251 -0.3025  0.2052
14173TIP3    H142455   1.830   0.436   0.110  0.8865  1.3494 -1.5269
14173TIP3    H242456   1.681   0.460   0.121  0.5213 -2.0077  1.9561
14174TIP3   OH242457   7.444   7.441   1.819  0.7111  0.1418 -0.1226
14174TIP3    H142458   7.488   7.483   1.746  0.6670 -0.1576 -0.3240
14174TIP3    H242459   7.513   7.391   1.863  0.6294 -0.1157 -0.2832
14175TIP3   OH242460   1.638   1.319   0.820 -0.1567  0.1777  0.1597
14175TIP3    H142461   1.574   1.350   0.884 -0.7500  1.9763 -1.2851
14175TIP3    H242462   1.672   1.398   0.778  2.6444 -0.7610  0.5152
14176TIP3   OH242463   7.736   4.867   2.064 -0.1601 -0.4193 -0.3321
14176TIP3    H142464   7.641   4.859   2.073 -0.3311  0.8134 -0.9261
14176TIP3    H242465   7.758   4.948   2.109  0.5594 -0.5063 -0.5250
14177TIP3   OH242466   4.497   3.038   0.701 -0.5020  0.1957  0.4146
14177TIP3    H142467   4.506   2.954   0.656 -0.3135  0.7140 -0.5136
14177TIP3    H242468   4.501   3.015   0.794 -0.9347 -0.8818  0.1804
14178TIP3   OH242469   7.176   7.868   0.951  0.1639 -0.4050 -0.7070
14178TIP3    H142470   7.180   7.938   1.016 -1.9247 -0.3472 -0.6039
14178TIP3    H242471   7.264   7.866   0.913  0.6874  1.2549  0.3380
14179TIP3   OH242472   2.327   1.086   3.512  0.2351  0.2520  0.7817
14179TIP3    H142473   2.279   1.005   3.525  2.2224 -0.9435  0.9229
14179TIP3    H242474   2.374   1.100   3.594  1.8071  0.2150 -0.0858
14180TIP3   OH242475   5.845   5.301   3.594 -0.3148 -0.2484  0.6143
14180TIP3    H142476   5.813   5.290   3.505  1.2021 -3.1665  0.3766
14180TIP3    H242477   5.843   5.396   3.609 -2.6274  0.1128 -1.7213
14181TIP3   OH242478   5.787   5.349   6.327 -0.2636 -0.6125  0.6020
14181TIP3    H142479   5.742   5.409   6.268 -0.0297  0.4426  1.4888
14181TIP3    H242480   5.803   5.400   6.406 -0.3583 -1.9427  1.4909
14182TIP3   OH242481   4.023   5.934   6.773  0.1571  0.1064 -0.2934
14182TIP3    H142482   4.025   5.884   6.854  0.4414  0.0145 -0.3569
14182TIP3    H242483   3.933   5.926   6.742  0.0798  0.0384 -0.0525
14183TIP3   OH242484   8.140   7.174   5.728 -0.1085  0.1066 -0.2517
14183TIP3    H142485   8.153   7.161   5.634  1.4932 -1.8150  0.2088
14183TIP3    H242486   8.206   7.118   5.770 -0.3562  1.4292  2.0129
14184TIP3   OH242487   3.703   0.623   0.216 -0.2729 -0.2589  0.2356
14184TIP3    H142488   3.640   0.571   0.165 -1.3271  0.9264  0.2920
14184TIP3    H242489   3.667   0.623   0.305 -0.6932  1.1771  0.0805
14185TIP3   OH242490   4.805   2.139   0.343 -0.0145  0.4642 -0.2659
14185TIP3    H142491   4.735   2.080   0.318  1.0825 -0.8388 -0.3270
14185TIP3    H242492   4.881   2.110   0.292  1.0419  0.6613  1.1512
14186TIP3   OH242493   4.007   3.173   1.008  0.4410 -0.1202 -0.1507
14186TIP3    H142494   4.080   3.134   1.056  0.5822  1.1635  0.6944
14186TIP3    H242495   3.929   3.135   1.048  0.5603  0.8261  1.0286
14187TIP3   OH242496   2.784   1.215   0.725 -0.0934 -0.5307 -0.2886
14187TIP3    H142497   2.723   1.143   0.706  0.6877 -1.1088 -0.6570
14187TIP3    H242498   2.769   1.236   0.817 -0.4324 -1.0734 -0.2174
14188TIP3   OH242499   5.462   1.434   1.049 -0.6204 -0.1171 -0.2731
14188TIP3    H142500   5.477   1.420   0.955  0.6928 -1.5306  0.1337
14188TIP3    H242501   5.543   1.475   1.080 -0.8833 -0.0620  0.3407
14189TIP3   OH242502   7.994   4.675   6.038  0.0541  0.6328  0.2624
14189TIP3    H142503   7.901   4.673   6.015  0.0197  0.8048  0.3883
14189TIP3    H242504   8.004   4.604   6.102  0.5357 -1.1504 -1.7174
14190TIP3   OH242505   0.203   4.249   6.299  0.5293 -0.4839 -0.3383
14190TIP3    H142506   0.222   4.256   6.205 -1.0843  0.6273 -0.6108
14190TIP3    H242507   0.149   4.171   6.306 -1.0783  0.5749 -0.6511
14191TIP3   OH242508   7.536   4.244   5.838  0.5891  0.2284  0.2171
14191TIP3    H142509   7.617   4.194   5.826  0.8528  0.9490 -1.0955
14191TIP3    H242510   7.562   4.317   5.894  0.8220  0.4061 -0.1222
14192TIP3   OH242511   0.316   4.629   6.547  0.0214  0.2745 -0.0735
14192TIP3    H142512   0.363   4.624   6.630  0.0610 -0.9091 -0.1639
14192TIP3    H242513   0.374   4.677   6.488 -0.1425  1.4016  0.6678
14193TIP3   OH242514   4.647   3.890   6.569  0.1260  0.3072 -0.0460
14193TIP3    H142515   4.659   3.921   6.479 -0.4926  0.6439 -0.0162
14193TIP3    H242516   4.630   3.796   6.559 -0.5236  0.4493 -0.3277
14194TIP3   OH242517   7.149   3.602   5.513  0.1152 -0.3070 -0.2410
14194TIP3    H142518   7.071   3.627   5.562  0.9819  1.2379  0.3902
14194TIP3    H242519   7.172   3.680   5.462  0.8474 -0.9690 -0.9468
14195TIP3   OH242520   3.701   7.636   0.438  0.5116 -0.1514 -0.7588
14195TIP3    H142521   3.771   7.688   0.477  1.5919 -1.7478 -0.5097
14195TIP3    H242522   3.667   7.690   0.366  1.3401  1.0375 -0.2561
14196TIP3   OH242523   5.058   2.594   1.604  0.0582  0.2669  0.3519
14196TIP3    H142524   5.037   2.503   1.582 -0.1692  0.6477 -1.0428
14196TIP3    H242525   4.991   2.646   1.559  2.5541  1.3605 -2.2473
14197TIP3   OH242526   0.221   7.789   0.877 -0.0573 -0.2069  0.2359
14197TIP3    H142527   0.162   7.715   0.892 -0.2621 -0.1535 -0.2970
14197TIP3    H242528   0.294   7.753   0.827 -0.9495  0.2818 -1.4431
14198TIP3   OH242529   8.060   5.857   3.918 -0.5712 -0.6955  0.5542
14198TIP3    H142530   8.152   5.834   3.904  0.1412  1.4032  1.6391
14198TIP3    H242531   8.038   5.912   3.843 -0.3416  0.4432  1.3090
14199TIP3   OH242532   7.603   4.620   5.099 -0.3535 -0.1777 -0.1229
14199TIP3    H142533   7.565   4.580   5.021 -0.2429 -0.6016  0.0401
14199TIP3    H242534   7.698   4.619   5.083 -0.3837  0.5211 -0.3605
14200TIP3   OH242535   3.631   4.839   0.420 -0.2404 -0.2053  0.3404
14200TIP3    H142536   3.641   4.753   0.461  0.2800 -0.9750 -1.3394
14200TIP3    H242537   3.651   4.824   0.328  0.3235  1.8157  0.0989
14201TIP3   OH242538   5.249   3.171   5.284 -0.2282  0.1867 -0.1198
14201TIP3    H142539   5.187   3.197   5.215  3.0676  3.1454 -2.1216
14201TIP3    H242540   5.271   3.080   5.264 -2.4715 -0.3135 -0.4590
14202TIP3   OH242541   8.310   6.756   5.826  0.3404 -0.0763 -0.2252
14202TIP3    H142542   8.280   6.730   5.738  0.8649 -1.3018 -0.0547
14202TIP3    H242543   8.363   6.682   5.856 -1.7213 -0.6765  2.0696
14203TIP3   OH242544   6.290   3.041   1.163  0.1329  0.0638 -0.2378
14203TIP3    H142545   6.287   2.951   1.131  0.0134 -0.2761  0.7331
14203TIP3    H242546   6.199   3.066   1.173  0.1598  0.4316 -0.8875
14204TIP3   OH242547   4.925   0.995   1.616  0.6800 -0.2215  0.3602
14204TIP3    H142548   4.972   1.067   1.574 -0.0267  0.3064  0.4566
14204TIP3    H242549   4.989   0.924   1.621  0.6655 -0.4618 -2.0196
14205TIP3   OH242550   5.451   1.830   0.232 -0.4002  0.3487 -0.1982
14205TIP3    H142551   5.394   1.907   0.236 -0.6397  0.1593  0.0127
14205TIP3    H242552   5.415   1.777   0.162  1.1787  1.5565 -1.9820
14206TIP3   OH242553   7.772   5.733   4.878  0.1276  0.2622 -0.3784
14206TIP3    H142554   7.831   5.659   4.894  0.4753  0.8188  1.0047
14206TIP3    H242555   7.830   5.803   4.848 -0.1960 -0.0200 -1.6652
14207TIP3   OH242556   5.013   0.322   2.328 -0.2060  0.1667  0.3142
14207TIP3    H142557   5.076   0.371   2.380  0.4479 -1.5849  1.2178
14207TIP3    H242558   4.952   0.285   2.393 -0.4906 -0.4649 -0.3034
14208TIP3   OH242559   5.753   0.037   0.748  0.2957  0.7547 -0.2279
14208TIP3    H142560   5.765  -0.046   0.702  0.2280  1.5406 -1.6626
14208TIP3    H242561   5.842   0.064   0.771  0.1835 -0.7792  2.1689
14209TIP3   OH242562   7.117   5.564   5.078  0.2507 -0.2796 -0.2142
14209TIP3    H142563   7.189   5.533   5.133 -0.2344 -1.7625 -0.3639
14209TIP3    H242564   7.155   5.630   5.021  1.0048  0.4838  1.1737
14210TIP3   OH242565   8.250   5.979   6.364  0.5950 -0.3017  0.3427
14210TIP3    H142566   8.242   5.922   6.288  0.3374 -0.3745  0.4242
14210TIP3    H242567   8.340   5.965   6.395  0.6875 -0.2984  0.0756
14211TIP3   OH242568   6.107   6.369   5.591  0.1900  0.0867 -0.0790
14211TIP3    H142569   6.028   6.415   5.562  0.3732 -0.3510 -1.2905
14211TIP3    H242570   6.077   6.280   5.611  0.6802 -0.5912 -2.2498
14212TIP3   OH242571   5.234   6.156   6.550  0.4924  0.1092 -0.3748
14212TIP3    H142572   5.266   6.118   6.632 -0.0558  0.4760  0.0160
14212TIP3    H242573   5.224   6.082   6.491 -1.3145 -0.4743  0.6215
14213TIP3   OH242574   7.218   5.746   4.906  0.2611  0.1443  0.2360
14213TIP3    H142575   7.311   5.735   4.887  0.2687 -1.5875  1.1225
14213TIP3    H242576   7.190   5.820   4.852  2.7252  2.3699  1.8746
14214TIP3   OH242577   4.518   2.957   0.966  0.3281 -0.6075 -0.3703
14214TIP3    H142578   4.542   3.035   1.016 -2.2046  0.8962 -1.4044
14214TIP3    H242579   4.550   2.884   1.019  2.6588  1.1118  0.6579
14215TIP3   OH242580   5.435   3.886   6.874 -0.3460 -0.0816  0.1759
14215TIP3    H142581   5.411   3.976   6.852  0.8637  0.2539  0.1818
14215TIP3    H242582   5.444   3.886   6.969  1.2690  0.2140  0.0379
14216TIP3   OH242583   7.796   5.000   6.016  0.1717 -0.3973 -0.0246
14216TIP3    H142584   7.747   5.081   6.003  0.7805  0.1234  0.8916
14216TIP3    H242585   7.786   4.952   5.933 -2.2376 -0.4939  0.2702
14217TIP3   OH242586   5.239   0.333   0.945  0.0573 -0.2012  0.8539
14217TIP3    H142587   5.206   0.244   0.933 -1.7234  0.6161 -0.4384
14217TIP3    H242588   5.311   0.340   0.883 -1.9784  0.3337 -1.5442
14218TIP3   OH242589   7.149   5.104   6.217 -0.5435 -0.2507  0.3632
14218TIP3    H142590   7.150   5.199   6.229  0.1466  0.2063 -2.7726
14218TIP3    H242591   7.056   5.080   6.226 -0.9432  0.9745 -0.3168
14219TIP3   OH242592   2.962   0.342   0.228 -0.0068  0.0590 -0.3293
14219TIP3    H142593   2.968   0.412   0.163 -0.1568 -0.7639 -1.2324
14219TIP3    H242594   2.928   0.385   0.307  2.5469  1.6059  0.0213
14220TIP3   OH242595   1.121   6.575   2.689 -0.1040 -0.2169  0.3645
14220TIP3    H142596   1.107   6.664   2.720  0.8592 -0.3304  1.1391
14220TIP3    H242597   1.088   6.575   2.599 -2.2498  0.3075  1.1356
14221TIP3   OH242598   4.346   0.476   0.449  0.6284  0.0793  0.3788
14221TIP3    H142599   4.357   0.431   0.365  1.8518 -1.2578  1.2341
14221TIP3    H242600   4.266   0.527   0.438 -0.0135 -1.1925 -1.1084
14222TIP3   OH242601   5.862   1.943   0.316  0.3341 -0.1481  0.7004
14222TIP3    H142602   5.804   2.014   0.343 -1.4227 -1.4220  0.4112
14222TIP3    H242603   5.925   1.984   0.258 -0.0372  1.3576  1.3297
14223TIP3   OH242604   5.382   0.703   1.066  0.6779  0.1389 -0.1638
14223TIP3    H142605   5.423   0.777   1.020 -0.6025  1.7781  1.2747
14223TIP3    H242606   5.288   0.716   1.054  0.3716 -0.0854  1.8502
14224TIP3   OH242607   2.735   7.697   2.066 -0.4384  0.4220  0.1167
14224TIP3    H142608   2.745   7.711   2.160 -0.5222 -2.3991  0.5888
14224TIP3    H242609   2.729   7.785   2.029  1.4089  1.6242  2.5356
14225TIP3   OH242610   1.234   7.623   0.765 -0.2390 -0.0246  0.8629
14225TIP3    H142611   1.252   7.609   0.857  0.1577  1.2384  0.9991
14225TIP3    H242612   1.319   7.616   0.722 -0.4162 -0.5763  0.5943
14226TIP3   OH242613   7.491   3.160   6.359 -0.0555  0.3006 -0.2695
14226TIP3    H142614   7.481   3.087   6.298 -1.1799  0.5910 -0.4467
14226TIP3    H242615   7.401   3.182   6.385  0.2865  1.4832 -0.0656
14227TIP3   OH242616   7.182   6.116   6.607 -0.5940 -0.0422 -0.1726
14227TIP3    H142617   7.113   6.158   6.556 -1.7321  1.4706  2.4743
14227TIP3    H242618   7.241   6.188   6.631 -0.0078 -0.7299  0.4831
14228TIP3   OH242619   6.402   4.802   6.532  0.4962 -0.5988 -0.2605
14228TIP3    H142620   6.331   4.746   6.500  0.7376 -0.5956 -0.8064
14228TIP3    H242621   6.405   4.875   6.470 -0.0091  0.1698  0.6235
14229TIP3   OH242622   6.838   6.935   5.728  0.5120 -0.5535  0.2610
14229TIP3    H142623   6.851   6.897   5.815  0.8693  0.4045  0.6317
14229TIP3    H242624   6.918   6.911   5.680  0.1896 -1.3276  0.0980
14230TIP3   OH242625   4.621   1.597   0.703  0.3549  0.1283 -0.0047
14230TIP3    H142626   4.548   1.555   0.749  1.0197 -2.5103 -1.2729
14230TIP3    H242627   4.581   1.643   0.630 -0.1387 -0.5747 -0.1794
14231TIP3   OH242628   4.902   2.509   2.459  0.3636  0.0638  0.0284
14231TIP3    H142629   4.984   2.507   2.409 -0.4315 -0.5988 -1.2725
14231TIP3    H242630   4.918   2.450   2.533  0.9739 -0.2489 -0.3486
14232TIP3   OH242631   0.169   5.533   6.686 -0.2446  0.0236  0.0705
14232TIP3    H142632   0.205   5.506   6.770 -0.0471 -0.9235 -0.3148
14232TIP3    H242633   0.241   5.523   6.624 -0.7959 -0.7063 -0.4762
14233TIP3   OH242634   3.536   0.407   1.046  0.2597 -0.2552 -0.8849
14233TIP3    H142635   3.581   0.439   0.968  0.1847 -0.1665 -0.8913
14233TIP3    H242636   3.549   0.312   1.044 -0.2678 -0.3188 -1.3345
14234TIP3   OH242637   5.294   2.192   0.446 -0.1214 -0.6980 -0.1735
14234TIP3    H142638   5.371   2.142   0.472 -0.9611 -1.4209  0.9560
14234TIP3    H242639   5.315   2.283   0.469  1.6279 -0.4289 -2.7512
14235TIP3   OH242640   3.858   0.193   0.040 -0.5954 -0.5228  0.3046
14235TIP3    H142641   3.926   0.154  -0.016 -0.8405 -0.4877 -0.0196
14235TIP3    H242642   3.895   0.278   0.066 -1.4839  0.5474 -1.8068
14236TIP3   OH242643   6.467   4.849   4.869  0.1241 -0.1867 -0.0444
14236TIP3    H142644   6.540   4.797   4.903  0.8832  1.5036  0.9824
14236TIP3    H242645   6.389   4.811   4.910  0.4081 -2.1213 -1.2982
14237TIP3   OH242646   7.980   5.673   5.067 -0.0190  0.3651  0.0449
14237TIP3    H142647   7.980   5.590   5.018 -1.9781  0.1859  0.3017
14237TIP3    H242648   7.976   5.647   5.159 -1.4602  0.7314  0.1008
14238TIP3   OH242649   5.866   6.489   5.893 -0.1069 -0.0850  0.1553
14238TIP3    H142650   5.781   6.457   5.921  0.0402  0.9461  1.8967
14238TIP3    H242651   5.912   6.411   5.861 -0.7458 -1.1343  1.7105
14239TIP3   OH242652   4.419   0.422   1.063 -0.8891  0.6027  0.1742
14239TIP3    H142653   4.496   0.458   1.107 -0.0988 -0.2691 -0.4688
14239TIP3    H242654   4.345   0.448   1.118  0.1197 -0.9463  2.3485
14240TIP3   OH242655   3.881   3.003   1.245 -0.9721  0.0325  0.4366
14240TIP3    H142656   3.790   3.005   1.215 -1.1890 -0.6370  1.0272
14240TIP3    H242657   3.903   3.095   1.259 -1.3941  0.2329 -0.1990
14241TIP3   OH242658   0.745   6.953   4.550 -0.0211  0.2848 -0.1470
14241TIP3    H142659   0.726   7.046   4.536  0.1416  0.1572 -1.2152
14241TIP3    H242660   0.663   6.916   4.581  0.0971  0.9182  0.9766
14242TIP3   OH242661   6.638   4.056   0.631  0.2291  0.1569  0.1560
14242TIP3    H142662   6.628   3.996   0.556  0.7205  1.4515 -0.9630
14242TIP3    H242663   6.621   4.001   0.707 -2.9208 -0.6464 -1.0084
14243TIP3   OH242664   3.775   0.074   0.660  0.6519 -0.3982 -0.2160
14243TIP3    H142665   3.697   0.020   0.648 -0.3415  0.7460  0.8370
14243TIP3    H242666   3.849   0.014   0.653 -0.3176 -1.4458 -1.5286
14244TIP3   OH242667   6.019   4.683   6.691 -0.4964  0.1833 -0.4326
14244TIP3    H142668   5.948   4.637   6.646 -0.9330  0.8190 -0.4002
14244TIP3    H242669   5.975   4.745   6.750  0.0663 -1.3271  1.6201
14245TIP3   OH242670   4.677   4.220   0.318 -0.4511 -0.0109  0.0290
14245TIP3    H142671   4.722   4.299   0.289  0.1281  0.0018  0.9513
14245TIP3    H242672   4.729   4.148   0.282  0.7786 -0.0071  1.7738
14246TIP3   OH242673   3.707   0.863   0.462 -0.1739 -0.1625  0.5458
14246TIP3    H142674   3.678   0.911   0.384 -0.6975  0.4178  1.0925
14246TIP3    H242675   3.779   0.915   0.497  1.5430 -1.5989 -0.8030
14247TIP3   OH242676   0.915   5.571   6.464  0.3885  0.3696  0.4224
14247TIP3    H142677   0.962   5.648   6.433  1.4754 -1.3058 -2.2242
14247TIP3    H242678   0.960   5.546   6.545  1.2816  1.3163  0.2207
14248TIP3   OH242679   7.750   7.618   6.876  1.0840  0.0190  0.4838
14248TIP3    H142680   7.842   7.604   6.899  0.7963 -2.4438  0.3435
14248TIP3    H242681   7.702   7.575   6.947  0.0973 -0.8787 -0.7012
14249TIP3   OH242682   6.294   5.116   6.905  0.2496 -0.4965  0.3226
14249TIP3    H142683   6.318   5.030   6.870 -1.2126 -1.6402  2.0409
14249TIP3    H242684   6.198   5.117   6.905  0.2318  0.4516  1.8991
14250TIP3   OH242685   1.972   7.228   4.897 -0.2266  0.2566 -0.5569
14250TIP3    H142686   1.984   7.182   4.980  1.2604  3.3370  1.0171
14250TIP3    H242687   1.886   7.200   4.865 -1.0570 -0.5391  2.3143
14251TIP3   OH242688   6.211   6.252   5.903 -0.2252 -0.0872  0.5498
14251TIP3    H142689   6.123   6.237   5.869 -1.0937 -0.9351  2.9957
14251TIP3    H242690   6.269   6.211   5.840 -1.6853 -0.8087 -0.3624
14252TIP3   OH242691   3.290   0.426   0.118  0.0809  0.2149 -0.2150
14252TIP3    H142692   3.195   0.429   0.131  0.3440  0.8365  1.5892
14252TIP3    H242693   3.314   0.517   0.097  0.4181  0.2424  0.2976
14253TIP3   OH242694   6.224   5.851   6.809 -0.2314  0.3696  0.2225
14253TIP3    H142695   6.315   5.826   6.820  0.3050  2.1183 -0.0913
14253TIP3    H242696   6.185   5.779   6.760  0.8605 -0.6027  0.7587
14254TIP3   OH242697   5.910   4.573   6.451  0.3316 -0.2887 -0.6106
14254TIP3    H142698   5.835   4.515   6.435 -0.2216 -0.2443  1.5494
14254TIP3    H242699   5.985   4.514   6.456  0.1223 -0.5672 -0.7119
14255TIP3   OH242700   0.086   5.970   6.903  0.2526 -0.2661  0.6777
14255TIP3    H142701   0.156   5.916   6.866  0.4668  1.1974 -1.1233
14255TIP3    H242702   0.129   6.021   6.972  0.8240  0.1721  0.0036
14256TIP3   OH242703   6.473   4.015   6.905 -0.2670  0.0378 -0.1115
14256TIP3    H142704   6.456   4.107   6.927  0.4539  0.0280  0.5172
14256TIP3    H242705   6.567   4.012   6.888  0.0836 -0.9834  1.9180
14257TIP3   OH242706   4.751   0.731   0.413 -0.5810 -0.2720  0.0844
14257TIP3    H142707   4.738   0.658   0.352 -0.3762  0.9432 -1.4324
14257TIP3    H242708   4.662   0.754   0.441 -0.6515 -1.0691  0.5315
14258TIP3   OH242709   3.649   1.314   0.777  0.3300 -0.2493  0.1320
14258TIP3    H142710   3.585   1.342   0.711  0.4800  1.2322  0.5852
14258TIP3    H242711   3.729   1.361   0.754  0.9417 -1.2295  0.2319
14259TIP3   OH242712   7.578   5.057   6.276 -0.4796  0.2737  0.4371
14259TIP3    H142713   7.534   4.972   6.273 -0.4402  0.3057 -1.4930
14259TIP3    H242714   7.650   5.049   6.214  1.1006  0.8675  2.1679
14260TIP3   OH242715   4.653   0.912   2.111 -0.0404  0.4539  0.3651
14260TIP3    H142716   4.581   0.973   2.095  0.2047  0.3141 -1.4262
14260TIP3    H242717   4.622   0.829   2.075  1.5169  0.7116 -1.6441
14261TIP3   OH242718   6.955   5.786   5.176  0.5798  0.2641  0.2895
14261TIP3    H142719   6.947   5.761   5.085  0.5092  1.8226 -0.1464
14261TIP3    H242720   6.882   5.744   5.220  0.1248  0.2010 -0.5275
14262TIP3   OH242721   3.838   2.416   0.657 -0.6663 -0.1184  0.4759
14262TIP3    H142722   3.884   2.493   0.691 -0.5525  0.3802 -0.8090
14262TIP3    H242723   3.839   2.354   0.731  0.4372  0.5838  1.0704
14263TIP3   OH242724   4.240   3.865   6.940  0.2398  0.2592  0.5163
14263TIP3    H142725   4.267   3.926   6.871 -0.2050  0.7599  0.7833
14263TIP3    H242726   4.145   3.869   6.940  0.2209 -0.1558  0.7885
14264TIP3   OH242727   6.521   5.226   6.758 -0.7247 -0.3393  0.3736
14264TIP3    H142728   6.430   5.251   6.745 -1.5196 -2.7120  1.0461
14264TIP3    H242729   6.518   5.164   6.832  1.3109 -1.0295 -0.1026
14265TIP3   OH242730   0.985   5.976   6.474 -0.3898  0.0189  0.8329
14265TIP3    H142731   1.027   5.955   6.557  0.3090  0.9531  0.7284
14265TIP3    H242732   1.047   6.034   6.430 -0.3341 -1.2064 -0.7556
14266TIP3   OH242733   7.397   5.909   6.052 -0.5133 -0.7078  0.1398
14266TIP3    H142734   7.477   5.927   6.102 -0.5254  1.3401 -0.5289
14266TIP3    H242735   7.416   5.828   6.004  0.3468 -1.4257  1.6489
14267TIP3   OH242736   5.227   1.600   0.302  0.0732 -0.6291 -0.4913
14267TIP3    H142737   5.255   1.623   0.214  1.0147 -0.9256 -0.2731
14267TIP3    H242738   5.203   1.507   0.296  0.5779 -0.7689 -0.3255
14268TIP3   OH242739   5.115   0.731   1.062 -0.2042  0.1846  0.0281
14268TIP3    H142740   5.118   0.747   1.156  0.6304  0.6626 -0.0753
14268TIP3    H242741   5.080   0.642   1.054 -2.6805  1.0372  0.6874
14269TIP3   OH242742   4.096   1.416   2.234  0.0747 -0.1857  0.2519
14269TIP3    H142743   4.034   1.363   2.184  0.8645  0.2368 -1.2031
14269TIP3    H242744   4.115   1.490   2.177  1.6653 -0.1375  0.8194
14270TIP3   OH242745   7.778   6.369   4.602 -0.0768 -0.1035 -0.4104
14270TIP3    H142746   7.701   6.413   4.565 -1.2358 -1.0358  0.8426
14270TIP3    H242747   7.813   6.432   4.664 -0.9327 -0.3745  0.3709
14271TIP3   OH242748   2.832   2.189   1.724  0.6451  0.2990  0.3964
14271TIP3    H142749   2.809   2.282   1.719 -0.3333  0.0745  0.5340
14271TIP3    H242750   2.906   2.179   1.664  1.6024  1.4174  1.3860
14272TIP3   OH242751   6.445   5.204   6.336  0.2325  0.0206 -0.0628
14272TIP3    H142752   6.407   5.125   6.377 -1.0146 -0.0792 -1.3704
14272TIP3    H242753   6.370   5.263   6.326  0.8027  0.6102 -0.8634
14273TIP3   OH242754   0.408   4.887   3.973 -0.3459 -0.2336  0.4424
14273TIP3    H142755   0.375   4.798   3.974  1.3408 -0.8736  1.5679
14273TIP3    H242756   0.378   4.926   4.055 -2.4416  0.7625 -0.7826
14274TIP3   OH242757   7.270   7.413   2.988  0.1347 -0.1601 -0.5009
14274TIP3    H142758   7.317   7.439   3.067 -0.3797 -1.0864  0.1301
14274TIP3    H242759   7.260   7.318   2.996  0.5628 -0.3392 -1.9574
14275TIP3   OH242760   1.564   7.087   2.020 -0.0682 -0.4386 -0.5409
14275TIP3    H142761   1.656   7.103   1.998 -0.0888  2.0755  1.0420
14275TIP3    H242762   1.566   7.010   2.076  1.2636  0.4506  0.6763
14276TIP3   OH242763   1.314   7.257   1.304 -0.3735 -0.5120  0.3209
14276TIP3    H142764   1.233   7.214   1.331 -0.3063 -0.7920  0.0885
14276TIP3    H242765   1.325   7.232   1.212  0.5704 -1.4397  0.6654
14277TIP3   OH242766   2.190   7.409   2.140  0.7056  0.1477  0.2207
14277TIP3    H142767   2.135   7.459   2.199 -0.4998  0.2079 -0.9234
14277TIP3    H242768   2.276   7.452   2.143  0.2937  0.9185  0.9199
14278TIP3   OH242769   1.341   7.451   2.197  0.2364 -0.4185 -1.0041
14278TIP3    H142770   1.370   7.496   2.118  2.3882 -1.8629 -1.0719
14278TIP3    H242771   1.337   7.359   2.172 -0.2628 -0.7440  0.2283
14279TIP3   OH242772   5.987   2.631   1.232  0.5942 -0.1722 -0.1736
14279TIP3    H142773   6.008   2.588   1.315  3.5539 -0.9527 -1.2756
14279TIP3    H242774   6.018   2.571   1.165  0.0023  1.3353 -1.8355
14280TIP3   OH242775   2.187   2.824   1.429  0.1046 -0.2372  0.0455
14280TIP3    H142776   2.145   2.865   1.353  0.1897 -0.7036 -0.2563
14280TIP3    H242777   2.202   2.896   1.490 -0.2733  0.0875 -0.2400
14281TIP3   OH242778   4.436   2.763   0.089  0.5881  0.1578 -0.3326
14281TIP3    H142779   4.385   2.683   0.071  1.8228 -0.9517  1.0089
14281TIP3    H242780   4.502   2.765   0.020  1.9333 -1.1975  0.8669
14282TIP3   OH242781   2.946   2.021   0.527  0.1655  0.2078  0.0911
14282TIP3    H142782   2.993   2.036   0.445  0.6322 -1.5745 -0.0054
14282TIP3    H242783   3.015   2.005   0.592 -0.1633  2.5933  1.0771
14283TIP3   OH242784   3.836   0.929   0.956 -0.3841  0.3188 -0.3920
14283TIP3    H142785   3.832   0.924   0.861 -0.3317  1.5387 -0.4674
14283TIP3    H242786   3.870   0.844   0.983  0.6193  0.3403 -1.5377
14284TIP3   OH242787   5.708   2.147   0.385 -0.5880  0.0969 -0.5932
14284TIP3    H142788   5.758   2.215   0.430 -1.9908  0.7959 -0.0462
14284TIP3    H242789   5.689   2.183   0.299 -0.3916 -0.0528 -0.6997
14285TIP3   OH242790   0.611   5.909   5.032 -0.5148 -0.0567 -0.1867
14285TIP3    H142791   0.615   5.838   5.097  0.2864 -0.4905 -0.6925
14285TIP3    H242792   0.568   5.981   5.078 -0.7874 -0.6674  0.5362
14286TIP3   OH242793   6.856   2.920   6.771  0.1903 -0.3338  0.8445
14286TIP3    H142794   6.769   2.910   6.733  0.5165 -2.7418  0.6442
14286TIP3    H242795   6.841   2.929   6.865 -0.1836 -3.3994  1.1196
14287TIP3   OH242796   7.908   4.474   6.862 -0.8808 -0.2949  0.2722
14287TIP3    H142797   7.966   4.415   6.910  0.9649  0.2874 -1.2098
14287TIP3    H242798   7.886   4.427   6.782 -0.0107  0.7141 -0.5670
14288TIP3   OH242799   4.096   0.607   0.416 -0.4531 -1.4427 -0.5030
14288TIP3    H142800   4.090   0.651   0.331  0.7993 -0.9892 -0.3827
14288TIP3    H242801   4.016   0.632   0.462 -0.5385 -0.6250 -1.0762
14289TIP3   OH242802   8.178   5.266   4.134 -0.0786 -0.3229  0.8548
14289TIP3    H142803   8.240   5.193   4.128  0.1792 -0.0893  0.6606
14289TIP3    H242804   8.135   5.254   4.219 -1.9164 -2.1997 -0.2641
14290TIP3   OH242805   3.468   0.773   1.602  0.3972  0.7448 -0.5085
14290TIP3    H142806   3.387   0.789   1.554 -0.7648  0.0330  1.1867
14290TIP3    H242807   3.535   0.766   1.534 -1.1170  0.3049 -1.9854
14291TIP3   OH242808   4.266   1.318   0.260  1.0715 -0.0799  0.9723
14291TIP3    H142809   4.181   1.359   0.276  0.3316 -2.1249  2.4167
14291TIP3    H242810   4.262   1.235   0.307  2.7396 -1.5935 -1.4913
14292TIP3   OH242811   1.310   5.044   6.468 -0.1660  0.4813  0.1046
14292TIP3    H142812   1.332   4.959   6.505  0.2348  0.2002 -0.7643
14292TIP3    H242813   1.250   5.024   6.396  2.2267  0.6684 -2.0112
14293TIP3   OH242814   3.359   0.141   0.158 -0.0167 -0.4279 -0.6840
14293TIP3    H142815   3.345   0.110   0.068  0.6899 -0.8453 -0.6526
14293TIP3    H242816   3.281   0.111   0.206 -0.0786 -0.7940 -1.0068
14294TIP3   OH242817   5.852   5.824   4.527  0.0756 -0.3748  0.0410
14294TIP3    H142818   5.920   5.803   4.591  0.2536  1.1282  0.3598
14294TIP3    H242819   5.836   5.918   4.539  0.8179  0.1661 -2.7805
14295TIP3   OH242820   7.671   4.716   6.709  0.2946  0.1343  0.5913
14295TIP3    H142821   7.576   4.720   6.706  0.2929 -0.7269 -0.6460
14295TIP3    H242822   7.690   4.675   6.794 -0.4992 -1.3412  0.0804
14296TIP3   OH242823   5.463   4.057   6.233 -0.9699  0.0858 -0.4862
14296TIP3    H142824   5.520   4.041   6.158  0.3833 -3.4304  1.1811
14296TIP3    H242825   5.374   4.059   6.196 -0.1803  0.7284 -2.4241
14297TIP3   OH242826   7.876   3.526   6.424  0.1130  0.3582 -0.1047
14297TIP3    H142827   7.780   3.527   6.425  0.1187  0.6608  0.1997
14297TIP3    H242828   7.899   3.481   6.343 -0.2856  1.2676 -0.7269
14298TIP3   OH242829   4.204   3.526   0.308  0.2133  0.0504  0.3945
14298TIP3    H142830   4.110   3.508   0.299 -0.0753  0.1036  2.8799
14298TIP3    H242831   4.210   3.621   0.316  0.3374 -0.0491  1.5581
14299TIP3   OH242832   4.543   4.051   0.484 -0.9101  0.0357 -0.0445
14299TIP3    H142833   4.581   4.099   0.410 -2.9875  1.9095  0.0658
14299TIP3    H242834   4.510   4.119   0.543 -0.5686 -1.4638  1.9593
14300TIP3   OH242835   4.799   4.066   1.493 -0.0285 -0.2895 -0.0761
14300TIP3    H142836   4.867   4.110   1.543  0.5412 -0.7516 -0.4332
14300TIP3    H242837   4.846   3.999   1.442 -0.5505  0.3480 -1.4303
14301TIP3   OH242838   6.760   7.320   5.185  0.0359  0.1719  0.4984
14301TIP3    H142839   6.695   7.356   5.125  0.5217  0.2479  0.0158
14301TIP3    H242840   6.738   7.227   5.192 -0.5149  0.3289  0.8372
14302TIP3   OH242841   4.379   0.634   1.339  0.0154 -0.1349 -0.5239
14302TIP3    H142842   4.295   0.679   1.334 -1.5169 -2.8431  0.2958
14302TIP3    H242843   4.426   0.663   1.260 -2.4490 -0.0834 -2.0282
14303TIP3   OH242844   1.600   4.840   6.683 -0.6722 -0.2097  0.1376
14303TIP3    H142845   1.601   4.935   6.693  1.4914  0.1988 -3.1883
14303TIP3    H242846   1.511   4.820   6.654 -0.5107  1.1107 -1.3388
14304TIP3   OH242847   5.857   4.364   6.192  0.0669  0.1260  0.0442
14304TIP3    H142848   5.821   4.453   6.187 -0.2851 -0.0439 -0.5667
14304TIP3    H242849   5.821   4.329   6.274  1.0423  0.8988  0.8116
14305TIP3   OH242850   3.587   1.961   0.472  0.1412 -0.1550 -0.2311
14305TIP3    H142851   3.573   1.877   0.428 -0.3202 -0.5898  0.7274
14305TIP3    H242852   3.586   1.940   0.565  0.0702  0.9088  0.0178
14306TIP3   OH242853   8.286   5.237   6.634 -0.3310  0.7518  0.0571
14306TIP3    H142854   8.311   5.145   6.644  1.2378  0.6484 -3.7815
14306TIP3    H242855   8.192   5.235   6.618 -0.3944 -0.1366  0.5133
14307TIP3   OH242856   4.138   0.267   1.941 -0.1825  0.3860 -0.0848
14307TIP3    H142857   4.082   0.263   1.863 -0.3102  1.8313 -0.0732
14307TIP3    H242858   4.176   0.179   1.947  0.5764  0.5284 -2.3471
14308TIP3   OH242859   0.909   6.303   6.854  0.1647 -0.3083 -0.4539
14308TIP3    H142860   0.995   6.262   6.865 -0.3185 -2.0688 -2.7692
14308TIP3    H242861   0.849   6.245   6.901 -0.2270 -1.1676 -1.9598
14309TIP3   OH242862   5.347   2.774   5.974  0.9202 -0.0334 -0.1419
14309TIP3    H142863   5.277   2.747   6.033 -0.2854  0.6282 -1.2391
14309TIP3    H242864   5.415   2.810   6.031  0.1505 -0.2087  0.8944
14310TIP3   OH242865   4.976   3.903   5.494  0.1380  0.1986  0.4427
14310TIP3    H142866   4.944   3.965   5.559  0.9891 -0.4213  1.4615
14310TIP3    H242867   4.897   3.873   5.449 -0.3965  1.0415  0.8044
14311TIP3   OH242868   6.259   5.337   5.064 -0.5378  0.5587 -0.2559
14311TIP3    H142869   6.232   5.336   5.156  0.1872  1.6079 -0.0257
14311TIP3    H242870   6.200   5.276   5.021 -0.4054 -0.5085  1.0495
14312TIP3   OH242871   5.070   1.825   1.123  0.6163 -0.1171  0.2527
14312TIP3    H142872   5.052   1.752   1.183 -1.0677  0.5888  0.6343
14312TIP3    H242873   5.025   1.801   1.043 -1.5805  1.3774  1.0032
14313TIP3   OH242874   3.833   1.443   1.727 -0.4047 -0.1626 -0.3001
14313TIP3    H142875   3.816   1.519   1.671 -0.8986 -0.2442 -0.2550
14313TIP3    H242876   3.859   1.374   1.665 -1.8489 -0.5240 -0.5225
14314TIP3   OH242877   2.743   7.725   3.809  0.0818  0.0572 -0.0496
14314TIP3    H142878   2.687   7.724   3.887 -1.4708  0.6822 -1.1143
14314TIP3    H242879   2.772   7.635   3.798  0.0362 -0.0965  1.0512
14315TIP3   OH242880   6.043   5.996   6.486  0.0781  0.2795 -0.0146
14315TIP3    H142881   6.059   5.934   6.415  1.3578 -0.0261  0.5177
14315TIP3    H242882   6.129   6.008   6.527 -0.2459  2.0733  0.1611
14316TIP3   OH242883   0.643   5.186   5.941  0.1764 -0.6807 -0.0616
14316TIP3    H142884   0.718   5.135   5.911 -0.3674 -1.4752 -0.0715
14316TIP3    H242885   0.675   5.276   5.943  0.2859 -0.6006 -2.9083
14317TIP3   OH242886   8.361   6.426   5.827  0.2293  0.5335 -0.2997
14317TIP3    H142887   8.338   6.343   5.869 -0.7481  1.2694  0.6489
14317TIP3    H242888   8.290   6.443   5.766  0.6558  0.4634 -0.8242
14318TIP3   OH242889   1.806   7.025   6.266  0.3931 -0.2016  0.0405
14318TIP3    H142890   1.826   7.110   6.227 -0.7826 -0.3813 -0.9576
14318TIP3    H242891   1.892   6.984   6.277  0.6921 -0.5665 -3.2736
14319TIP3   OH242892   2.905   5.075   6.411 -0.5359 -0.2303  0.3534
14319TIP3    H142893   2.942   5.142   6.354 -1.6312  1.6103  1.7672
14319TIP3    H242894   2.815   5.103   6.427 -0.4968 -1.1327  2.3136
14320TIP3   OH242895   8.456   5.371   6.480 -0.5223  0.1350 -0.1125
14320TIP3    H142896   8.390   5.319   6.525  0.6243 -2.0335 -0.8801
14320TIP3    H242897   8.513   5.402   6.551  0.9258 -2.7629  0.0459
14321TIP3   OH242898   7.934   4.802   6.651 -0.1317  0.4275  0.5993
14321TIP3    H142899   7.936   4.891   6.616 -1.3137 -0.0042 -0.6092
14321TIP3    H242900   7.842   4.788   6.674  0.7290  1.0055  4.7694
14322TIP3   OH242901   0.786   6.407   4.611 -0.3414 -0.1419  0.1008
14322TIP3    H142902   0.716   6.451   4.564 -1.8645 -0.2763  2.2195
14322TIP3    H242903   0.755   6.399   4.701  2.4884  0.0364  1.1502
14323TIP3   OH242904   7.261   7.459   5.926  0.1156  0.0437 -0.0353
14323TIP3    H142905   7.304   7.389   5.876  2.9439  1.1181  0.8115
14323TIP3    H242906   7.262   7.534   5.867 -1.5724 -0.2070 -0.3925
14324TIP3   OH242907   0.487   7.990   5.855  0.4800 -0.9339 -0.3299
14324TIP3    H142908   0.431   7.952   5.923  0.3274  0.0513  0.0943
14324TIP3    H242909   0.546   8.048   5.902 -0.2823  0.5345 -1.1349
14325TIP3   OH242910   8.101   4.665   6.839  0.0185 -0.5249  0.1495
14325TIP3    H142911   8.056   4.582   6.855  1.1795 -0.9697  1.1234
14325TIP3    H242912   8.041   4.713   6.782 -2.5745 -0.3657  2.8760
14326TIP3   OH242913   0.153   4.147   5.511  0.5557 -0.0317 -0.7549
14326TIP3    H142914   0.066   4.184   5.497  2.1740  3.5712 -1.8115
14326TIP3    H242915   0.171   4.098   5.430 -0.0264  0.1830 -1.0171
14327TIP3   OH242916   0.327   6.305   4.004  0.4032 -0.0494 -0.3328
14327TIP3    H142917   0.400   6.255   3.967  0.4020  0.3625 -0.8853
14327TIP3    H242918   0.266   6.315   3.932  0.9638  1.8311 -0.5620
14328TIP3   OH242919   3.745   1.455   0.262  0.2886  0.9666  0.3283
14328TIP3    H142920   3.828   1.483   0.221  1.0495 -1.4316  0.1859
14328TIP3    H242921   3.772   1.397   0.333 -1.2851  0.2721  0.3695
14329TIP3   OH242922   5.323   3.534   0.901  0.0634 -0.1058 -0.4385
14329TIP3    H142923   5.387   3.463   0.901  2.3169  1.8544  1.2511
14329TIP3    H242924   5.340   3.581   0.819 -2.1407 -2.0545 -2.0826
14330TIP3   OH242925   7.250   3.498   0.540 -0.2548 -0.2600 -0.3439
14330TIP3    H142926   7.184   3.473   0.475  0.8089 -2.3588 -0.6591
14330TIP3    H242927   7.233   3.441   0.615 -0.3513  0.9138  0.5389
14331TIP3   OH242928   7.341   5.333   6.224  0.2983 -0.4323 -0.0873
14331TIP3    H142929   7.403   5.395   6.186 -0.6072  0.5674  0.0397
14331TIP3    H242930   7.358   5.251   6.178  1.6357 -0.1448 -0.1302
14332TIP3   OH242931   5.891   3.292   0.437 -0.1016 -0.0230  0.4676
14332TIP3    H142932   5.947   3.315   0.363 -1.1316  2.0081  0.2786
14332TIP3    H242933   5.895   3.368   0.495 -1.4320 -0.4850  1.1875
14333TIP3   OH242934  -0.013   6.685   3.510  0.2222  0.9049 -0.2448
14333TIP3    H142935   0.065   6.739   3.524 -0.1742  1.4843 -0.2986
14333TIP3    H242936  -0.012   6.665   3.416 -0.1257  1.5621 -0.3869
14334TIP3   OH242937   0.492   5.808   4.459  0.3026  0.0390  0.8556
14334TIP3    H142938   0.508   5.732   4.403  1.4099  1.9235 -1.4659
14334TIP3    H242939   0.503   5.883   4.401  0.2777  2.0199  3.3473
14335TIP3   OH242940   7.239   5.994   5.424  0.3860  0.4227  0.0739
14335TIP3    H142941   7.293   5.997   5.504 -2.0872  0.3302  1.8197
14335TIP3    H242942   7.188   5.914   5.433 -1.9267  1.8044 -0.2039
14336TIP3   OH242943   0.197   4.746   5.936  0.0435 -0.7702 -0.2084
14336TIP3    H142944   0.242   4.691   6.000  0.6011  0.9735  0.9279
14336TIP3    H242945   0.104   4.729   5.951  0.1880 -0.7576  0.7039
14337TIP3   OH242946   6.297   5.339   6.641 -0.4226  0.1616 -0.4765
14337TIP3    H142947   6.231   5.308   6.578 -0.7309  0.5896 -0.3667
14337TIP3    H242948   6.343   5.409   6.595  0.1176 -0.2970 -0.6376
14338TIP3   OH242949   6.937   5.363   4.946 -0.2816 -0.3215 -0.0674
14338TIP3    H142950   6.856   5.412   4.933 -0.2012 -0.2868 -0.4485
14338TIP3    H242951   6.996   5.424   4.990 -0.5966 -0.4773  0.5843
14339TIP3   OH242952   3.878   2.716   2.422  0.2863 -0.8303  0.5514
14339TIP3    H142953   3.907   2.625   2.429  3.5595  0.0458 -0.3064
14339TIP3    H242954   3.783   2.712   2.424  0.3897 -4.1675  1.5890
14340TIP3   OH242955   0.688   5.231   3.471 -0.0024 -0.1526 -0.5559
14340TIP3    H142956   0.696   5.152   3.524  0.8161  0.3093  0.0408
14340TIP3    H242957   0.756   5.222   3.404 -0.0066 -0.0197 -0.5780
14341TIP3   OH242958   7.311   6.348   5.147  0.2025  0.2779 -0.0771
14341TIP3    H142959   7.377   6.326   5.213 -2.1761 -1.6744  1.7602
14341TIP3    H242960   7.282   6.436   5.170  3.3188  1.9265 -1.9808
14342TIP3   OH242961   0.507   3.309   3.012 -0.1757 -0.4764 -0.2379
14342TIP3    H142962   0.529   3.216   3.014  0.6634 -0.2870 -0.6508
14342TIP3    H242963   0.571   3.348   2.953  0.5438  0.6340  1.2445
14343TIP3   OH242964   7.547   2.145   1.185  0.0147  0.1564  0.1737
14343TIP3    H142965   7.641   2.135   1.204  0.5082  1.4690 -1.4047
14343TIP3    H242966   7.513   2.194   1.260  0.8659  0.7609  0.1782
14344TIP3   OH242967   7.183   2.253   2.407 -0.0474 -0.0456 -0.1537
14344TIP3    H142968   7.102   2.302   2.414  0.5811  0.7744  1.7521
14344TIP3    H242969   7.247   2.305   2.456  1.3056 -1.3396 -0.5060
14345TIP3   OH242970   5.737   1.606   1.437 -0.4733 -0.4718  0.0573
14345TIP3    H142971   5.732   1.701   1.433  0.0807 -0.4990 -1.7061
14345TIP3    H242972   5.822   1.588   1.478 -0.5042 -0.1948  0.2385
14346TIP3   OH242973   6.425   1.226   0.934 -0.3291 -0.6504  0.3118
14346TIP3    H142974   6.442   1.132   0.941  1.2810 -0.3695  0.4294
14346TIP3    H242975   6.480   1.266   1.001  2.5576  0.7220 -2.7134
14347TIP3   OH242976   6.913   2.848   2.038  0.1051  0.2266  0.1607
14347TIP3    H142977   6.975   2.904   1.990 -0.0683 -0.3081 -0.6986
14347TIP3    H242978   6.948   2.845   2.127  1.4233 -0.2315 -0.3629
14348TIP3   OH242979   6.599   1.194   2.292 -0.1968  0.1638  0.0686
14348TIP3    H142980   6.512   1.196   2.332 -0.3675  1.5852 -0.3633
14348TIP3    H242981   6.584   1.208   2.199  0.4722  0.0083 -0.0679
14349TIP3   OH242982   0.599   1.399   2.043 -0.8679 -0.6472  0.6155
14349TIP3    H142983   0.598   1.310   2.008 -0.2939 -0.8672  1.1438
14349TIP3    H242984   0.680   1.403   2.094 -0.5037  0.4188 -0.0266
14350TIP3   OH242985   5.287   2.305   4.541 -0.1536  0.7668 -0.0838
14350TIP3    H142986   5.289   2.226   4.487  0.1567  0.2808  0.6402
14350TIP3    H242987   5.199   2.308   4.577  0.1006  0.2712  0.5921
14351TIP3   OH242988   6.796   2.340   0.523  0.2776 -0.0527 -0.4237
14351TIP3    H142989   6.749   2.304   0.448 -0.1788 -0.6912  0.1697
14351TIP3    H242990   6.888   2.341   0.495  0.1804 -0.8233 -0.7729
14352TIP3   OH242991   6.991   0.840   0.092  0.5910 -0.2285 -0.6279
14352TIP3    H142992   6.986   0.788   0.012  0.2619  2.0794 -2.1528
14352TIP3    H242993   6.947   0.786   0.158 -0.8383 -1.3403 -2.4329
14353TIP3   OH242994   1.628   7.802   3.668  0.2999  0.6559 -0.3412
14353TIP3    H142995   1.667   7.823   3.753  0.9784 -0.5463 -0.3350
14353TIP3    H242996   1.685   7.846   3.605  0.6397  0.3635 -0.2417
14354TIP3   OH242997   2.175   4.765   6.236  0.1837  0.6498 -0.3796
14354TIP3    H142998   2.129   4.825   6.177  0.1723 -0.4487 -1.5205
14354TIP3    H242999   2.261   4.752   6.195  0.0371 -0.4170 -0.3807
14355TIP3   OH243000   7.230   1.774   1.117 -0.1428 -0.0735  0.0661
14355TIP3    H143001   7.308   1.730   1.149 -0.7404 -0.6243  0.7895
14355TIP3    H243002   7.209   1.730   1.035 -0.1537 -0.4548  0.2749
14356TIP3   OH243003   8.027   1.715   0.713 -0.3452  0.3866 -0.8385
14356TIP3    H143004   8.096   1.656   0.744 -0.5299  0.4558 -0.2895
14356TIP3    H243005   7.957   1.657   0.683  1.0263  0.2388 -4.0021
14357TIP3   OH243006   6.090   3.789   0.655 -0.4248  0.1187  0.0975
14357TIP3    H143007   6.130   3.868   0.620  0.5031 -1.4034 -2.4148
14357TIP3    H243008   6.069   3.811   0.746  2.4031  2.3273  0.2921
14358TIP3   OH243009   0.799   7.026   5.625 -0.4165 -0.0180  0.1991
14358TIP3    H143010   0.733   7.051   5.691 -2.0559  1.4818 -1.9420
14358TIP3    H243011   0.749   7.018   5.544  1.6071 -1.7074 -0.9247
14359TIP3   OH243012   5.635   2.378   1.025 -0.3079  0.0548 -0.0483
14359TIP3    H143013   5.565   2.427   0.982 -0.2516  1.5016  1.4175
14359TIP3    H243014   5.618   2.287   1.003 -1.9615  0.4971 -0.7040
14360TIP3   OH243015   3.699   7.570   2.140  0.0532 -0.0991  0.4565
14360TIP3    H143016   3.660   7.598   2.223 -0.2420 -3.1201  1.3939
14360TIP3    H243017   3.792   7.589   2.148 -0.0083 -0.2180  1.4322
14361TIP3   OH243018   0.163   2.942   3.228 -0.2665 -0.1898 -1.2435
14361TIP3    H143019   0.207   2.864   3.261 -0.7427  0.1646  0.2746
14361TIP3    H243020   0.156   2.999   3.304  0.9240  1.7399 -2.5169
14362TIP3   OH243021   7.076   1.714   2.230  0.0404  0.3612 -0.3464
14362TIP3    H143022   6.996   1.686   2.275  0.8690 -0.9853  0.3142
14362TIP3    H243023   7.105   1.791   2.279 -0.1507  0.0834  0.2095
14363TIP3   OH243024   5.980   1.042   1.112 -0.5011  0.0724  0.4231
14363TIP3    H143025   5.998   0.996   1.030  1.3606  0.4278  0.6000
14363TIP3    H243026   5.958   1.131   1.084 -0.8152 -0.0563  0.2578
14364TIP3   OH243027   6.887   2.538   1.049  0.1747  0.0368  0.7762
14364TIP3    H143028   6.810   2.503   1.004 -0.8115  0.7041  1.9140
14364TIP3    H243029   6.947   2.464   1.054  0.7043  0.2070 -2.4630
14365TIP3   OH243030   7.979   3.676   1.347 -0.3705  0.3678  0.1878
14365TIP3    H143031   7.967   3.581   1.345  0.5171  0.2554 -0.0340
14365TIP3    H243032   7.945   3.706   1.262 -2.4051  0.4771  1.0081
14366TIP3   OH243033   7.152   1.733   0.595 -0.1073 -0.3021  0.0814
14366TIP3    H143034   7.129   1.655   0.545 -0.1185 -0.0755 -0.2732
14366TIP3    H243035   7.232   1.765   0.553 -0.5342  0.3167 -0.2663
14367TIP3   OH243036   6.615   2.764   2.254  0.2479  0.0493  0.3151
14367TIP3    H143037   6.635   2.853   2.227 -0.9384 -0.4278 -2.3647
14367TIP3    H243038   6.617   2.713   2.172 -1.3845 -1.9243  1.4298
14368TIP3   OH243039   8.173   0.603   1.344 -0.1797  0.3470 -0.0984
14368TIP3    H143040   8.153   0.696   1.358 -0.6028  0.3766 -0.9206
14368TIP3    H243041   8.246   0.586   1.404  0.2034  1.3251 -0.2712
14369TIP3   OH243042   7.872   5.176   1.934 -0.3760  0.6137 -0.4039
14369TIP3    H143043   7.965   5.178   1.911  0.1567  1.1569  1.6751
14369TIP3    H243044   7.828   5.224   1.864  0.9215  0.4566 -1.3354
14370TIP3   OH243045   2.305   4.541   6.738  0.4915 -0.3167 -0.3233
14370TIP3    H143046   2.381   4.514   6.790 -0.8547  0.1775  2.0228
14370TIP3    H243047   2.282   4.463   6.687  0.9298 -1.3567  1.0190
14371TIP3   OH243048   7.049   1.092   2.150  0.1056 -0.0072  0.2953
14371TIP3    H143049   7.091   1.056   2.072 -0.6651  0.4645 -0.3483
14371TIP3    H243050   7.119   1.135   2.198  0.2553  1.3762 -1.1190
14372TIP3   OH243051   4.845   1.669   1.575  0.1295 -0.0942 -0.2399
14372TIP3    H143052   4.932   1.662   1.536 -0.9617 -0.5695 -2.6886
14372TIP3    H243053   4.826   1.581   1.608  1.2500  0.4249  1.8257
14373TIP3   OH243054   7.094   1.897   1.323  0.3572  0.3393  0.1289
14373TIP3    H143055   7.159   1.955   1.362  0.7301 -0.3720  0.5669
14373TIP3    H243056   7.143   1.844   1.260  0.5798 -1.5215  1.8224
14374TIP3   OH243057   7.234   0.717   1.597  0.0515  0.6355 -0.6840
14374TIP3    H143058   7.312   0.768   1.574 -0.1692  1.2115 -0.1560
14374TIP3    H243059   7.162   0.764   1.555 -0.0550  0.3286 -0.8387
14375TIP3   OH243060   1.107   5.240   6.479  0.3838  0.4337  0.5505
14375TIP3    H143061   1.145   5.158   6.511  1.7961  0.2863 -1.3896
14375TIP3    H243062   1.077   5.219   6.390  1.5650  2.2374 -0.2910
14376TIP3   OH243063   6.060   2.458   1.776  0.1714  0.0341  0.4619
14376TIP3    H143064   6.014   2.385   1.817 -1.3274 -0.0689 -1.3324
14376TIP3    H243065   6.074   2.430   1.685  0.4835  1.5616  0.0181
14377TIP3   OH243066   7.348   2.073   4.344 -0.2046 -0.4467  0.2574
14377TIP3    H143067   7.419   2.081   4.408  0.1944  1.4074 -0.4102
14377TIP3    H243068   7.273   2.112   4.388 -0.3596 -0.7438  0.2556
14378TIP3   OH243069   6.123   1.402   4.929  0.2205 -0.0086 -0.1976
14378TIP3    H143070   6.115   1.385   5.023  1.4567  0.0304 -0.0740
14378TIP3    H243071   6.168   1.487   4.924  0.0361  0.0585 -0.8327
14379TIP3   OH243072   0.983   4.850   5.462  0.0197  0.4447  0.4395
14379TIP3    H143073   1.055   4.912   5.479 -0.7894  2.7106 -3.6677
14379TIP3    H243074   0.908   4.887   5.509  1.0260 -0.9800  3.2844
14380TIP3   OH243075   7.054   2.949   0.878 -0.0476  0.5091 -0.5751
14380TIP3    H143076   7.096   2.957   0.792  0.4846 -0.8647 -0.4543
14380TIP3    H243077   7.074   2.860   0.906  0.6325  1.2738  1.4418
14381TIP3   OH243078   1.811   2.658   2.087 -0.4968 -0.2014 -0.2535
14381TIP3    H143079   1.797   2.667   2.181 -1.4035  3.0910 -0.6608
14381TIP3    H243080   1.902   2.629   2.079 -0.7076 -1.4546  1.6432
14382TIP3   OH243081   0.708   1.513   1.818 -0.2496  0.2449  0.0078
14382TIP3    H143082   0.799   1.484   1.816 -0.6205 -0.9467  0.0298
14382TIP3    H243083   0.677   1.493   1.906 -1.2728 -1.7325 -0.7716
14383TIP3   OH243084   0.648   3.777   0.192 -0.0369 -0.0756  0.2183
14383TIP3    H143085   0.701   3.857   0.185 -2.0610  1.5645  2.6493
14383TIP3    H243086   0.579   3.799   0.255 -0.3370 -3.9409  1.3838
14384TIP3   OH243087   0.296   1.453   1.180  0.2419  0.5767  0.7301
14384TIP3    H143088   0.260   1.365   1.172 -0.4275  0.8652  0.4977
14384TIP3    H243089   0.377   1.442   1.230  1.6875 -0.5519 -1.7380
14385TIP3   OH243090   0.727   2.354   1.879  0.1538 -0.4060 -0.1805
14385TIP3    H143091   0.654   2.305   1.916  1.3540 -1.1405  1.2972
14385TIP3    H243092   0.749   2.307   1.799 -2.2091  0.9533 -1.6811
14386TIP3   OH243093   3.228   7.818   4.885  0.0567  0.2018 -0.1235
14386TIP3    H143094   3.275   7.781   4.811 -0.8669 -0.1069 -0.5510
14386TIP3    H243095   3.295   7.826   4.954  1.2250  1.7338 -1.3976
14387TIP3   OH243096   7.661   1.840   1.449 -0.3617  0.3493 -0.0937
14387TIP3    H143097   7.661   1.825   1.355 -0.3913  1.5860 -0.2908
14387TIP3    H243098   7.571   1.821   1.476 -0.8534  1.8655 -0.6220
14388TIP3   OH243099   4.082   2.335   1.061 -0.8374  1.2025  0.0440
14388TIP3    H143100   4.059   2.427   1.049 -3.0279  0.7192  0.3344
14388TIP3    H243101   4.070   2.319   1.154 -1.4782  0.3529 -0.1813
14389TIP3   OH243102   2.020   1.643   3.264  0.3678  0.7899  0.0643
14389TIP3    H143103   1.939   1.694   3.263  0.8325  1.5339 -0.7955
14389TIP3    H243104   1.995   1.559   3.225 -0.4257  0.3096  1.5875
14390TIP3   OH243105   1.140   1.122   2.077 -0.2125  0.3558  0.2253
14390TIP3    H143106   1.212   1.165   2.032  0.1528  0.2556  0.7151
14390TIP3    H243107   1.161   1.130   2.170  0.1543 -1.4072  0.3085
14391TIP3   OH243108   1.114   2.574   2.524 -0.1755  0.3313 -0.3118
14391TIP3    H143109   1.078   2.662   2.511 -0.0576  0.6864  1.5619
14391TIP3    H243110   1.079   2.547   2.609 -0.8725 -1.7760 -1.2339
14392TIP3   OH243111   5.251   2.024   0.220 -1.3286  0.0091 -0.2806
14392TIP3    H143112   5.239   2.061   0.307  0.1820  0.4734 -0.2520
14392TIP3    H243113   5.167   1.983   0.199 -1.9575  0.6002  1.0501
14393TIP3   OH243114   1.958   2.220   0.102 -0.1132 -0.2057 -0.3632
14393TIP3    H143115   1.954   2.129   0.075 -0.2897 -0.2503 -0.1870
14393TIP3    H243116   1.866   2.247   0.112 -0.0534 -0.5745  1.4655
14394TIP3   OH243117   1.427   3.763   2.534  0.7808  0.4180 -0.3605
14394TIP3    H143118   1.466   3.679   2.558 -1.1938 -0.1908  0.8185
14394TIP3    H243119   1.439   3.818   2.611 -0.2145  0.3893 -0.1770
14395TIP3   OH243120   0.790   3.821   4.073 -0.3018 -0.4315  0.5544
14395TIP3    H143121   0.761   3.732   4.054  0.7162 -0.6427 -0.0578
14395TIP3    H243122   0.711   3.874   4.067 -0.5823 -1.0026 -1.0939
14396TIP3   OH243123   0.870   3.357   0.241 -0.0179 -0.7763 -0.3247
14396TIP3    H143124   0.802   3.418   0.268 -0.4763 -0.5606 -1.9208
14396TIP3    H243125   0.911   3.399   0.166  1.9447 -0.8609  0.6639
14397TIP3   OH243126   2.115   4.971   0.748 -0.3540 -0.1941 -0.5384
14397TIP3    H143127   2.050   4.932   0.690 -0.9001  0.8337 -0.6420
14397TIP3    H243128   2.066   4.996   0.826 -0.2104  1.0867 -0.8395
14398TIP3   OH243129   2.084   2.613   1.290  0.5687  0.1485 -0.4964
14398TIP3    H143130   2.165   2.592   1.242  1.6525  0.4705  1.1519
14398TIP3    H243131   2.111   2.678   1.355 -1.3666  1.4685 -1.0037
14399TIP3   OH243132   1.387   3.183   1.298  0.5145  0.4342 -0.1315
14399TIP3    H143133   1.393   3.278   1.297  2.5419  0.3691  1.0234
14399TIP3    H243134   1.474   3.154   1.269  0.1361 -1.0434  0.1781
14400TIP3   OH243135   5.185   5.811   6.860 -0.4863  0.3350  0.4767
14400TIP3    H143136   5.176   5.814   6.955  1.6735 -1.7721  0.7956
14400TIP3    H243137   5.169   5.719   6.838  0.6818  0.4813 -1.0265
14401TIP3   OH243138   1.001   0.268   1.938  0.3533 -0.0465 -0.2271
14401TIP3    H143139   1.069   0.256   2.005 -1.7063 -0.8506  1.7646
14401TIP3    H243140   1.028   0.209   1.867  1.1227 -1.2274  1.0174
14402TIP3   OH243141   0.775   2.075   1.999  0.1554  0.0814  0.3831
14402TIP3    H143142   0.846   2.059   1.936 -0.7769 -0.1678 -0.6186
14402TIP3    H243143   0.759   1.990   2.039  0.7726  0.2469  1.0003
14403TIP3   OH243144   6.836   0.440   5.849  0.5887 -0.1385 -0.3909
14403TIP3    H143145   6.885   0.421   5.769  0.8511 -1.3033  0.0381
14403TIP3    H243146   6.890   0.404   5.919 -1.4501 -2.5667 -0.0017
14404TIP3   OH243147   2.855   2.536   1.364  0.0590  0.0497  0.5136
14404TIP3    H143148   2.869   2.630   1.350 -0.2175 -0.0122 -0.2379
14404TIP3    H243149   2.903   2.494   1.292  1.7288 -0.4829  1.8974
14405TIP3   OH243150   5.305   7.362   6.689 -0.3805 -0.1053  0.2623
14405TIP3    H143151   5.227   7.324   6.649 -0.6334  0.6702  0.0014
14405TIP3    H243152   5.331   7.299   6.757 -2.0651  0.3109  1.3153
14406TIP3   OH243153   8.030   4.583   2.265  0.8492  0.2550 -0.1114
14406TIP3    H143154   8.016   4.535   2.347  0.9764  2.0894  1.0121
14406TIP3    H243155   8.124   4.576   2.250  0.8802  0.2271  0.0904
14407TIP3   OH243156   3.327   6.070   6.034  0.1995  0.5589  0.0429
14407TIP3    H143157   3.395   6.010   6.065 -0.6450 -0.5910 -0.3019
14407TIP3    H243158   3.297   6.115   6.113 -0.3076 -0.6564  0.5492
14408TIP3   OH243159   1.525   3.502   2.565 -1.0516  0.3310 -0.0785
14408TIP3    H143160   1.518   3.407   2.578 -0.5744  0.6066  2.4334
14408TIP3    H243161   1.493   3.516   2.476 -1.1171 -2.1874 -0.4996
14409TIP3   OH243162   7.319   2.715   1.529 -0.1134 -0.0924  0.0532
14409TIP3    H143163   7.246   2.761   1.569 -0.9830 -0.5036 -1.0491
14409TIP3    H243164   7.289   2.625   1.520 -0.5812  0.3114 -3.0069
14410TIP3   OH243165   0.139   3.409   1.409  0.4841 -0.0696  0.2606
14410TIP3    H143166   0.121   3.330   1.459 -1.8930 -0.1237 -0.5959
14410TIP3    H243167   0.203   3.382   1.343 -0.5744 -1.3963 -0.2532
14411TIP3   OH243168   1.539   2.520   2.122  0.0698  0.0043 -0.3555
14411TIP3    H143169   1.547   2.509   2.217 -0.8391  0.0092 -0.2735
14411TIP3    H243170   1.589   2.599   2.102 -0.7257  0.6773  0.2908
14412TIP3   OH243171   1.320   0.023   1.414 -0.1146  0.1372 -0.2810
14412TIP3    H143172   1.315   0.059   1.502 -0.3433  2.9981 -1.4153
14412TIP3    H243173   1.413   0.004   1.401 -0.1931 -1.1283  0.8554
14413TIP3   OH243174   8.128   3.826   1.517  0.1254  0.2064 -0.2416
14413TIP3    H143175   8.147   3.920   1.522  0.8411  0.1049 -0.9650
14413TIP3    H243176   8.059   3.819   1.451 -1.2509  0.4034  1.1561
14414TIP3   OH243177   6.873   3.088   0.338  0.0943  0.0141  0.2869
14414TIP3    H143178   6.869   3.175   0.298 -0.3959 -0.2321 -0.2040
14414TIP3    H243179   6.856   3.103   0.431 -2.4790  0.1429 -0.1946
14415TIP3   OH243180   0.991   3.229   0.578 -0.1724  0.7110 -0.5264
14415TIP3    H143181   1.058   3.166   0.608 -1.6201 -2.1251 -3.0092
14415TIP3    H243182   1.033   3.275   0.506  0.7985  2.4804  1.1264
14416TIP3   OH243183   0.475   4.006   1.290 -0.5381 -0.1442 -0.1088
14416TIP3    H143184   0.408   4.043   1.233  0.7582 -0.5991 -1.9827
14416TIP3    H243185   0.478   3.913   1.266  0.0832 -0.3215  0.6287
14417TIP3   OH243186   8.216   1.916   0.830 -0.7951 -0.3148 -0.0709
14417TIP3    H143187   8.268   1.950   0.757 -0.3493 -1.3996 -0.2745
14417TIP3    H243188   8.145   1.868   0.788 -0.1590 -1.5056  0.1936
14418TIP3   OH243189   6.974   0.221   2.133 -0.0792 -0.5483  0.1817
14418TIP3    H143190   7.029   0.150   2.166  2.1910  0.4865 -1.2195
14418TIP3    H243191   7.036   0.287   2.103 -2.0995  0.4062 -2.0629
14419TIP3   OH243192   0.142   3.428   0.304  0.1413  0.1805  0.2145
14419TIP3    H143193   0.058   3.465   0.333  0.1752 -0.6223  1.3632
14419TIP3    H243194   0.197   3.431   0.382  1.5139  1.5825 -0.7654
14420TIP3   OH243195   0.519   3.445   2.386  0.5928 -0.2989  0.0069
14420TIP3    H143196   0.576   3.495   2.328 -1.9358  0.1264 -2.2148
14420TIP3    H243197   0.525   3.355   2.354 -2.4838  0.2783 -2.4633
14421TIP3   OH243198   0.829   4.551   1.194 -0.1065 -0.0502  0.3568
14421TIP3    H143199   0.906   4.497   1.177  0.4223  0.6075  0.6294
14421TIP3    H243200   0.755   4.491   1.187  0.3640 -0.5054 -0.7530
14422TIP3   OH243201   0.994   3.458   0.739  0.3742  0.0806 -0.5776
14422TIP3    H143202   1.017   3.391   0.674 -0.7273 -0.1016 -0.7897
14422TIP3    H243203   0.909   3.491   0.710  0.1819  0.4582  0.4160
14423TIP3   OH243204   0.954   3.976   1.223 -0.2260  0.3818  0.4783
14423TIP3    H143205   1.037   4.018   1.203  0.2045 -0.4121  0.5529
14423TIP3    H243206   0.916   3.954   1.138 -0.1800  0.4004  0.4530
14424TIP3   OH243207   3.406   6.096   6.576 -0.4127  0.2051  0.6735
14424TIP3    H143208   3.330   6.143   6.612 -1.3794 -0.0259 -1.0272
14424TIP3    H243209   3.429   6.145   6.497  0.1438 -0.7274  0.2486
14425TIP3   OH243210   0.168   2.541   1.610  0.4266 -0.5795 -0.2360
14425TIP3    H143211   0.081   2.504   1.592  1.2557 -1.8760 -1.7230
14425TIP3    H243212   0.181   2.607   1.542  0.6221 -0.4047 -0.0312
14426TIP3   OH243213   0.754   1.792   2.081  0.4648  0.0507 -0.4622
14426TIP3    H143214   0.780   1.727   2.146  0.3751  1.6632  1.2132
14426TIP3    H243215   0.658   1.785   2.077  0.4347  0.2774 -0.0927
14427TIP3   OH243216   1.703   1.311   0.428  0.0854  0.5059 -0.1675
14427TIP3    H143217   1.671   1.285   0.342 -1.6791 -0.6329  0.8112
14427TIP3    H243218   1.697   1.406   0.429 -1.1163  0.4413 -0.8345
14428TIP3   OH243219   0.623   2.592   0.037  0.3372  0.3709 -0.5471
14428TIP3    H143220   0.663   2.551  -0.040  1.0489  0.4542 -0.2265
14428TIP3    H243221   0.681   2.666   0.057  0.7007 -0.2281  0.6611
14429TIP3   OH243222   1.515   3.822   0.745  0.8894 -0.2673  0.2499
14429TIP3    H143223   1.486   3.731   0.750 -0.8326  0.3008  0.9266
14429TIP3    H243224   1.443   3.872   0.783  1.0680  1.5257 -1.6795
14430TIP3   OH243225   1.658   2.835   2.899  0.1508  0.2220 -0.0325
14430TIP3    H143226   1.668   2.902   2.831 -0.0327  1.8939  1.5672
14430TIP3    H243227   1.743   2.793   2.904  0.9318  1.8449  0.5013
14431TIP3   OH243228   7.878   1.885   0.962 -0.2399 -0.0607  0.0357
14431TIP3    H143229   7.861   1.797   0.929  0.0940 -0.5720  1.2102
14431TIP3    H243230   7.849   1.943   0.892  0.4271 -1.1265 -1.1309
14432TIP3   OH243231   8.378   3.034   2.355 -0.0149 -0.1803  0.1022
14432TIP3    H143232   8.366   3.103   2.420 -0.7012 -0.7027  0.5295
14432TIP3    H243233   8.448   3.067   2.298  0.4593  0.3663  0.9830
14433TIP3   OH243234   2.570   2.642   5.358 -0.4486 -0.1913 -0.1292
14433TIP3    H143235   2.582   2.726   5.402 -1.8449 -0.1010  0.1113
14433TIP3    H243236   2.631   2.645   5.284 -0.0183  0.7609  0.2477
14434TIP3   OH243237   8.084   2.218   0.892  0.5726  0.3941  0.0207
14434TIP3    H143238   8.013   2.184   0.837  0.7579 -1.2082  0.7595
14434TIP3    H243239   8.131   2.140   0.922  2.4240  1.4211 -0.1500
14435TIP3   OH243240   1.244   2.439   4.180 -0.2099  0.3487 -0.6276
14435TIP3    H143241   1.222   2.408   4.268 -0.1094  0.4822 -0.5563
14435TIP3    H243242   1.311   2.505   4.193  0.0260  0.1514 -0.8277
14436TIP3   OH243243   5.632   1.305   0.456 -0.1066 -0.8801 -0.0339
14436TIP3    H143244   5.724   1.280   0.455 -0.0485 -0.6277 -1.2673
14436TIP3    H243245   5.590   1.247   0.392 -0.6846 -0.5438  0.0309
14437TIP3   OH243246   1.427   6.364   6.651 -0.9567  0.3173 -0.3290
14437TIP3    H143247   1.422   6.456   6.626 -0.0078  1.0382  2.0628
14437TIP3    H243248   1.514   6.336   6.623 -0.6808  0.5565  0.2894
14438TIP3   OH243249   0.396   4.178   0.867  0.2664 -0.2097  0.2873
14438TIP3    H143250   0.412   4.089   0.836  1.4256  0.2102 -0.3381
14438TIP3    H243251   0.349   4.221   0.796  1.9412  0.4188 -0.4676
14439TIP3   OH243252   1.435   5.400   5.909 -0.1356  0.0397 -0.3263
14439TIP3    H143253   1.371   5.433   5.846  0.8237 -1.5264 -2.1916
14439TIP3    H243254   1.519   5.432   5.877  0.4241 -1.2971 -0.2428
14440TIP3   OH243255   7.206   3.142   2.120  0.5837  0.1858 -0.0311
14440TIP3    H143256   7.112   3.141   2.135  0.7863 -0.0106  1.3012
14440TIP3    H243257   7.240   3.069   2.172  1.3039 -0.7535 -1.7708
14441TIP3   OH243258   0.730   2.678   1.166  0.3495 -0.1358  0.3105
14441TIP3    H143259   0.787   2.714   1.234  1.5807  0.4043 -1.0106
14441TIP3    H243260   0.696   2.597   1.205  0.2584  0.6717  1.9546
14442TIP3   OH243261   8.415   1.859   1.871  0.3818  0.0695  0.5381
14442TIP3    H143262   8.332   1.895   1.901 -0.6986 -0.9627 -1.0849
14442TIP3    H243263   8.481   1.925   1.895 -0.7205  0.3251  2.9428
14443TIP3   OH243264   7.511   1.889   1.864 -0.2772  0.7117  0.4754
14443TIP3    H143265   7.459   1.824   1.913  0.1634  0.5185  0.6909
14443TIP3    H243266   7.550   1.944   1.931  0.3088  0.4616  0.3470
14444TIP3   OH243267   0.589   3.332   0.615 -0.2585 -0.1414 -0.7124
14444TIP3    H143268   0.536   3.347   0.693  1.5720 -1.6090  0.8805
14444TIP3    H243269   0.642   3.412   0.607 -1.5479  0.6564 -1.3712
14445TIP3   OH243270   7.681   2.816   0.000 -0.1235 -0.3969  0.1296
14445TIP3    H143271   7.603   2.872  -0.006  0.7309  0.7679 -0.3438
14445TIP3    H243272   7.647   2.728   0.011 -1.5157  0.1080 -0.0734
14446TIP3   OH243273   0.698   2.851   1.913  0.0836 -0.4442  0.2586
14446TIP3    H143274   0.655   2.836   1.828  2.2935 -1.5160 -0.7104
14446TIP3    H243275   0.679   2.772   1.963  0.7903 -0.8578 -0.1192
14447TIP3   OH243276   0.053   1.871   0.534 -0.1352 -0.4926  0.4708
14447TIP3    H143277   0.037   1.806   0.465 -1.9171 -1.2873  1.5947
14447TIP3    H243278   0.105   1.824   0.600  1.4877  0.2376 -0.2602
14448TIP3   OH243279   8.093   1.779   0.055 -0.1600 -0.4348 -0.4914
14448TIP3    H143280   8.105   1.753   0.146  0.7253  1.3515 -0.0800
14448TIP3    H243281   8.167   1.836   0.036 -0.0643 -1.1984 -2.4959
14449TIP3   OH243282   1.496   4.520   0.285 -0.2807  0.2926 -0.9884
14449TIP3    H143283   1.556   4.530   0.358  1.0396  1.0974 -2.1505
14449TIP3    H243284   1.470   4.428   0.288  2.0813 -0.4272 -1.2476
14450TIP3   OH243285   1.446   5.609   1.522  0.4894  0.3484  0.1514
14450TIP3    H143286   1.423   5.685   1.575 -0.5269  0.3250 -0.2577
14450TIP3    H243287   1.395   5.620   1.442 -0.1764 -1.1324  0.3734
14451TIP3   OH243288   5.293   0.734   6.908 -0.1322  0.5670 -0.1716
14451TIP3    H143289   5.361   0.709   6.846  0.7241  0.9461  0.5947
14451TIP3    H243290   5.332   0.717   6.994 -1.3060  0.0392  0.2600
14452TIP3   OH243291   0.658   0.226   1.294  0.1799 -0.3753 -0.4334
14452TIP3    H143292   0.670   0.223   1.199 -1.4593 -0.9209 -0.6476
14452TIP3    H243293   0.688   0.313   1.319 -0.6214  0.2794 -1.6579
14453TIP3   OH243294   3.426   7.030   6.030 -0.3453 -0.3436  0.6416
14453TIP3    H143295   3.390   6.956   5.981 -0.0661  0.4868 -0.8366
14453TIP3    H243296   3.492   6.991   6.088  0.9367 -1.0799 -1.2592
14454TIP3   OH243297   7.338   1.727   1.996 -0.3757  0.5564  0.8475
14454TIP3    H143298   7.262   1.785   2.003 -1.1827 -0.1746 -1.4660
14454TIP3    H243299   7.311   1.646   2.038 -1.5390 -0.2941 -1.4477
14455TIP3   OH243300   1.134   4.132   1.109 -0.3400 -0.2841 -0.2690
14455TIP3    H143301   1.136   4.116   1.015  0.5629  0.5923 -0.4047
14455TIP3    H243302   1.226   4.130   1.136 -0.6359 -1.2857  0.7282
14456TIP3   OH243303   3.508   6.877   6.283  0.0795 -0.4388  0.2402
14456TIP3    H143304   3.418   6.889   6.314  1.3480 -1.6925  4.8531
14456TIP3    H243305   3.505   6.797   6.230 -1.5888 -0.2217 -0.0270
14457TIP3   OH243306   1.706   5.714   6.045 -0.2251  0.4560  0.0741
14457TIP3    H143307   1.699   5.638   5.987 -0.9243  0.7588 -0.2500
14457TIP3    H243308   1.632   5.704   6.106 -0.7353  1.2221 -0.3971
14458TIP3   OH243309   4.858   7.228   5.940 -0.2828 -0.4317  0.0309
14458TIP3    H143310   4.898   7.237   5.853  1.4577 -2.4524  0.6136
14458TIP3    H243311   4.767   7.206   5.922 -0.3744  0.9343 -1.2813
14459TIP3   OH243312   3.174   6.513   6.782  0.2126  0.2344 -0.2694
14459TIP3    H143313   3.241   6.556   6.730 -0.1543  0.6686 -0.3940
14459TIP3    H243314   3.160   6.571   6.857 -0.5475  0.5256 -0.6293
14460TIP3   OH243315   3.312   5.590   6.670 -0.8874  0.0016  0.3495
14460TIP3    H143316   3.348   5.663   6.720 -1.2409 -0.4320  1.2361
14460TIP3    H243317   3.344   5.512   6.715 -0.8903 -0.3906 -0.3227
14461TIP3   OH243318   1.469   5.969   6.510 -0.0856 -0.2846 -0.2520
14461TIP3    H143319   1.399   5.904   6.498  0.8520 -1.1933 -0.9192
14461TIP3    H243320   1.453   6.033   6.440 -1.6881  0.8552  1.1042
14462TIP3   OH243321   0.184   5.723   2.250 -0.5384  0.2038  0.3563
14462TIP3    H143322   0.254   5.763   2.198 -1.2090  1.5171  0.4312
14462TIP3    H243323   0.111   5.715   2.189 -0.9372  0.6289  0.7732
14463TIP3   OH243324   1.447   2.777   0.153 -0.7914  0.3487  0.1551
14463TIP3    H143325   1.369   2.732   0.118 -1.8255  0.8305  1.7613
14463TIP3    H243326   1.415   2.821   0.232  1.1155  0.5978  0.8101
14464TIP3   OH243327   1.511   7.873   4.994 -0.0707  0.2003 -0.0564
14464TIP3    H143328   1.556   7.957   4.990 -0.1889  0.3557  1.6396
14464TIP3    H243329   1.474   7.861   4.907  2.3170  0.5881 -1.1520
14465TIP3   OH243330   0.801   4.110   1.382 -0.2946  0.5436  0.4299
14465TIP3    H143331   0.845   4.052   1.320  0.6310  1.5121  0.1680
14465TIP3    H243332   0.765   4.051   1.448  4.0485 -0.1061  2.4022
14466TIP3   OH243333   7.610   2.598   2.885  0.4088 -0.0795 -0.3037
14466TIP3    H143334   7.643   2.621   2.799 -0.6323 -0.9534 -0.9559
14466TIP3    H243335   7.530   2.548   2.868  0.0199 -0.0029  1.1713
14467TIP3   OH243336   2.155   3.845   0.987  0.1082  0.2623  0.5276
14467TIP3    H143337   2.223   3.913   0.983  0.2053  0.3718  3.1432
14467TIP3    H243338   2.073   3.894   0.990 -0.0586  0.1502 -1.5400
14468TIP3   OH243339   6.600   2.548   1.392 -0.1524 -0.4034 -0.5485
14468TIP3    H143340   6.529   2.608   1.415 -0.9635 -0.9818 -1.4612
14468TIP3    H243341   6.680   2.593   1.418 -0.8577  0.2922  0.4329
14469TIP3   OH243342   1.994   7.498   6.031 -0.5284 -0.4777 -0.1082
14469TIP3    H143343   1.955   7.440   6.097  2.1321 -3.1482 -0.7588
14469TIP3    H243344   2.039   7.565   6.081 -0.6602 -1.0121  0.7337
14470TIP3   OH243345   2.428   1.072   1.584 -0.8622 -0.1037  0.4532
14470TIP3    H143346   2.372   0.998   1.561  0.5798 -0.5482 -1.7644
14470TIP3    H243347   2.382   1.148   1.548 -0.6020 -0.3466 -0.4134
14471TIP3   OH243348   3.790   6.927   6.779 -0.1476  0.1064  0.2462
14471TIP3    H143349   3.758   6.857   6.836  1.8253  0.0801  1.3660
14471TIP3    H243350   3.723   6.996   6.785 -0.9724 -0.7431  0.9323
14472TIP3   OH243351   7.911   1.593   1.030 -0.6696  0.0611  0.8421
14472TIP3    H143352   7.892   1.536   1.105 -0.5050 -1.1193  0.0178
14472TIP3    H243353   8.006   1.592   1.022 -0.6099  1.2340  1.4070
14473TIP3   OH243354   8.280   4.016   0.629  0.3225 -0.2606  0.7900
14473TIP3    H143355   8.277   3.952   0.699 -0.4928 -0.2561  0.7652
14473TIP3    H243356   8.235   3.973   0.555  0.1599  0.1685  0.6375
14474TIP3   OH243357   0.342   2.476   1.887 -0.2285  0.0916 -0.4912
14474TIP3    H143358   0.339   2.408   1.820  1.2232 -2.8337  2.2975
14474TIP3    H243359   0.254   2.478   1.924  0.4249 -2.2443  1.2596
14475TIP3   OH243360   0.693   7.020   6.733 -0.1304 -0.1877  0.0766
14475TIP3    H143361   0.665   6.935   6.700 -1.4096  0.4420 -0.5079
14475TIP3    H243362   0.783   7.028   6.703  0.0934 -1.4556  0.3763
14476TIP3   OH243363   0.872   2.306   2.127  0.0998  0.2759 -0.6714
14476TIP3    H143364   0.829   2.220   2.126 -0.1309  0.3874 -0.4530
14476TIP3    H243365   0.833   2.352   2.052  0.7809 -0.0791 -1.2457
14477TIP3   OH243366   4.364   7.102   6.098  0.8399 -0.8886  0.2420
14477TIP3    H143367   4.288   7.045   6.108 -0.3979  0.6292 -0.4624
14477TIP3    H243368   4.329   7.191   6.100  2.5494 -0.1745 -0.3742
14478TIP3   OH243369   4.221   7.464   6.802  0.5216 -0.2687  0.3164
14478TIP3    H143370   4.169   7.411   6.741  0.7194 -0.4738  0.3241
14478TIP3    H243371   4.245   7.542   6.753 -0.4398  0.1859  0.5507
14479TIP3   OH243372   2.574   5.563   6.267  0.3084 -0.2190 -0.7809
14479TIP3    H143373   2.577   5.618   6.345 -0.5487 -1.1965 -0.0483
14479TIP3    H243374   2.514   5.609   6.208  0.7260  0.3703 -0.7519
14480TIP3   OH243375   6.521   2.180   2.385 -0.0425  0.1388  0.0362
14480TIP3    H143376   6.599   2.151   2.433  0.3047  1.6602  0.4291
14480TIP3    H243377   6.551   2.257   2.336 -1.0560  0.1445 -0.5871
14481TIP3   OH243378   0.781   2.194   1.674  0.3753  0.7091 -0.5093
14481TIP3    H143379   0.828   2.117   1.705  0.1934  0.3055 -1.2083
14481TIP3    H243380   0.741   2.166   1.591 -1.7034  0.8199  0.4306
14482TIP3   OH243381   7.526   3.424   3.310 -0.0885 -0.5351  0.4905
14482TIP3    H143382   7.552   3.372   3.386 -1.9396 -0.0492  1.5073
14482TIP3    H243383   7.513   3.360   3.240 -0.5129 -1.2357  1.2058
14483TIP3   OH243384   7.815   3.150   0.613 -0.3888  0.7379  0.0205
14483TIP3    H143385   7.866   3.143   0.694  0.2374  0.9025 -0.3557
14483TIP3    H243386   7.792   3.060   0.591 -2.3210  0.8367  1.4848
14484TIP3   OH243387   1.996   4.623   3.489  0.1659 -0.3083 -0.2243
14484TIP3    H143388   2.087   4.644   3.509 -0.7780  2.5265  1.3448
14484TIP3    H243389   1.979   4.668   3.406 -0.5585  1.4342  0.8517
14485TIP3   OH243390   1.622   3.079   1.195  0.0992 -0.5362  0.0234
14485TIP3    H143391   1.664   2.999   1.163 -1.8318 -1.0779 -1.3137
14485TIP3    H243392   1.629   3.141   1.121 -0.4613 -0.2783  0.1781
14486TIP3   OH243393   0.712   4.696   0.846 -0.3725  0.1230 -0.1185
14486TIP3    H143394   0.770   4.649   0.907 -0.4629 -1.2632 -1.0753
14486TIP3    H243395   0.760   4.775   0.822  0.4407 -0.2312  0.3341
14487TIP3   OH243396   1.310   3.779   1.825 -0.7793 -0.3442  0.5690
14487TIP3    H143397   1.332   3.860   1.778 -1.0408 -0.5876  0.0287
14487TIP3    H243398   1.239   3.741   1.775 -2.2708  0.2788  2.1553
14488TIP3   OH243399   1.057   2.752   0.988 -0.3139 -0.5200  0.2431
14488TIP3    H143400   1.129   2.814   0.999 -1.4780  0.7765  0.7281
14488TIP3    H243401   1.025   2.737   1.077 -0.7515 -0.9485  0.0165
14489TIP3   OH243402   7.575   1.211   0.568  0.6318  0.2068 -0.0062
14489TIP3    H143403   7.582   1.299   0.531  2.3032 -0.1920 -0.6777
14489TIP3    H243404   7.643   1.160   0.523  0.0503 -1.2912  0.7692
14490TIP3   OH243405   7.026   2.456   0.455  0.5116  0.3488 -0.0627
14490TIP3    H143406   7.070   2.457   0.370 -0.5101 -1.5098 -0.6371
14490TIP3    H243407   6.985   2.543   0.462  1.7336  1.0076 -0.8487
14491TIP3   OH243408   0.596   3.518   1.760 -0.0946  0.3845 -0.4288
14491TIP3    H143409   0.512   3.557   1.785  0.3586  0.5247  0.9730
14491TIP3    H243410   0.639   3.501   1.844  0.4696 -1.4792 -1.0794
14492TIP3   OH243411   8.216   2.818   2.357 -0.3090 -0.4197  0.2053
14492TIP3    H143412   8.279   2.889   2.343  0.9139 -1.0296  2.3553
14492TIP3    H243413   8.132   2.855   2.328  0.2492  2.0248  1.5221
14493TIP3   OH243414   6.075   5.669   6.362  0.3808 -0.2710 -0.0611
14493TIP3    H143415   6.004   5.685   6.299  0.5824 -0.4360 -0.3296
14493TIP3    H243416   6.153   5.655   6.308  0.6073 -0.1433  0.2328
14494TIP3   OH243417   1.851   2.374   0.548  0.1449 -0.5857 -0.2370
14494TIP3    H143418   1.922   2.397   0.607  1.8116 -2.2402 -1.5589
14494TIP3    H243419   1.857   2.437   0.477 -2.0588  1.6080  1.4223
14495TIP3   OH243420   1.209   2.514   0.589 -0.4686 -0.5137 -0.0322
14495TIP3    H143421   1.175   2.454   0.523  0.1554  0.2660 -1.0821
14495TIP3    H243422   1.303   2.497   0.591 -0.4115 -0.1705  0.2806
14496TIP3   OH243423   0.668   3.622   2.219  0.7325  0.6812  0.2245
14496TIP3    H143424   0.643   3.701   2.266  0.3330  1.1823 -0.8281
14496TIP3    H243425   0.759   3.636   2.194  0.2090  1.4926 -1.3180
14497TIP3   OH243426   4.953   4.502   6.229 -0.1299  0.7625 -0.3117
14497TIP3    H143427   4.988   4.437   6.290 -0.5358 -0.1364 -1.0263
14497TIP3    H243428   4.860   4.478   6.220  0.0531  0.5757 -1.6839
14498TIP3   OH243429   4.557   7.872   6.844 -0.4583  0.1480 -0.6225
14498TIP3    H143430   4.468   7.835   6.844 -0.2551 -0.3957  1.2488
14498TIP3    H243431   4.613   7.799   6.820 -0.5351  0.5757 -2.1390
14499TIP3   OH243432   3.878   1.456   0.635  0.2090  0.4214 -0.1718
14499TIP3    H143433   3.903   1.546   0.656  1.6956  0.0257 -0.1744
14499TIP3    H243434   3.944   1.402   0.678  0.2570 -0.6066 -1.4996
14500TIP3   OH243435   0.655   2.096   1.448 -0.1079 -0.2607 -0.2397
14500TIP3    H143436   0.596   2.068   1.379  0.4608  2.4804 -1.9169
14500TIP3    H243437   0.738   2.053   1.428  0.3551  1.3344 -1.9616
14501TIP3   OH243438   8.336   5.215   1.654 -0.3762 -0.3585 -0.2488
14501TIP3    H143439   8.282   5.287   1.621  1.1202 -0.3967 -2.8740
14501TIP3    H243440   8.414   5.258   1.690 -0.9009 -0.4961  1.1107
14502TIP3   OH243441   2.385   2.532   1.774  0.3347  0.0490  0.2238
14502TIP3    H143442   2.471   2.570   1.795  0.1309 -0.0980  1.3251
14502TIP3    H243443   2.387   2.446   1.815  0.6387 -0.9897 -1.9233
14503TIP3   OH243444   4.492   4.860   6.090 -0.2289  0.0485  0.4424
14503TIP3    H143445   4.453   4.866   6.003  1.5540  0.3587 -0.3571
14503TIP3    H243446   4.492   4.767   6.110  0.1203 -0.1027 -0.2516
14504TIP3   OH243447   2.290   2.169   2.114 -0.1701 -0.5461 -0.1786
14504TIP3    H143448   2.358   2.220   2.070 -1.2532 -0.2545 -1.5596
14504TIP3    H243449   2.255   2.228   2.180  0.8469 -0.6671  0.4794
14505TIP3   OH243450   1.375   3.326   3.112  0.3644  0.1079  0.0818
14505TIP3    H143451   1.358   3.235   3.088  0.1647 -0.0681  0.8651
14505TIP3    H243452   1.381   3.373   3.028 -1.0910 -0.3557 -0.2962
14506TIP3   OH243453   0.868   3.827   3.687 -0.7684 -0.2913 -0.5607
14506TIP3    H143454   0.865   3.922   3.699 -0.6232 -0.4604  0.9997
14506TIP3    H243455   0.811   3.793   3.756 -1.5818 -1.3021 -1.7167
14507TIP3   OH243456   7.795   2.371   1.813  0.5440  0.3840 -0.0346
14507TIP3    H143457   7.868   2.432   1.825 -1.0049  2.1429  0.6896
14507TIP3    H243458   7.770   2.382   1.721 -0.2417  1.4608  0.2946
14508TIP3   OH243459   1.529   2.044   1.514  0.3471 -0.5496 -0.5018
14508TIP3    H143460   1.541   2.030   1.608  0.9431 -0.9918 -0.6441
14508TIP3    H243461   1.453   1.990   1.491 -1.1658  1.2409  0.1427
14509TIP3   OH243462   1.869   2.426   1.317 -0.0756  0.1776  0.1568
14509TIP3    H143463   1.798   2.478   1.278  0.6967  0.5114 -0.8198
14509TIP3    H243464   1.949   2.469   1.287  0.5936 -1.9859 -1.2180
14510TIP3   OH243465   3.620   1.032   0.754 -0.5433  0.4694  0.2762
14510TIP3    H143466   3.526   1.039   0.736 -0.1386  0.8560 -1.9325
14510TIP3    H243467   3.644   1.119   0.786 -1.0810  0.1191  1.6618
14511TIP3   OH243468   1.527   2.737   1.094  0.1510 -0.2202  0.0468
14511TIP3    H143469   1.488   2.821   1.070 -1.8749 -1.5072 -1.4106
14511TIP3    H243470   1.568   2.706   1.013 -0.1851 -1.1727  0.2314
14512TIP3   OH243471   6.821   0.646   6.644 -0.4012  0.2232 -0.3020
14512TIP3    H143472   6.914   0.650   6.623 -0.6141  0.6541 -1.1782
14512TIP3    H243473   6.816   0.585   6.718  0.7126  1.2302  0.6144
14513TIP3   OH243474   1.915   2.136   1.471  0.1213  0.3685 -0.2077
14513TIP3    H143475   1.995   2.087   1.456  1.3062  2.5029 -1.1366
14513TIP3    H243476   1.906   2.139   1.566  0.0315 -1.5699 -0.1287
14514TIP3   OH243477   0.445   2.823   1.318 -0.2930 -0.0197  0.0569
14514TIP3    H143478   0.390   2.788   1.248 -0.3108  0.8087 -0.3563
14514TIP3    H243479   0.458   2.915   1.294  0.5606  0.0106  0.5989
14515TIP3   OH243480   2.624   2.637   1.108  0.0040  0.2075 -0.2087
14515TIP3    H143481   2.630   2.544   1.132  2.5008  0.0853 -1.1831
14515TIP3    H243482   2.620   2.682   1.193 -2.1533 -0.8118  0.2659
14516TIP3   OH243483   0.337   2.649   2.854 -0.5058  0.0570  0.1784
14516TIP3    H143484   0.295   2.611   2.931  0.7740  1.3831  1.5751
14516TIP3    H243485   0.423   2.607   2.850 -0.0965  0.8855  0.2009
14517TIP3   OH243486   7.829   2.953   3.146  0.5869 -0.4352  0.2704
14517TIP3    H143487   7.924   2.947   3.138  0.5043 -0.5652 -0.6153
14517TIP3    H243488   7.798   2.866   3.124  0.1483  0.0797 -1.1551
14518TIP3   OH243489   1.321   5.582   4.592  0.4598 -0.1825 -0.1466
14518TIP3    H143490   1.360   5.667   4.572  2.2870 -0.5727  1.5640
14518TIP3    H243491   1.260   5.566   4.520  0.4629  2.3283 -0.7651
14519TIP3   OH243492   1.955   2.204   1.175  0.0233  0.1105  0.3769
14519TIP3    H143493   2.040   2.245   1.193 -0.2597  1.0605 -0.4179
14519TIP3    H243494   1.948   2.205   1.079 -0.9817  0.2588  0.4478
14520TIP3   OH243495   2.036   1.084   1.672  0.0712  0.2197  0.5608
14520TIP3    H143496   2.058   1.146   1.741 -0.5869 -0.5488  1.4665
14520TIP3    H243497   2.062   1.128   1.591 -0.4063  1.6766  1.1888
14521TIP3   OH243498   7.448   2.394   1.630 -0.3688  0.3763  0.5720
14521TIP3    H143499   7.460   2.398   1.725  1.2069  1.1243  0.3528
14521TIP3    H243500   7.359   2.426   1.616 -0.5794  0.3608  1.7877
14522TIP3   OH243501   8.159   2.559   0.249 -0.9259  1.0579 -0.2581
14522TIP3    H143502   8.150   2.474   0.204  0.5878 -0.0608  1.4958
14522TIP3    H243503   8.201   2.616   0.184  0.6984 -0.3742 -0.4942
14523TIP3   OH243504   1.346   2.602   1.863 -0.7633  0.5334  0.3428
14523TIP3    H143505   1.403   2.527   1.879 -0.3161  0.4464 -1.4993
14523TIP3    H243506   1.281   2.570   1.800 -0.7028  1.6336 -0.2851
14524TIP3   OH243507   8.050   1.117   0.048  0.5075  0.2660  0.1352
14524TIP3    H143508   8.080   1.203   0.077 -0.5437  0.4954  0.5763
14524TIP3    H243509   8.116   1.088  -0.015  0.8116  1.4335 -0.0878
14525TIP3   OH243510   0.090   2.495   1.988  0.2007  0.1875  0.5681
14525TIP3    H143511   0.021   2.428   1.995 -0.8279  0.9910 -1.5346
14525TIP3    H243512   0.068   2.559   2.056 -1.3276  0.5975 -0.2836
14526TIP3   OH243513   0.900   3.717   1.761  0.4635 -0.3781 -0.2798
14526TIP3    H143514   0.859   3.802   1.772  0.1275 -0.6188  0.3467
14526TIP3    H243515   0.897   3.677   1.848  4.5143  0.7193  0.4813
14527TIP3   OH243516   5.541   7.261   6.115 -0.1691  0.1133 -0.2003
14527TIP3    H143517   5.560   7.229   6.202 -0.6024  2.4990  0.8117
14527TIP3    H243518   5.584   7.199   6.056  0.5827 -1.2016  1.6939
14528TIP3   OH243519   7.560   3.038   3.085  0.0355  0.2462 -0.1803
14528TIP3    H143520   7.647   3.018   3.119 -0.8980 -1.8022  1.0934
14528TIP3    H243521   7.567   3.025   2.991  0.6906 -1.5517  0.1019
14529TIP3   OH243522   4.611   7.357   6.624 -0.0932  0.3335  0.2292
14529TIP3    H143523   4.602   7.291   6.693  3.2857 -1.3569 -0.8464
14529TIP3    H243524   4.572   7.316   6.547  0.0759  0.4554  0.0796
14530TIP3   OH243525   4.508   7.187   5.072  0.6504 -0.3995  0.5360
14530TIP3    H143526   4.572   7.251   5.101  1.0090 -1.5867  2.4630
14530TIP3    H243527   4.560   7.110   5.049  0.1685 -0.2674 -1.0189
14531TIP3   OH243528   2.381   2.648   0.332 -0.0996 -0.8207  0.1061
14531TIP3    H143529   2.410   2.626   0.243  0.2195 -0.9216  0.2345
14531TIP3    H243530   2.314   2.582   0.352 -0.7685 -0.2875 -0.3773
14532TIP3   OH243531   1.385   2.072   0.296  1.0929 -0.1249  0.0668
14532TIP3    H143532   1.440   2.110   0.365  0.8640 -0.9838  0.7328
14532TIP3    H243533   1.356   2.148   0.245  3.0027  0.3090 -0.3830
14533TIP3   OH243534   6.542   0.297   6.508  0.0161 -0.4756  0.5205
14533TIP3    H143535   6.527   0.208   6.541  2.8043 -0.1698  2.7478
14533TIP3    H243536   6.540   0.352   6.586  1.1126  1.0332 -0.5031
14534TIP3   OH243537   4.611   7.733   4.395  0.1671 -0.6234  0.3330
14534TIP3    H143538   4.552   7.807   4.413  0.6160 -0.7763  2.6992
14534TIP3    H243539   4.571   7.659   4.441  0.0296 -1.7468 -1.5525
14535TIP3   OH243540   3.052   2.467   0.060  0.0657  0.5417 -0.6563
14535TIP3    H143541   3.109   2.470  -0.017 -0.3533 -2.8954 -1.2030
14535TIP3    H243542   3.046   2.374   0.081  0.3675  1.4072  3.7219
14536TIP3   OH243543   2.477   3.979   1.808  0.5954  0.0973  0.2289
14536TIP3    H143544   2.437   4.049   1.859 -0.9548 -0.1353 -0.6614
14536TIP3    H243545   2.452   3.997   1.717 -0.9378 -2.3338  0.1171
14537TIP3   OH243546   1.538   0.756   1.309 -0.2164  0.2388  0.4082
14537TIP3    H143547   1.625   0.782   1.341  0.1411  0.0363 -0.4088
14537TIP3    H243548   1.501   0.837   1.273 -0.1250  0.1836  0.1936
14538TIP3   OH243549   3.314   4.778   6.718  0.4530 -0.3190 -0.6049
14538TIP3    H143550   3.234   4.800   6.767  1.9735  1.9527  1.0235
14538TIP3    H243551   3.295   4.696   6.674 -3.1191  0.6827 -1.0473
14539TIP3   OH243552   1.681   2.134   3.668  0.0704  0.2049 -0.2788
14539TIP3    H143553   1.649   2.139   3.758 -0.4069 -2.0668 -0.2824
14539TIP3    H243554   1.627   2.066   3.628  0.8235  0.6262 -2.0592
14540TIP3   OH243555   3.007   3.228   0.577 -0.4179 -0.0572 -0.1263
14540TIP3    H143556   2.945   3.275   0.520 -0.6776  0.3903  0.5237
14540TIP3    H243557   2.987   3.259   0.665 -0.8368 -1.6904  0.3625
14541TIP3   OH243558   4.524   6.411   6.607 -0.6483 -0.3406 -0.2155
14541TIP3    H143559   4.582   6.362   6.550 -1.3281 -1.2502 -0.1248
14541TIP3    H243560   4.512   6.495   6.563  1.2438  0.1063  0.0743
14542TIP3   OH243561   2.368   7.787   5.938  0.3276 -0.0525  0.1499
14542TIP3    H143562   2.388   7.853   5.871 -0.0472  1.2172  1.2618
14542TIP3    H243563   2.399   7.826   6.020  3.2563 -2.7454  0.3944
14543TIP3   OH243564   1.043   0.310   0.316  0.6139  0.2545 -0.0497
14543TIP3    H143565   1.100   0.380   0.284 -0.0340  0.2109 -1.3098
14543TIP3    H243566   0.954   0.344   0.306  0.3117 -0.5806 -0.2814
14544TIP3   OH243567   4.151   3.466   0.784  0.2025  0.3285  0.4763
14544TIP3    H143568   4.231   3.413   0.784 -0.0427 -0.0524 -0.4293
14544TIP3    H243569   4.081   3.403   0.765 -0.1163  0.9425 -0.4190
14545TIP3   OH243570   0.431   2.321   1.434 -0.3004 -0.1981 -0.4738
14545TIP3    H143571   0.408   2.291   1.523 -1.6859 -1.0489 -1.0920
14545TIP3    H243572   0.427   2.241   1.381 -1.8939  0.6854 -1.7453
14546TIP3   OH243573   5.340   6.362   6.837 -0.4161 -0.4187 -0.1697
14546TIP3    H143574   5.435   6.361   6.849 -0.4769  1.1280  0.4837
14546TIP3    H243575   5.315   6.270   6.849  0.6999 -0.4644  2.2832
14547TIP3   OH243576   5.893   4.832   6.295  1.2668  0.2648 -0.4063
14547TIP3    H143577   5.952   4.772   6.339 -1.0689 -1.6632  0.2049
14547TIP3    H243578   5.873   4.898   6.362 -0.8453 -1.6522  0.9455
14548TIP3   OH243579   0.556   1.416   1.338 -0.0522  0.4184 -0.5918
14548TIP3    H143580   0.644   1.450   1.318  0.1810 -0.6448 -1.4753
14548TIP3    H243581   0.518   1.481   1.396  0.5020  2.0236 -1.9589
14549TIP3   OH243582   1.843   4.407   0.355 -0.0639  0.5062  0.1162
14549TIP3    H143583   1.903   4.363   0.296 -0.5625 -0.3134  0.2086
14549TIP3    H243584   1.887   4.406   0.440 -0.2076 -0.0972  0.1849
14550TIP3   OH243585   6.618   6.529   5.855 -0.4767  0.3565  0.1094
14550TIP3    H143586   6.627   6.622   5.876  3.0960 -0.2333  1.5019
14550TIP3    H243587   6.594   6.488   5.937  1.6518 -0.3778  0.4084
14551TIP3   OH243588   6.207   7.559   5.952  0.0833  0.3211 -0.3974
14551TIP3    H143589   6.148   7.491   5.986  1.0394  0.7908  2.3248
14551TIP3    H243590   6.153   7.638   5.948 -0.2884  0.0442 -0.8620
14552TIP3   OH243591   2.349   0.017   1.135 -0.1668 -1.1268  0.0832
14552TIP3    H143592   2.348  -0.074   1.166 -1.5315 -1.8411 -1.9164
14552TIP3    H243593   2.274   0.058   1.179  1.7291 -0.3113  2.6885
14553TIP3   OH243594   4.219   6.681   6.598  0.8812  0.0072 -0.2048
14553TIP3    H143595   4.303   6.721   6.577  0.2806  1.4372  0.0367
14553TIP3    H243596   4.168   6.752   6.637  0.7181 -1.6731  2.7566
14554TIP3   OH243597   3.165   0.791   0.720  0.2955 -0.2614  0.3332
14554TIP3    H143598   3.104   0.738   0.668 -1.2501  0.9519  0.8460
14554TIP3    H243599   3.234   0.815   0.659 -1.3780  0.9468 -1.1629
14555TIP3   OH243600   4.392   5.210   6.207 -0.1178 -0.2566  0.1118
14555TIP3    H143601   4.470   5.174   6.248  1.0438  0.2479 -1.5882
14555TIP3    H243602   4.354   5.137   6.158 -0.1471 -0.2495  0.1237
14556TIP3   OH243603   1.968   2.925   0.511  0.1168  0.0883 -0.0625
14556TIP3    H143604   2.031   2.952   0.578 -3.2952  1.4477  2.7317
14556TIP3    H243605   1.988   2.981   0.436  2.3481  0.3277  0.6656
14557TIP3   OH243606   5.200   6.922   4.570  0.0575 -0.1859  0.1338
14557TIP3    H143607   5.256   6.999   4.577 -0.6293  0.5840 -2.3639
14557TIP3    H243608   5.126   6.940   4.628  0.5573  0.4465  0.5708
14558TIP3   OH243609   1.138   0.263   6.832  0.2821  0.0093 -0.0675
14558TIP3    H143610   1.088   0.238   6.909  1.2217 -0.6365  0.3527
14558TIP3    H243611   1.117   0.196   6.766 -1.5670  1.3193 -0.8427
14559TIP3   OH243612   4.480   7.229   6.404  0.0034 -0.4354  0.4386
14559TIP3    H143613   4.424   7.154   6.427 -0.5213 -0.2015 -0.0597
14559TIP3    H243614   4.547   7.193   6.347  0.7453 -0.8392  1.5510
14560TIP3   OH243615   4.246   1.066   0.355 -0.5276  0.5473  0.0213
14560TIP3    H143616   4.166   1.036   0.312 -1.4203  0.6295  1.6044
14560TIP3    H243617   4.236   1.041   0.447  0.6986  1.6712  0.4922
14561TIP3   OH243618   5.580   7.148   6.353  0.1956 -0.5686 -0.8993
14561TIP3    H143619   5.635   7.100   6.415  1.1267 -1.3216 -2.3018
14561TIP3    H243620   5.506   7.179   6.406  0.9457 -1.2627  0.5714
14562TIP3   OH243621   5.373   6.492   6.134 -0.7522 -0.1566  0.1986
14562TIP3    H143622   5.356   6.446   6.217 -0.8598 -1.8014 -0.7187
14562TIP3    H243623   5.289   6.491   6.089 -0.7469  0.9432  0.1623
14563TIP3   OH243624   4.776   6.276   6.286  0.0378 -0.7390  0.0966
14563TIP3    H143625   4.845   6.321   6.334 -0.5191  0.6748 -0.4145
14563TIP3    H243626   4.725   6.231   6.354  0.2320 -0.0907  0.6749
14564TIP3   OH243627   0.712   4.669   0.314 -0.1161 -0.8452 -0.4693
14564TIP3    H143628   0.776   4.685   0.383 -0.7311 -0.8898  0.1137
14564TIP3    H243629   0.631   4.708   0.346  0.0199  0.7237 -1.9352
14565TIP3   OH243630   5.125   7.074   5.339 -0.0434  0.3099  0.4662
14565TIP3    H143631   5.103   7.136   5.269  0.0300  1.3996  1.4112
14565TIP3    H243632   5.076   6.994   5.315  0.7593  0.3255 -1.3608
14566TIP3   OH243633   3.955   5.966   6.176  0.1389 -0.5066 -0.8690
14566TIP3    H143634   3.939   6.055   6.210  0.6249 -0.6764 -0.1710
14566TIP3    H243635   4.039   5.941   6.215 -0.0849 -1.3424 -0.9163
14567TIP3   OH243636   7.375   0.318   5.492  0.0059 -0.0852 -0.2985
14567TIP3    H143637   7.293   0.338   5.445  0.2360  0.8705 -0.3145
14567TIP3    H243638   7.376   0.223   5.500 -0.5383 -0.1852 -1.3396
14568TIP3   OH243639   3.838   7.265   6.380  0.0907  0.2455 -0.4353
14568TIP3    H143640   3.842   7.209   6.458 -3.0198  1.6122  0.7890
14568TIP3    H243641   3.783   7.217   6.318 -1.2320  1.1800 -0.0068
14569TIP3   OH243642   1.816   3.860   2.116  0.6129 -0.0951  0.1052
14569TIP3    H143643   1.844   3.786   2.169  0.6653 -0.8532 -0.9656
14569TIP3    H243644   1.871   3.856   2.038 -1.2305 -0.5295 -1.2033
14570TIP3   OH243645   5.525   7.454   6.412  0.5104  0.2064  0.0672
14570TIP3    H143646   5.595   7.463   6.348  2.2567 -0.9586  1.7790
14570TIP3    H243647   5.451   7.501   6.373  2.1382  1.2173 -1.8883
14571TIP3   OH243648   2.389   1.603   3.090  0.1664  0.4333 -0.9625
14571TIP3    H143649   2.323   1.565   3.031  0.0855  0.6316 -0.9992
14571TIP3    H243650   2.458   1.536   3.095 -1.2107 -0.8838  1.1215
14572TIP3   OH243651   2.438   7.953   6.801 -0.0974  0.8469  0.0805
14572TIP3    H143652   2.396   7.961   6.716  1.9051  1.3709 -0.8829
14572TIP3    H243653   2.447   7.859   6.815 -0.5586  0.7575 -0.2137
14573TIP3   OH243654   3.686   7.096   4.560  0.0321 -0.1062  0.3584
14573TIP3    H143655   3.615   7.161   4.567  1.1546  1.3527 -1.1615
14573TIP3    H243656   3.737   7.126   4.485  1.4624 -1.9346  0.5788
14574TIP3   OH243657   2.745   2.412   0.472  0.0423 -0.4663 -0.3103
14574TIP3    H143658   2.720   2.325   0.440  2.0575 -1.3413  0.3898
14574TIP3    H243659   2.743   2.468   0.395  0.4684 -1.5471 -1.1142
14575TIP3   OH243660   2.124   1.560   1.700  0.1669 -0.5979  0.2940
14575TIP3    H143661   2.112   1.622   1.628 -2.3125 -1.7907 -0.3820
14575TIP3    H243662   2.168   1.610   1.768 -0.7479  1.5669 -0.6685
14576TIP3   OH243663   5.273   6.585   5.763 -0.2179  0.2919 -0.1333
14576TIP3    H143664   5.351   6.531   5.775 -0.0300  0.8771  1.3671
14576TIP3    H243665   5.253   6.578   5.670  0.0527 -2.0285 -0.0533
14577TIP3   OH243666   2.720   3.166   1.202 -0.2120 -0.1033 -0.1748
14577TIP3    H143667   2.762   3.101   1.145  2.8062 -1.1554  3.0607
14577TIP3    H243668   2.663   3.114   1.259 -0.9177  0.6038 -0.2245
14578TIP3   OH243669   5.219   6.173   5.287  0.2320  0.4307 -0.0202
14578TIP3    H143670   5.228   6.242   5.352  0.7911  1.3128 -1.0153
14578TIP3    H243671   5.129   6.182   5.254 -0.1896 -0.2849  0.9124
14579TIP3   OH243672   7.234   1.397   0.910 -0.9718 -0.4379  0.0007
14579TIP3    H143673   7.247   1.380   1.004  3.2116  0.1298 -0.3999
14579TIP3    H243674   7.227   1.492   0.904  1.1875 -0.2782 -0.4616
14580TIP3   OH243675   1.453   1.967   1.775 -0.0763 -0.6418 -0.2660
14580TIP3    H143676   1.440   1.994   1.867 -0.0587  0.9837 -0.7132
14580TIP3    H243677   1.461   1.872   1.779 -2.7829 -0.8754  1.1335
14581TIP3   OH243678   4.045   6.688   6.971 -0.0613 -0.2767 -0.1351
14581TIP3    H143679   4.066   6.737   6.891 -0.4873  1.5562  0.8522
14581TIP3    H243680   4.014   6.603   6.939 -0.9047  0.6776 -1.9544
14582TIP3   OH243681   5.344   6.807   5.917  0.3368  0.0769  0.2320
14582TIP3    H143682   5.300   6.737   5.870  1.2263 -0.8406  0.7353
14582TIP3    H243683   5.298   6.886   5.891 -1.1670 -0.7806  0.2417
14583TIP3   OH243684   0.524   1.005   6.327  0.0401 -0.2100 -0.2006
14583TIP3    H143685   0.438   0.969   6.352  0.5324 -0.8052  0.6593
14583TIP3    H243686   0.508   1.098   6.315 -0.4799 -0.1011  1.1778
14584TIP3   OH243687   1.228   4.196   2.870 -0.2995 -0.2121 -0.3896
14584TIP3    H143688   1.313   4.225   2.902 -0.8761  2.3272 -1.0160
14584TIP3    H243689   1.183   4.164   2.948 -0.3063  2.4070  0.7328
14585TIP3   OH243690   2.655   2.275   0.228  0.1902  0.1998  0.3394
14585TIP3    H143691   2.682   2.289   0.137 -0.8973 -0.3790 -0.0971
14585TIP3    H243692   2.671   2.182   0.244 -1.5768 -0.1919  0.0232
14586TIP3   OH243693   5.897   5.770   6.184  0.0432 -0.3530 -0.0521
14586TIP3    H143694   5.907   5.841   6.121 -0.4852 -1.0265 -0.9148
14586TIP3    H243695   5.809   5.781   6.219  0.6979  0.6017  1.3018
14587TIP3   OH243696   0.492   4.945   1.745  0.0075  0.4692 -1.3554
14587TIP3    H143697   0.539   4.899   1.815 -0.7439 -0.2716 -1.3233
14587TIP3    H243698   0.416   4.983   1.788  0.5612  1.6563 -1.4079
14588TIP3   OH243699   1.592   2.654   1.529  0.7569  0.1758 -0.2192
14588TIP3    H143700   1.497   2.654   1.522  0.8370 -0.7815 -1.5379
14588TIP3    H243701   1.611   2.582   1.589  0.6427  0.3223 -0.0093
14589TIP3   OH243702   0.034   2.463   0.334 -0.2351  0.1968  0.5236
14589TIP3    H143703  -0.032   2.394   0.321  0.8851 -0.5048 -1.6178
14589TIP3    H243704   0.115   2.416   0.349  0.7068  1.0358 -1.8052
14590TIP3   OH243705   0.317   2.070   2.096  0.2164 -0.6913  0.3753
14590TIP3    H143706   0.307   1.986   2.052  1.3986 -1.2060  1.0653
14590TIP3    H243707   0.228   2.096   2.119 -0.3043 -1.0070 -1.2044
14591TIP3   OH243708   1.863   1.380   1.442 -0.2434 -0.1657  0.4996
14591TIP3    H143709   1.918   1.402   1.367  0.7148  0.0600  1.2563
14591TIP3    H243710   1.808   1.308   1.411 -0.6608  0.6794 -0.7718
14592TIP3   OH243711   2.702   7.687   6.765  0.1045  0.2444 -0.0526
14592TIP3    H143712   2.677   7.705   6.856  0.4841  1.9783 -0.2827
14592TIP3    H243713   2.710   7.592   6.762 -0.5144  0.1095  1.5720
14593TIP3   OH243714   3.194   5.576   6.028 -0.1636 -0.0099  0.2385
14593TIP3    H143715   3.217   5.658   5.985  0.7830  0.9874  2.5851
14593TIP3    H243716   3.106   5.590   6.061 -0.2352 -0.1700  0.1187
14594TIP3   OH243717   4.960   5.184   6.597 -0.5528  0.0121  0.2226
14594TIP3    H143718   4.885   5.154   6.649 -1.0866 -0.2478 -0.6840
14594TIP3    H243719   5.004   5.247   6.653  1.4008 -3.4401  2.7685
14595TIP3   OH243720   0.351   2.749   0.580  0.2598  0.1506  0.3114
14595TIP3    H143721   0.334   2.790   0.495 -0.5557  1.5843  1.1605
14595TIP3    H243722   0.370   2.657   0.558 -2.8957 -0.1991 -1.1832
14596TIP3   OH243723   1.267   1.985   0.682  0.3523  0.3517  0.1875
14596TIP3    H143724   1.256   1.949   0.594  1.3655  1.8373 -0.5663
14596TIP3    H243725   1.276   1.909   0.738 -2.2581 -0.6753 -0.7114
14597TIP3   OH243726   5.372   7.047   5.445  0.0013 -0.8827  0.0691
14597TIP3    H143727   5.289   7.040   5.398  0.4326 -1.6410 -0.6058
14597TIP3    H243728   5.372   6.972   5.505  0.2897 -1.0196 -0.0975
14598TIP3   OH243729   6.670   7.762   5.217 -0.3549  0.2881  0.4319
14598TIP3    H143730   6.577   7.778   5.202 -0.1375 -0.2999 -1.6498
14598TIP3    H243731   6.710   7.849   5.218 -0.5961  0.4263 -1.0278
14599TIP3   OH243732   5.887   6.780   5.258  0.6095 -0.1237 -0.4158
14599TIP3    H143733   5.977   6.810   5.254  0.5904 -0.1383 -0.9413
14599TIP3    H243734   5.849   6.828   5.332  0.4180  1.5671 -1.5865
14600TIP3   OH243735   4.423   3.739   0.048  0.7032  0.1957  0.1257
14600TIP3    H143736   4.485   3.777  -0.014 -0.9724  1.9612 -0.5106
14600TIP3    H243737   4.436   3.645   0.040  1.0756  0.4344 -2.3005
14601TIP3   OH243738   4.718   3.737   1.352 -0.5374 -0.2779 -0.1772
14601TIP3    H143739   4.677   3.789   1.421 -0.2086  0.3711 -0.4686
14601TIP3    H243740   4.807   3.772   1.346  0.2309 -1.9729  0.7813
14602TIP3   OH243741   4.909   5.834   5.784 -0.5826  0.4439 -0.9056
14602TIP3    H143742   4.844   5.807   5.848  0.2326  0.1670 -0.1982
14602TIP3    H243743   4.966   5.758   5.773 -0.3497  0.7006 -1.4916
14603TIP3   OH243744   1.977   4.469   2.538 -0.2342 -0.0277 -0.0572
14603TIP3    H143745   2.038   4.503   2.473 -0.5475  0.1030 -0.2850
14603TIP3    H243746   1.915   4.415   2.488  0.9021 -1.8334  0.4406
14604TIP3   OH243747   1.494   2.479   0.050 -0.4702  0.0334  0.3711
14604TIP3    H143748   1.565   2.536   0.023 -0.4789  0.7916  1.8842
14604TIP3    H243749   1.451   2.453  -0.032  0.2412  1.2625 -0.4078
14605TIP3   OH243750   2.489   1.896   1.323 -0.6413  0.0756  0.2756
14605TIP3    H143751   2.548   1.932   1.389  0.5931 -0.9156 -0.2655
14605TIP3    H243752   2.408   1.878   1.371  0.5833 -1.5954  1.8005
14606TIP3   OH243753   8.298   0.536   6.190 -0.3998  0.0117  1.0333
14606TIP3    H143754   8.273   0.607   6.248  0.8433  0.9739  0.4108
14606TIP3    H243755   8.217   0.510   6.147 -0.6089  2.1227  0.0971
14607TIP3   OH243756   0.248   3.401   0.591 -0.3716 -0.1958  0.0577
14607TIP3    H143757   0.299   3.326   0.620 -1.7668 -1.6802 -1.2140
14607TIP3    H243758   0.212   3.438   0.671 -0.4463 -1.4535  0.6184
14608TIP3   OH243759   2.320   3.713   0.206  0.6502  0.1823  0.6512
14608TIP3    H143760   2.252   3.690   0.143  0.7542 -0.3575  0.7352
14608TIP3    H243761   2.337   3.806   0.190 -0.2209  0.3628  0.7337
14609TIP3   OH243762   6.093   7.016   5.572 -0.0420 -0.7611  0.6273
14609TIP3    H143763   6.145   7.074   5.628  0.0485  0.9072 -1.1079
14609TIP3    H243764   6.157   6.964   5.525 -0.0828 -1.4264  1.3035
14610TIP3   OH243765   4.329   5.494   6.480  0.2292  0.6709 -0.1925
14610TIP3    H143766   4.344   5.400   6.490 -2.6032  0.4135  2.0978
14610TIP3    H243767   4.244   5.500   6.436  0.1471  2.1548  0.1561
14611TIP3   OH243768   4.571   6.123   5.217  0.6524  0.0883  0.1469
14611TIP3    H143769   4.490   6.127   5.166  1.9566 -0.8996 -2.0903
14611TIP3    H243770   4.612   6.208   5.204  0.7876 -0.0182 -0.1283
14612TIP3   OH243771   2.174   2.661   0.902  0.3375  0.4561 -0.1725
14612TIP3    H143772   2.263   2.633   0.921  0.4760  1.5632  0.8170
14612TIP3    H243773   2.178   2.757   0.898 -0.5647  0.4601 -1.3325
14613TIP3   OH243774   1.417   4.250   2.075  0.2417  0.1475 -0.1334
14613TIP3    H143775   1.500   4.294   2.096 -0.8187  1.1700  2.0027
14613TIP3    H243776   1.416   4.173   2.131  0.5435 -0.8535 -1.4661
14614TIP3   OH243777   2.823   2.674   2.839 -0.0462  0.1640 -0.1233
14614TIP3    H143778   2.805   2.580   2.827  0.2392  0.1341 -0.3429
14614TIP3    H243779   2.891   2.693   2.774 -0.2377  0.5665 -0.2029
14615TIP3   OH243780   6.412   5.555   6.931  0.0529  0.0999 -0.0367
14615TIP3    H143781   6.502   5.548   6.963  0.0313 -1.9859 -0.3564
14615TIP3    H243782   6.419   5.610   6.853  1.0653 -0.2026 -0.1698
14616TIP3   OH243783   2.013   0.350   5.034  0.8192 -0.1634  0.0964
14616TIP3    H143784   2.106   0.329   5.044  0.5870 -1.9043 -1.2087
14616TIP3    H243785   1.994   0.332   4.942 -1.3222 -2.0150  0.8525
14617TIP3   OH243786   2.198   2.992   2.473 -0.3137 -0.7732 -0.6256
14617TIP3    H143787   2.238   2.983   2.386 -0.3217  0.7570 -0.7975
14617TIP3    H243788   2.104   2.990   2.455 -0.3210 -1.4457 -0.5346
14618TIP3   OH243789   1.526   3.063   1.943  0.5651  0.3490  0.4671
14618TIP3    H143790   1.537   2.983   1.892  0.6672 -0.2211  1.3771
14618TIP3    H243791   1.576   3.129   1.894  0.3228 -0.0854 -0.3852
14619TIP3   OH243792   7.194   5.324   5.862  0.4919 -0.2494  0.1373
14619TIP3    H143793   7.100   5.338   5.854  0.4401 -0.6085  0.1165
14619TIP3    H243794   7.214   5.345   5.953  0.0259 -2.2490  0.7181
14620TIP3   OH243795   1.622   1.785   0.796 -0.1219 -0.0280  0.2674
14620TIP3    H143796   1.648   1.871   0.763  0.5736 -0.3698 -0.0970
14620TIP3    H243797   1.620   1.795   0.891 -0.8620  0.6137  0.1887
14621TIP3   OH243798   3.339   3.327   0.659 -0.1989 -0.6878  0.4481
14621TIP3    H143799   3.301   3.247   0.623  0.5940 -1.5289  1.4385
14621TIP3    H243800   3.422   3.299   0.697  1.8859  1.2530 -2.4848
14622TIP3   OH243801   3.876   7.506   4.641 -0.5004  0.0517  0.1595
14622TIP3    H143802   3.950   7.540   4.692 -0.8936  0.4845  0.4482
14622TIP3    H243803   3.879   7.556   4.559 -0.9791  0.6674  0.5165
14623TIP3   OH243804   1.468   1.389   1.015  0.0362 -0.5018  0.3507
14623TIP3    H143805   1.448   1.477   1.045 -0.5661 -0.6862  0.5110
14623TIP3    H243806   1.509   1.347   1.091  1.5644  0.0480 -0.1560
14624TIP3   OH243807   1.676   2.596   0.913 -0.3721 -0.1020 -0.1345
14624TIP3    H143808   1.757   2.603   0.964 -1.0412  1.4730  0.7236
14624TIP3    H243809   1.667   2.502   0.897  0.3725 -0.5345  1.7914
14625TIP3   OH243810   1.383   2.902   0.821  0.1835  0.4367  0.1441
14625TIP3    H143811   1.330   2.897   0.901 -1.2577  2.8268 -0.6216
14625TIP3    H243812   1.374   2.815   0.782 -0.1161 -0.3655  1.9361
14626TIP3   OH243813   5.184   6.748   6.530  0.5865  0.0035 -0.2091
14626TIP3    H143814   5.166   6.840   6.513  0.8991  0.0885 -0.0967
14626TIP3    H243815   5.207   6.745   6.623  0.8647 -0.1413 -0.2800
14627TIP3   OH243816   4.692   6.756   5.946 -0.5793  0.5465  0.5444
14627TIP3    H143817   4.650   6.681   5.987 -0.3572  1.4374  2.4864
14627TIP3    H243818   4.687   6.739   5.852 -1.9432 -1.1223  0.9004
14628TIP3   OH243819   2.301   2.863   0.513 -0.2199 -0.2622 -0.0235
14628TIP3    H143820   2.371   2.887   0.573  0.1451 -1.3874  0.0093
14628TIP3    H243821   2.322   2.773   0.486 -0.2033  0.3235 -2.0635
14629TIP3   OH243822   4.209   7.058   6.932 -0.0373 -0.5760 -0.4378
14629TIP3    H143823   4.284   7.004   6.955  0.4583  0.5067  0.4949
14629TIP3    H243824   4.234   7.099   6.849  1.5825  2.0028  1.2969
14630TIP3   OH243825   1.927   5.088   0.517  0.0745  0.1519  0.5017
14630TIP3    H143826   1.833   5.076   0.534  0.5020 -2.1615  1.4337
14630TIP3    H243827   1.954   5.154   0.580 -0.8936  0.7117  0.3500
14631TIP3   OH243828   3.093   2.039   0.756  0.2923 -0.1852 -0.9064
14631TIP3    H143829   3.160   2.060   0.821 -0.6621  1.0533 -0.2998
14631TIP3    H243830   3.077   1.945   0.768  0.6715 -0.1221  0.1396
14632TIP3   OH243831   6.052   6.181   4.480  0.0586  0.6106 -0.1974
14632TIP3    H143832   5.997   6.221   4.413  0.7355  0.3141 -0.9412
14632TIP3    H243833   6.016   6.212   4.563 -0.2113  1.7232 -0.7239
14633TIP3   OH243834   6.674   7.531   5.392 -0.0639  0.4213  0.3079
14633TIP3    H143835   6.685   7.598   5.324  0.9043  0.5132  0.5504
14633TIP3    H243836   6.720   7.455   5.358 -1.1252 -0.1241  0.0528
14634TIP3   OH243837   3.460   6.803   4.984  0.3096 -0.4717  0.1319
14634TIP3    H143838   3.466   6.747   5.061 -1.0981 -0.1246  0.5096
14634TIP3    H243839   3.411   6.880   5.014  0.4145  0.0087 -0.9040
14635TIP3   OH243840   5.053   6.315   3.788  0.4743  0.0456 -0.2481
14635TIP3    H143841   5.042   6.228   3.826 -2.9155  1.6310  2.7399
14635TIP3    H243842   4.995   6.315   3.712 -1.5800  0.5050  1.2914
14636TIP3   OH243843   3.012   2.195   0.117  0.6533 -0.3110 -0.1177
14636TIP3    H143844   3.048   2.203   0.205  1.8703  0.1141 -0.6474
14636TIP3    H243845   3.049   2.113   0.083  0.9439  0.0099 -0.5765
14637TIP3   OH243846   2.297   2.044   1.097 -0.5746 -0.3962 -0.2343
14637TIP3    H143847   2.371   1.987   1.074 -0.5799  0.2653 -2.0112
14637TIP3    H243848   2.223   2.008   1.047 -0.9590  0.1733 -0.0705
14638TIP3   OH243849   2.510   2.015   2.149 -0.8192  0.0326  0.7399
14638TIP3    H143850   2.422   2.038   2.121 -0.8940 -1.1512 -0.0556
14638TIP3    H243851   2.567   2.054   2.082 -0.6458  1.7123  1.8242
14639TIP3   OH243852   1.816   1.778   0.329 -0.2745  0.0011  0.1569
14639TIP3    H143853   1.826   1.714   0.259  0.7342  1.9293 -1.5264
14639TIP3    H243854   1.738   1.828   0.306 -1.3313 -0.9087  1.7112
14640TIP3   OH243855   2.521   2.585   4.480 -0.1636  0.5996 -0.4981
14640TIP3    H143856   2.507   2.676   4.504  1.5846  0.7015  0.1869
14640TIP3    H243857   2.507   2.583   4.385  1.1377  1.8413 -0.7202
14641TIP3   OH243858   7.893   8.022   2.071 -0.6808 -0.2853 -0.2231
14641TIP3    H143859   7.853   8.015   2.158 -1.1878  0.3413 -0.4037
14641TIP3    H243860   7.838   7.967   2.015 -1.0853  0.2937 -0.3985
14642TIP3   OH243861   1.666   1.799   2.039  0.0492 -0.2200  0.1540
14642TIP3    H143862   1.610   1.767   1.969 -0.6095  1.2090  0.0244
14642TIP3    H243863   1.755   1.795   2.002 -0.1398 -0.8719 -0.2362
14643TIP3   OH243864   2.885   0.084   3.531 -0.1244  0.0858 -0.8808
14643TIP3    H143865   2.976   0.095   3.559 -0.2629  0.3561 -0.5374
14643TIP3    H243866   2.866  -0.008   3.549 -0.4894  0.4616  0.7452
14644TIP3   OH243867   7.925   2.871   5.528  0.4265  0.1545 -0.2943
14644TIP3    H143868   8.004   2.820   5.543  1.0999  1.2198 -0.1499
14644TIP3    H243869   7.930   2.943   5.591 -1.2073 -0.3750  0.4791
14645TIP3   OH243870   1.055   3.688   0.126  0.1455  0.0966 -0.1837
14645TIP3    H143871   1.146   3.666   0.147 -0.4383 -0.1604  2.1146
14645TIP3    H243872   1.039   3.770   0.173 -0.7987  0.1718 -0.6319
14646TIP3   OH243873   1.758   3.034   0.667 -0.2962 -0.2753 -0.1669
14646TIP3    H143874   1.771   2.991   0.583 -0.0228  0.8608 -0.7280
14646TIP3    H243875   1.846   3.060   0.694 -0.5021  0.3093 -0.0541
14647TIP3   OH243876   1.217   3.201   0.988  0.4179  0.4154 -1.0746
14647TIP3    H143877   1.196   3.231   1.076 -0.7755  0.0485 -1.2148
14647TIP3    H243878   1.273   3.269   0.951  1.7941  0.0558  0.3367
14648TIP3   OH243879   2.070   3.192   0.596 -0.7065 -0.2690 -0.2445
14648TIP3    H143880   2.155   3.171   0.557 -0.6115  0.3953 -0.3964
14648TIP3    H243881   2.017   3.223   0.523 -1.2491 -1.1808 -0.2430
14649TIP3   OH243882   8.398   7.051   6.928  0.3303  0.0453  0.3784
14649TIP3    H143883   8.355   7.115   6.985 -1.9360  0.3363 -1.5728
14649TIP3    H243884   8.422   7.101   6.850  1.8387 -0.7166  0.3436
14650TIP3   OH243885   1.936   2.592   1.032  0.2503  0.2757 -0.0735
14650TIP3    H143886   1.979   2.590   1.117  0.2649 -0.9878 -0.1117
14650TIP3    H243887   2.004   2.623   0.972  0.2184  1.2357  0.3747
14651TIP3   OH243888   6.157   7.322   4.679 -0.0301  0.1959  0.1846
14651TIP3    H143889   6.125   7.380   4.609 -1.4538  0.5954  1.1511
14651TIP3    H243890   6.079   7.278   4.711  0.7707 -0.7704  0.8254
14652TIP3   OH243891   4.661   6.460   3.649 -0.1197 -0.1385  0.7873
14652TIP3    H143892   4.652   6.400   3.575 -1.2824 -1.7617  2.1939
14652TIP3    H243893   4.753   6.453   3.675  0.5997  1.3712 -1.2270
14653TIP3   OH243894   0.916   3.733   0.504 -0.6025  0.4184 -0.3420
14653TIP3    H143895   0.939   3.712   0.414 -0.0517  1.5410 -0.4800
14653TIP3    H243896   0.921   3.829   0.508  0.9209  0.2866  1.2912
14654TIP3   OH243897   3.796   2.297   0.059  0.2713 -0.4090  0.2585
14654TIP3    H143898   3.834   2.382   0.037  0.3443 -0.0732  1.6058
14654TIP3    H243899   3.725   2.285  -0.003  0.7869  0.2590 -0.4725
14655TIP3   OH243900   5.570   7.489   4.667  0.2680  0.1084 -0.6323
14655TIP3    H143901   5.614   7.408   4.690  0.5460  0.8538  1.6134
14655TIP3    H243902   5.487   7.461   4.629 -0.4226 -1.2533  1.7569
14656TIP3   OH243903   0.803   2.834   2.821 -0.1341  0.5949 -0.2509
14656TIP3    H143904   0.873   2.772   2.841 -2.2340 -1.4219  1.0933
14656TIP3    H243905   0.836   2.884   2.746  0.9947 -3.1716 -2.3777
14657TIP3   OH243906   5.480   7.065   6.633  0.4883  0.2044 -0.3659
14657TIP3    H143907   5.559   7.012   6.625  1.4152  1.3171  1.1473
14657TIP3    H243908   5.414   7.017   6.582  2.1496 -0.6645 -1.7649
14658TIP3   OH243909   2.466   2.039   1.583  0.3215  0.4127 -0.0933
14658TIP3    H143910   2.467   2.118   1.529 -1.1203 -0.5460 -1.5570
14658TIP3    H243911   2.375   2.029   1.609  0.1433 -1.7632 -1.4420
14659TIP3   OH243912   2.150   2.311   0.623 -0.2133  0.1033 -0.2090
14659TIP3    H143913   2.150   2.231   0.571 -1.6545  0.1740 -0.3241
14659TIP3    H243914   2.238   2.315   0.660  0.3130 -0.7880 -1.3373
14660TIP3   OH243915   3.918   3.190   0.192 -0.2975  0.2721 -0.5701
14660TIP3    H143916   3.897   3.284   0.191 -0.3269  0.2685 -1.6338
14660TIP3    H243917   3.999   3.183   0.142  1.0011  0.0001  1.5420
14661TIP3   OH243918   3.921   4.610   6.301  0.0953 -0.1382  0.3960
14661TIP3    H143919   3.854   4.675   6.322 -1.1842 -1.4766  0.6061
14661TIP3    H243920   3.898   4.581   6.212  1.1674  0.3024 -0.0334
14662TIP3   OH243921   5.909   6.988   6.385  0.2713 -0.6557  0.0187
14662TIP3    H143922   5.906   7.023   6.296  0.3079  0.8138  0.5708
14662TIP3    H243923   5.886   6.896   6.376  0.5023 -0.5724 -1.5358
14663TIP3   OH243924   0.760   2.307   0.764 -0.4080 -0.1003  0.4940
14663TIP3    H143925   0.693   2.292   0.831 -0.8859  2.1991  0.5721
14663TIP3    H243926   0.832   2.350   0.811 -0.6053  1.2154 -0.3867
14664TIP3   OH243927   7.500   2.954   0.254 -0.2951 -0.0257 -0.1198
14664TIP3    H143928   7.423   2.896   0.251 -0.1850 -0.1121 -1.2900
14664TIP3    H243929   7.498   3.000   0.171  0.5645  0.4521  0.1271
14665TIP3   OH243930   4.197   3.224   0.050 -0.3752 -0.4710 -0.0337
14665TIP3    H143931   4.246   3.179   0.119 -1.7247 -0.5600  0.8787
14665TIP3    H243932   4.208   3.167  -0.027  2.3957  0.4018 -0.3428
14666TIP3   OH243933   7.239   1.593   5.846 -0.2905 -0.2006 -0.7854
14666TIP3    H143934   7.154   1.607   5.888 -0.0647 -1.1568 -0.0045
14666TIP3    H243935   7.266   1.680   5.817 -1.5271  0.1157 -1.0217
14667TIP3   OH243936   5.625   0.144   5.655  0.1148 -0.1744  0.3549
14667TIP3    H143937   5.604   0.171   5.566 -0.8088  0.1852  0.6726
14667TIP3    H243938   5.652   0.225   5.699  1.3177 -0.4819  0.1955
14668TIP3   OH243939   7.447   0.970   5.837  0.3706 -0.5865  0.0669
14668TIP3    H143940   7.384   1.009   5.776  1.1106  0.7288  0.1221
14668TIP3    H243941   7.489   0.901   5.787 -1.3457 -1.7150  0.1314
14669TIP3   OH243942   1.526   3.345   2.307 -0.0040  0.2517 -0.2899
14669TIP3    H143943   1.577   3.408   2.257 -1.0028  0.9026 -0.5128
14669TIP3    H243944   1.435   3.374   2.296 -0.1954  0.8717  2.5015
14670TIP3   OH243945   3.432   1.537   1.136 -0.2564  0.1405 -0.1512
14670TIP3    H143946   3.375   1.489   1.076  0.9298 -0.9223 -0.4346
14670TIP3    H243947   3.388   1.530   1.221  0.1835 -1.9556 -0.0760
14671TIP3   OH243948   6.843   6.684   6.326 -0.0403  0.2845  0.0451
14671TIP3    H143949   6.780   6.734   6.273 -1.4171 -2.6005 -1.1979
14671TIP3    H243950   6.915   6.666   6.266 -0.4434 -0.8155 -0.1321
14672TIP3   OH243951   3.983   1.897   0.319 -0.6989 -0.8404 -0.3191
14672TIP3    H143952   3.953   1.973   0.270  0.0446 -0.6071 -0.4090
14672TIP3    H243953   4.007   1.931   0.405 -0.5725 -1.0097 -0.2865
14673TIP3   OH243954   0.786   3.524   1.970 -0.3882 -0.5829  0.1959
14673TIP3    H143955   0.852   3.575   2.017 -0.5107  2.0328 -2.3867
14673TIP3    H243956   0.832   3.445   1.942  1.0620  0.2562  0.2004
14674TIP3   OH243957   5.948   4.805   4.909 -0.4429 -0.0092 -0.1318
14674TIP3    H143958   5.884   4.857   4.957 -0.0630  0.9272 -0.6279
14674TIP3    H243959   5.930   4.715   4.935 -1.5792  0.2991  0.1771
14675TIP3   OH243960   2.226   2.281   1.152 -0.0907  0.2704  0.8627
14675TIP3    H143961   2.265   2.280   1.240  1.1701  0.2613  0.3138
14675TIP3    H243962   2.267   2.206   1.108  1.1361  1.7487 -0.5299
14676TIP3   OH243963   2.926   1.932   2.379  0.6044 -0.1900  0.0161
14676TIP3    H143964   2.846   1.985   2.389  1.3526  1.4000 -2.1672
14676TIP3    H243965   2.992   1.980   2.428  0.7350 -0.3550 -0.0006
14677TIP3   OH243966   2.865   0.774   0.694  0.1286 -0.1775 -0.1471
14677TIP3    H143967   2.829   0.744   0.611  0.9545  0.3749 -0.7185
14677TIP3    H243968   2.792   0.768   0.756 -0.3528 -1.0808 -0.7917
14678TIP3   OH243969   7.024   2.668   1.258  0.5343 -0.2255  0.4764
14678TIP3    H143970   6.964   2.610   1.210 -1.1366  0.9674  1.0785
14678TIP3    H243971   7.035   2.625   1.343  1.7127 -1.1831 -0.1355
14679TIP3   OH243972   1.976   0.687   0.088 -0.0130 -0.6311 -0.1061
14679TIP3    H143973   2.043   0.652   0.147 -0.0484 -0.0772  0.2658
14679TIP3    H243974   1.893   0.660   0.128 -0.0321 -0.4268 -0.0066
14680TIP3   OH243975   2.174   1.350   0.452  0.1506  0.1157  0.0430
14680TIP3    H143976   2.128   1.267   0.449  2.3775 -1.1707  0.2890
14680TIP3    H243977   2.116   1.408   0.501 -1.8468 -0.9991 -0.9497
14681TIP3   OH243978   6.622   0.429   6.016 -0.1168  0.0200  0.5487
14681TIP3    H143979   6.708   0.429   5.973 -0.1043  1.5843  0.5610
14681TIP3    H243980   6.642   0.418   6.109  0.0281 -0.2970  0.4822
14682TIP3   OH243981   3.103   7.025   4.976  0.1190  0.3148  0.2638
14682TIP3    H143982   3.198   7.026   4.994  0.3410 -0.5220 -0.8578
14682TIP3    H243983   3.068   6.961   5.038  0.6406 -1.2487 -1.0355
14683TIP3   OH243984   0.996   2.637   2.840  0.1054  0.2444 -0.3019
14683TIP3    H143985   1.010   2.544   2.823 -2.2142 -0.2891  0.5612
14683TIP3    H243986   1.071   2.663   2.894  0.3125 -1.3280  0.1875
14684TIP3   OH243987   7.609   4.110   0.939  0.2207  0.2359  0.1398
14684TIP3    H143988   7.571   4.070   1.017  1.3612 -0.6147  0.2807
14684TIP3    H243989   7.698   4.132   0.964 -0.5009  3.2533  0.1628
14685TIP3   OH243990   3.121   5.944   6.408 -0.1197 -0.0546  0.1021
14685TIP3    H143991   3.165   5.859   6.403 -1.8957 -1.0512  1.0063
14685TIP3    H243992   3.086   5.948   6.496  0.1379  1.7477  0.1477
14686TIP3   OH243993   7.413   7.352   6.363  0.4070 -0.2438 -0.1108
14686TIP3    H143994   7.337   7.298   6.340  0.9363 -0.8832 -0.3604
14686TIP3    H243995   7.375   7.431   6.401 -0.3343 -1.6956  2.2716
14687TIP3   OH243996   0.079   0.522   5.933  0.2567 -0.5775 -0.4341
14687TIP3    H143997   0.018   0.579   5.888 -0.1341  0.3435  1.2208
14687TIP3    H243998   0.051   0.433   5.910 -1.2148 -0.1447 -0.3234
14688TIP3   OH243999   8.062   6.394   5.410 -0.2904 -0.3539  0.0690
14688TIP3    H144000   7.996   6.346   5.361 -0.3842 -0.3682  0.2095
14688TIP3    H244001   8.119   6.432   5.344  0.2366 -1.2971 -0.0340
14689TIP3   OH244002   5.265   4.124   0.924  0.2990  0.1674 -0.0620
14689TIP3    H144003   5.350   4.149   0.887  0.2555  0.9310  0.3428
14689TIP3    H244004   5.287   4.083   1.008  0.2021  1.3810  0.5600
14690TIP3   OH244005   8.343   6.569   6.075  0.4741  0.2808  0.6192
14690TIP3    H144006   8.362   6.494   6.018 -0.1605 -0.3709  1.2638
14690TIP3    H244007   8.338   6.532   6.163 -2.4776  0.6421  0.6382
14691TIP3   OH244008   0.667   7.729   5.948 -0.0798 -0.3847 -0.0070
14691TIP3    H144009   0.745   7.727   6.003 -0.0302  0.4062 -0.0304
14691TIP3    H244010   0.595   7.746   6.009  0.0244  0.8932 -0.2193
14692TIP3   OH244011   0.130   5.945   6.129  0.1760  0.3301  0.6720
14692TIP3    H144012   0.122   5.938   6.224  0.7643 -1.0021  0.6382
14692TIP3    H244013   0.211   5.897   6.108  0.5842  1.4629 -0.3977
14693TIP3   OH244014   5.567   7.537   5.814 -0.0280  0.1297 -0.3750
14693TIP3    H144015   5.472   7.526   5.820  0.1159 -0.9707 -0.0267
14693TIP3    H244016   5.600   7.449   5.798  0.8597  0.6667 -1.5593
14694TIP3   OH244017   7.271   5.986   6.314 -0.0782  0.0143  0.0803
14694TIP3    H144018   7.306   6.070   6.346 -0.8857  0.0534  0.8760
14694TIP3    H244019   7.324   5.966   6.237  3.4464 -1.2319  2.7096
14695TIP3   OH244020   7.903   6.452   5.992 -0.1931  0.1732 -0.0490
14695TIP3    H144021   7.971   6.518   5.978 -0.3688  0.2994 -0.3011
14695TIP3    H244022   7.823   6.502   6.008 -0.2226  0.0243  0.2830
14696TIP3   OH244023   3.801   4.533   0.796 -0.0624 -0.2481 -0.1145
14696TIP3    H144024   3.773   4.485   0.874  0.7336 -0.6075 -0.0491
14696TIP3    H244025   3.896   4.541   0.805 -0.2760  2.1969  0.3544
14697TIP3   OH244026   4.875   2.519   0.360  0.1546  0.2795 -0.5100
14697TIP3    H144027   4.928   2.440   0.347  0.4626  0.2901  0.6592
14697TIP3    H244028   4.839   2.538   0.273 -0.0411 -1.2333 -0.7750
14698TIP3   OH244029   7.216   5.447   6.460 -0.5204  0.4712  0.3416
14698TIP3    H144030   7.256   5.415   6.379  0.0310  1.7771  0.0860
14698TIP3    H244031   7.174   5.369   6.498  0.6804 -0.5168 -0.3179
14699TIP3   OH244032   5.629   5.686   6.549 -0.2724 -0.3001 -0.3830
14699TIP3    H144033   5.654   5.622   6.617  1.9758 -0.8567 -1.6472
14699TIP3    H244034   5.689   5.759   6.562 -0.3052 -0.1022 -1.2967
14700TIP3   OH244035   2.883   1.532   5.861  0.3216  0.2071 -0.2212
14700TIP3    H144036   2.815   1.469   5.886  2.8444 -1.9264  1.6403
14700TIP3    H244037   2.870   1.606   5.921  1.1785 -1.3081  1.9156
14701TIP3   OH244038   4.740   2.200   1.466  0.8815 -0.1622 -0.7375
14701TIP3    H144039   4.658   2.208   1.417  1.6433 -2.1939 -2.4106
14701TIP3    H244040   4.734   2.114   1.507  1.5610  0.3035  0.3534
14702TIP3   OH244041   5.206   7.836   5.338 -0.1586 -0.0968  0.5351
14702TIP3    H144042   5.177   7.880   5.258 -0.4823  0.0625  0.7419
14702TIP3    H244043   5.154   7.876   5.408  2.0053  1.6592  1.2051
14703TIP3   OH244044   3.518   2.216   0.017 -0.2175 -0.1327  0.1319
14703TIP3    H144045   3.447   2.192  -0.043  0.1798 -0.7159 -0.1071
14703TIP3    H244046   3.498   2.306   0.042 -0.9089 -0.2064 -0.1297
14704TIP3   OH244047   0.495   6.193   6.074  0.1097  0.5333  0.0700
14704TIP3    H144048   0.471   6.168   5.985  0.1237 -0.5583  0.3702
14704TIP3    H244049   0.517   6.286   6.067 -0.6403  0.6490 -0.9092
14705TIP3   OH244050   4.781   3.423   0.620  1.0428 -0.3151  0.9955
14705TIP3    H144051   4.695   3.463   0.624  0.5280 -1.3741  0.6699
14705TIP3    H244052   4.769   3.336   0.657  1.6234 -1.0562 -0.5319
14706TIP3   OH244053   8.010   0.679   6.601  0.0641  0.0776 -0.5813
14706TIP3    H144054   7.946   0.655   6.534 -1.2218 -1.7503  1.2287
14706TIP3    H244055   8.090   0.634   6.575  0.7859  2.5444 -2.9773
14707TIP3   OH244056   7.348   6.933   3.347 -0.4825  0.1010  0.1809
14707TIP3    H144057   7.435   6.936   3.388 -0.6059  1.2869  0.3783
14707TIP3    H244058   7.289   6.909   3.419 -0.6339  1.6973  0.6023
14708TIP3   OH244059   6.389   2.097   0.057  0.7150  0.2437 -0.7007
14708TIP3    H144060   6.414   2.007   0.079  1.1394 -0.1234 -2.5954
14708TIP3    H244061   6.325   2.087  -0.014 -1.4947  1.3358  1.0875
14709TIP3   OH244062   6.297   6.702   6.696  0.0734 -0.7698 -0.1146
14709TIP3    H144063   6.239   6.762   6.649  2.0399 -0.4166 -2.1620
14709TIP3    H244064   6.327   6.752   6.771  0.2149  0.1648 -0.7862
14710TIP3   OH244065   5.848   3.028   0.642 -0.0577  0.1390 -0.3282
14710TIP3    H144066   5.910   3.101   0.637 -1.5789  1.5078  0.3021
14710TIP3    H244067   5.813   3.020   0.553  3.1269 -2.5976 -1.4597
14711TIP3   OH244068   7.650   6.558   5.843  0.0309 -0.0867  0.3653
14711TIP3    H144069   7.664   6.591   5.932 -0.1199  1.4201 -0.1524
14711TIP3    H244070   7.561   6.586   5.822  0.3641  0.2655 -0.5649
14712TIP3   OH244071   6.196   3.689   1.160  0.3011 -0.3518 -0.2262
14712TIP3    H144072   6.273   3.739   1.134  0.7839 -1.3321 -0.7042
14712TIP3    H244073   6.194   3.696   1.256 -0.2893  1.5184 -0.3558
14713TIP3   OH244074   8.440   6.439   6.360  0.2668 -0.4435  0.0482
14713TIP3    H144075   8.499   6.512   6.374  0.8640 -1.3049  2.2451
14713TIP3    H244076   8.478   6.391   6.285  0.0929  1.2155 -1.1264
14714TIP3   OH244077   1.351   0.659   4.885 -0.0433 -0.4918  0.2816
14714TIP3    H144078   1.297   0.654   4.964  1.0476 -2.4179  0.9309
14714TIP3    H244079   1.291   0.644   4.813 -1.0019  1.0089  0.7435
14715TIP3   OH244080   4.736   3.473   0.062 -0.3473  0.3678  0.4728
14715TIP3    H144081   4.642   3.479   0.046 -1.1077 -4.3208  2.2522
14715TIP3    H244082   4.743   3.456   0.156  2.2647  0.6305  0.3573
14716TIP3   OH244083   6.979   7.638   6.472  0.2527  0.8060 -0.2246
14716TIP3    H144084   6.966   7.629   6.566  1.7276  0.3609 -0.0630
14716TIP3    H244085   6.912   7.701   6.444  0.6134  1.8830  1.3144
14717TIP3   OH244086   8.141   7.485   3.975 -0.3102 -0.6624 -0.3463
14717TIP3    H144087   8.215   7.536   4.008 -2.7565  2.2693  0.9331
14717TIP3    H244088   8.116   7.429   4.049  0.6090 -1.6692 -0.7860
14718TIP3   OH244089   3.757   4.295   0.117 -0.0762  0.2215 -0.0157
14718TIP3    H144090   3.751   4.315   0.210 -2.4534 -2.3782  0.4257
14718TIP3    H244091   3.667   4.297   0.085  0.4758 -1.0773 -1.7834
14719TIP3   OH244092   7.326   6.595   5.855 -0.4117  0.0303  0.5300
14719TIP3    H144093   7.353   6.513   5.897  0.7040 -0.1463 -0.4900
14719TIP3    H244094   7.366   6.591   5.768 -0.5031  1.5850  0.4053
14720TIP3   OH244095   3.155   0.748   6.776 -0.2011 -0.0319 -0.1660
14720TIP3    H144096   3.172   0.732   6.869 -0.1919  0.8667 -0.0069
14720TIP3    H244097   3.199   0.831   6.758 -0.6474  0.0592 -0.8500
14721TIP3   OH244098   7.949   5.435   5.865 -0.2491 -0.5323 -0.2262
14721TIP3    H144099   7.901   5.383   5.801 -1.2128 -0.9365  0.8336
14721TIP3    H244100   8.016   5.375   5.900  1.4371  0.1843 -2.1004
14722TIP3   OH244101   6.429   4.348   1.046 -0.7418  0.1639 -0.0233
14722TIP3    H144102   6.386   4.265   1.068  0.4472 -0.3138  0.5787
14722TIP3    H244103   6.369   4.416   1.076 -0.2807 -0.4868  2.4586
14723TIP3   OH244104   5.145   5.376   4.982  0.2884  0.3269  0.3280
14723TIP3    H144105   5.058   5.362   5.019 -0.5436  0.4980 -1.4911
14723TIP3    H244106   5.205   5.345   5.049 -1.2202 -1.5397  0.8631
14724TIP3   OH244107   5.923   1.223   0.486  0.8895 -0.0142  0.2799
14724TIP3    H144108   5.892   1.133   0.498 -2.0883  0.9357  0.2291
14724TIP3    H244109   5.940   1.230   0.392 -0.3060 -0.1438  0.0385
14725TIP3   OH244110   0.102   5.656   5.193  0.3389 -0.5414  0.1771
14725TIP3    H144111   0.016   5.618   5.175 -0.4004  0.3036  1.8795
14725TIP3    H244112   0.142   5.596   5.255  0.4570 -0.2497  0.3838
14726TIP3   OH244113   5.413   5.013   5.095 -0.3109 -0.0110  0.2155
14726TIP3    H144114   5.436   4.961   5.018 -0.7683 -1.7556  1.2254
14726TIP3    H244115   5.319   5.026   5.088 -0.1016  1.2973 -0.3806
14727TIP3   OH244116   6.113   6.508   4.720 -0.0007 -0.6481  0.2713
14727TIP3    H144117   6.181   6.469   4.665 -0.1229  0.3375 -0.5978
14727TIP3    H244118   6.160   6.575   4.771 -0.2602 -0.1479 -0.1388
14728TIP3   OH244119   6.553   7.065   6.441  0.3478 -0.5216  0.2002
14728TIP3    H144120   6.562   6.993   6.503  0.8345 -0.6288  0.0033
14728TIP3    H244121   6.597   7.139   6.484 -0.5146 -0.2279  0.5861
14729TIP3   OH244122   1.347   7.055   5.649 -0.2674 -0.3769 -0.0947
14729TIP3    H144123   1.310   7.095   5.570  0.9147  1.9999  0.5411
14729TIP3    H244124   1.441   7.052   5.633 -0.1104 -0.7545  0.8519
14730TIP3   OH244125   7.749   5.472   5.189  0.2697 -0.1789  0.1374
14730TIP3    H144126   7.704   5.556   5.178 -1.9422 -1.3029  0.5606
14730TIP3    H244127   7.815   5.472   5.120  0.9984  2.3606  0.7865
14731TIP3   OH244128   7.940   5.961   5.817  0.0754 -0.4662  0.8428
14731TIP3    H144129   7.879   5.972   5.744  2.0756 -0.7176 -0.9096
14731TIP3    H244130   7.955   6.051   5.848  0.3120 -0.2051  0.0038
14732TIP3   OH244131  -0.002   0.387   6.600  0.5372 -0.4050  0.1533
14732TIP3    H144132   0.092   0.395   6.582  0.2998  0.8181 -0.5524
14732TIP3    H244133  -0.033   0.324   6.535  0.4920  0.7575 -0.9773
14733TIP3   OH244134   6.534   6.031   5.569  0.3405  0.1090 -0.1845
14733TIP3    H144135   6.486   6.093   5.624  0.9495 -0.5724  1.1567
14733TIP3    H244136   6.624   6.064   5.568  0.2416  0.3615 -1.1519
14734TIP3   OH244137   6.466   7.100   3.110  0.2815 -0.4333 -0.3797
14734TIP3    H144138   6.435   7.073   3.023 -1.2390  0.4504 -0.1160
14734TIP3    H244139   6.469   7.196   3.106 -1.0396 -0.3295  0.9669
14735TIP3   OH244140   7.669   7.605   6.390 -0.7035 -0.5931  0.0867
14735TIP3    H144141   7.645   7.566   6.305 -1.2365  0.6865 -0.3755
14735TIP3    H244142   7.746   7.557   6.418 -0.4776 -0.9887 -1.1722
14736TIP3   OH244143   6.555   3.179   0.130 -0.0320  0.0753 -0.0192
14736TIP3    H144144   6.543   3.231   0.209  0.6928  1.1762 -0.6246
14736TIP3    H244145   6.467   3.169   0.094 -0.2584  0.2842  0.4744
14737TIP3   OH244146   8.092   7.182   6.869  0.1447  0.7544 -0.0331
14737TIP3    H144147   8.081   7.087   6.872 -3.1130  1.0142 -1.3272
14737TIP3    H244148   8.147   7.202   6.945 -1.0140 -1.9351  1.5998
14738TIP3   OH244149   7.836   3.483   2.356 -0.5051  0.5515  0.5669
14738TIP3    H144150   7.822   3.488   2.451 -1.6547 -0.3798  0.4572
14738TIP3    H244151   7.817   3.392   2.334 -0.3030  0.7782 -0.5741
14739TIP3   OH244152   6.498   2.413   5.968  0.2422  0.4140 -0.6489
14739TIP3    H144153   6.584   2.372   5.978 -0.1443 -0.5625 -1.2707
14739TIP3    H244154   6.514   2.506   5.982  1.5839  0.3600 -1.7613
14740TIP3   OH244155   4.726   0.991   5.390  0.4298  0.0454  0.4242
14740TIP3    H144156   4.757   1.014   5.303 -0.5452  0.0887  0.0821
14740TIP3    H244157   4.672   0.913   5.377 -0.5011  0.6163  0.8529
14741TIP3   OH244158   8.249   2.421   0.888  0.3562 -0.0060 -0.4478
14741TIP3    H144159   8.267   2.428   0.981  1.5090 -0.4787 -0.6252
14741TIP3    H244160   8.199   2.339   0.879 -1.0508  0.7975 -0.0766
14742TIP3   OH244161   1.304   4.035   0.465  0.1979  0.1994  0.1637
14742TIP3    H144162   1.379   4.032   0.406  0.7720  1.1523  0.8375
14742TIP3    H244163   1.340   4.061   0.549 -0.8822  0.6596  0.4963
14743TIP3   OH244164   6.893   3.162   0.978  0.5031 -0.1912  0.0613
14743TIP3    H144165   6.946   3.084   0.964 -0.0573 -0.6940  0.7461
14743TIP3    H244166   6.870   3.160   1.071 -1.0488 -0.1865 -0.3103
14744TIP3   OH244167   4.747   0.329   6.545  0.3169 -0.1893 -0.0954
14744TIP3    H144168   4.701   0.406   6.577  1.9639  1.3510 -1.3729
14744TIP3    H244169   4.823   0.363   6.497  0.9649 -2.5781 -0.8699
14745TIP3   OH244170   1.238   4.308   0.644  0.5046  0.5492  0.0340
14745TIP3    H144171   1.181   4.319   0.720  1.6325 -0.0429  0.9642
14745TIP3    H244172   1.182   4.264   0.579 -1.1222  3.0334 -0.3106
14746TIP3   OH244173   5.078   1.134   6.502  0.1104  0.4907  0.1400
14746TIP3    H144174   4.989   1.119   6.469  0.5473 -0.9777 -0.4055
14746TIP3    H244175   5.121   1.185   6.434 -0.1679  0.8258  0.2096
14747TIP3   OH244176   5.314   1.892   5.758  0.5468  0.0070 -0.4402
14747TIP3    H144177   5.258   1.953   5.805 -1.2183 -1.2817 -0.7843
14747TIP3    H244178   5.396   1.939   5.744 -0.2844  1.7682  0.5130
14748TIP3   OH244179   2.074   5.672   0.095 -0.8292 -0.3100 -0.0362
14748TIP3    H144180   2.140   5.602   0.098  0.5750  1.0610  1.7507
14748TIP3    H244181   1.991   5.626   0.110  0.0312 -1.6781  0.7278
14749TIP3   OH244182   4.295   2.434   6.738 -0.4961  0.5538  0.1910
14749TIP3    H144183   4.256   2.399   6.818  0.5426  0.0843  0.5122
14749TIP3    H244184   4.241   2.400   6.667 -1.8410  1.5507  0.7301
14750TIP3   OH244185   2.797   7.374   6.376  0.3853 -0.2318 -0.1663
14750TIP3    H144186   2.848   7.300   6.343  1.3255  0.5591 -0.4834
14750TIP3    H244187   2.822   7.448   6.321  1.6119  1.0025  1.9545
14751TIP3   OH244188   6.252   0.824   6.666  0.1044 -0.0875  0.1917
14751TIP3    H144189   6.300   0.856   6.591 -0.5889  1.5888  0.4356
14751TIP3    H244190   6.306   0.753   6.701  2.1197  1.3836  0.1469
14752TIP3   OH244191   8.177   3.098   1.083 -0.1166  0.1093  0.2694
14752TIP3    H144192   8.137   3.135   1.162  0.9077  1.0219  0.3839
14752TIP3    H244193   8.202   3.009   1.108 -0.5323  0.1208  0.7282
14753TIP3   OH244194   7.785   1.582   6.747  0.0878  0.4016  0.1180
14753TIP3    H144195   7.767   1.612   6.836  1.0227  0.9967  0.1098
14753TIP3    H244196   7.790   1.662   6.695  1.7460  0.2121 -0.0509
14754TIP3   OH244197   1.201   3.787   0.605  0.0047  0.1073  0.4884
14754TIP3    H144198   1.224   3.843   0.531 -0.0596 -0.5511 -0.0431
14754TIP3    H244199   1.106   3.780   0.601  0.0383 -0.3099  0.3422
14755TIP3   OH244200   0.871   4.644   2.246  0.0135 -0.0580  0.1041
14755TIP3    H144201   0.918   4.610   2.322 -0.6685 -1.1226  0.0622
14755TIP3    H244202   0.830   4.724   2.276  1.8394  0.8750  0.1499
14756TIP3   OH244203   7.493   3.602   0.430 -0.1338 -0.2804  0.0211
14756TIP3    H144204   7.409   3.595   0.476  0.0558  2.7250  0.9657
14756TIP3    H244205   7.557   3.617   0.500  0.7176  0.5373 -0.9278
14757TIP3   OH244206   1.097   4.088   0.809  0.7017 -0.2808  0.3983
14757TIP3    H144207   1.053   4.073   0.725  1.7985 -0.5824 -0.1333
14757TIP3    H244208   1.054   4.165   0.845 -0.0540 -0.3888 -0.2528
14758TIP3   OH244209   8.202   4.227   0.304 -0.4467 -0.5546 -0.4544
14758TIP3    H144210   8.149   4.153   0.335  1.6140 -2.0853 -0.4457
14758TIP3    H244211   8.196   4.222   0.209 -1.6246  0.2671 -0.4280
14759TIP3   OH244212   0.097   5.492   0.687  0.6893  0.0797 -0.3289
14759TIP3    H144213   0.002   5.488   0.675  0.9753  0.8759 -3.3281
14759TIP3    H244214   0.113   5.580   0.721  0.2949 -0.3918  1.1161
14760TIP3   OH244215   0.967   3.085   0.303  0.0487 -0.4843  0.2771
14760TIP3    H144216   0.882   3.131   0.298 -0.4736 -1.2820  1.5557
14760TIP3    H244217   0.944   2.993   0.298  0.7084 -0.7628  2.1784
14761TIP3   OH244218   5.252   6.350   6.371  0.8844 -0.1036  0.1486
14761TIP3    H144219   5.169   6.394   6.391  0.7153 -0.4537  0.2302
14761TIP3    H244220   5.259   6.282   6.438  0.2758 -1.3404 -1.0172
14762TIP3   OH244221   5.541   6.729   4.560  0.0334 -0.6917 -0.4029
14762TIP3    H144222   5.473   6.733   4.626  0.4495  0.0261 -0.0167
14762TIP3    H244223   5.541   6.638   4.530 -0.4429 -0.9104  0.2739
14763TIP3   OH244224   6.979   0.383   4.736 -0.3890  0.2987  0.2503
14763TIP3    H144225   6.935   0.385   4.651  0.6309  0.7224 -0.2878
14763TIP3    H244226   6.931   0.318   4.787 -0.3166 -0.7956 -1.0457
14764TIP3   OH244227   2.293   5.539   0.413  0.0682  0.0031 -0.6926
14764TIP3    H144228   2.241   5.478   0.465  0.7777  0.4070  0.4965
14764TIP3    H244229   2.285   5.506   0.323  0.3257 -1.7594 -0.0921
14765TIP3   OH244230   3.667   3.552   0.845  0.0061 -0.1312  0.8773
14765TIP3    H144231   3.664   3.585   0.756 -1.7350 -0.2874  0.8536
14765TIP3    H244232   3.754   3.576   0.877  0.4954  0.2765 -0.7136
14766TIP3   OH244233   6.154   0.105   3.867  0.1858 -0.4936 -0.0687
14766TIP3    H144234   6.206   0.093   3.788  1.3525  0.6568  0.5048
14766TIP3    H244235   6.169   0.026   3.918 -0.0773 -0.9651 -0.7110
14767TIP3   OH244236   4.806   0.750   6.496  0.4738 -0.0568 -0.1303
14767TIP3    H144237   4.878   0.745   6.433  1.3393 -1.6163  0.9423
14767TIP3    H244238   4.832   0.819   6.558  0.5190  0.1497 -0.3790
14768TIP3   OH244239   7.848   1.264   5.576 -0.0031 -0.0716 -0.4679
14768TIP3    H144240   7.783   1.329   5.548  0.9002  1.8868  1.8064
14768TIP3    H244241   7.903   1.251   5.499 -1.9289 -0.3353 -1.8364
14769TIP3   OH244242   5.846   6.549   4.802  0.0004 -0.4711  0.5501
14769TIP3    H144243   5.922   6.516   4.754 -0.8421  0.4665 -1.4737
14769TIP3    H244244   5.866   6.530   4.894  2.4434 -0.6800  0.0130
14770TIP3   OH244245   6.135   7.469   5.703 -0.8548  0.3217  0.1057
14770TIP3    H144246   6.166   7.525   5.632 -0.9376 -1.1166 -1.1150
14770TIP3    H244247   6.180   7.501   5.781  0.5931  0.8353 -0.9158
14771TIP3   OH244248   7.397   0.192   6.544  0.6120  0.3945 -0.7643
14771TIP3    H144249   7.307   0.167   6.526  0.6026  0.3898 -0.7099
14771TIP3    H244250   7.414   0.157   6.632  0.6625  0.4055 -0.7698
14772TIP3   OH244251   6.173   0.256   6.175  0.8769 -0.5480  0.2706
14772TIP3    H144252   6.264   0.242   6.201  1.0011 -0.2080  0.0295
14772TIP3    H244253   6.169   0.224   6.085  0.4223 -1.8195  0.7342
14773TIP3   OH244254   5.527   7.042   5.808 -0.0298  0.0115 -0.3012
14773TIP3    H144255   5.476   7.098   5.750  2.5135  3.0035  0.2740
14773TIP3    H244256   5.462   7.006   5.869 -1.8429  1.5739 -1.2668
14774TIP3   OH244257   1.956   5.003   0.974 -0.3241 -0.2237 -0.3605
14774TIP3    H144258   1.876   5.033   0.931 -0.1082  0.3748 -0.3602
14774TIP3    H244259   1.928   4.932   1.032 -0.5759 -1.2307 -1.7033
14775TIP3   OH244260   7.066   2.331   4.860 -0.2019  0.1308 -0.2913
14775TIP3    H144261   6.982   2.351   4.902  0.2086  1.6904 -0.1504
14775TIP3    H244262   7.072   2.394   4.788 -0.0508 -1.3000 -1.5503
14776TIP3   OH244263   4.799   0.416   5.458 -0.4364  0.0795  0.5747
14776TIP3    H144264   4.856   0.485   5.425  0.0748  0.4595  2.2158
14776TIP3    H244265   4.720   0.461   5.486 -0.4759 -0.1217  0.7838
14777TIP3   OH244266   6.627   1.633   6.127 -0.0808 -0.4881  0.2627
14777TIP3    H144267   6.658   1.550   6.092  0.3249  0.0378 -0.6214
14777TIP3    H244268   6.660   1.700   6.067 -1.4763  0.2240  0.2511
14778TIP3   OH244269   7.132   4.666   0.671 -0.4301  0.1559 -0.0903
14778TIP3    H144270   7.048   4.643   0.711 -0.2465 -0.8121 -0.2330
14778TIP3    H244271   7.137   4.761   0.677 -0.0110 -0.0206  2.9808
14779TIP3   OH244272   5.770   7.175   6.873  0.2373 -0.0748  0.6791
14779TIP3    H144273   5.784   7.246   6.810  0.7749  1.9114  2.9616
14779TIP3    H244274   5.782   7.095   6.822  0.4333  1.4696 -1.7819
14780TIP3   OH244275   3.857   7.752   6.157  0.0612 -0.1453  0.2412
14780TIP3    H144276   3.854   7.687   6.227  1.0866  0.7260  1.0997
14780TIP3    H244277   3.852   7.836   6.202  3.4976  0.5232 -0.4778
14781TIP3   OH244278   7.882   0.038   6.595 -0.0393  0.2225  0.5030
14781TIP3    H144279   7.807  -0.008   6.632 -0.5835 -0.7567 -1.7203
14781TIP3    H244280   7.949  -0.030   6.585 -0.6099  0.0167 -2.1615
14782TIP3   OH244281   0.421   3.681   2.116  0.2950 -0.4362 -0.3194
14782TIP3    H144282   0.430   3.759   2.061 -2.2417 -0.2361 -0.5084
14782TIP3    H244283   0.511   3.654   2.135  1.1937  1.4204 -1.8289
14783TIP3   OH244284   2.197   7.664   3.375 -0.7838  0.1934  0.1482
14783TIP3    H144285   2.128   7.680   3.310 -0.5984  0.6391  0.0589
14783TIP3    H244286   2.205   7.747   3.422 -0.2201  0.1823  0.0750
14784TIP3   OH244287   4.606   6.365   6.857  0.3274  0.6731 -0.3147
14784TIP3    H144288   4.564   6.362   6.771 -2.9124  0.8281  1.1918
14784TIP3    H244289   4.657   6.283   6.861  0.9697  0.9296 -2.5540
14785TIP3   OH244290   2.512   4.080   0.715 -0.2255 -0.0170  0.7566
14785TIP3    H144291   2.554   4.021   0.778  0.7960 -1.4446 -1.2144
14785TIP3    H244292   2.553   4.060   0.631 -0.8358  2.5626 -0.2236
14786TIP3   OH244293   0.398   2.138   6.687  0.0353  0.0436 -0.2503
14786TIP3    H144294   0.390   2.055   6.640 -3.0955  0.2420 -0.1627
14786TIP3    H244295   0.398   2.114   6.779 -0.9721  0.1207 -0.2229
14787TIP3   OH244296   7.237   0.119   6.783  0.0441 -0.2805 -0.4648
14787TIP3    H144297   7.259   0.025   6.787  0.7535 -0.0627  1.1592
14787TIP3    H244298   7.172   0.125   6.713 -0.2998 -2.0569 -0.3365
14788TIP3   OH244299   7.042   6.992   4.346  0.4291  0.5513 -0.0224
14788TIP3    H144300   7.007   6.960   4.430  0.0908 -0.2696 -0.4676
14788TIP3    H244301   6.975   7.053   4.315  0.6091  0.9463  0.3581
14789TIP3   OH244302   1.112   5.461   0.791  0.5816 -0.2233 -0.0932
14789TIP3    H144303   1.120   5.366   0.783  1.7531 -0.1622  0.2823
14789TIP3    H244304   1.133   5.480   0.882 -1.1267  0.2539  0.2052
14790TIP3   OH244305   8.191   1.393   6.468  0.4236  0.1560 -0.4981
14790TIP3    H144306   8.227   1.335   6.400  1.4954 -0.0646  0.2502
14790TIP3    H244307   8.266   1.416   6.522 -0.3441  0.7110  0.3459
14791TIP3   OH244308   7.407   3.209   6.681 -0.8569  0.2682  0.1332
14791TIP3    H144309   7.382   3.119   6.702 -2.1748  0.2220 -1.4750
14791TIP3    H244310   7.384   3.260   6.758 -1.3445 -0.5760  0.5439
14792TIP3   OH244311   2.951   7.180   5.639  0.4903 -0.2228 -0.1552
14792TIP3    H144312   3.025   7.120   5.640  2.1174  1.7108 -1.1194
14792TIP3    H244313   2.974   7.248   5.703 -0.6354  0.1824 -0.1700
14793TIP3   OH244314   3.744   3.656   0.179 -0.5254  0.0688 -0.6846
14793TIP3    H144315   3.807   3.685   0.112  1.6171 -3.0246 -0.1260
14793TIP3    H244316   3.768   3.705   0.257  1.8192 -1.6649 -0.2548
14794TIP3   OH244317   5.942   7.174   4.734 -0.3122 -0.0997 -0.8839
14794TIP3    H144318   5.961   7.112   4.805 -0.7036 -0.9044 -1.4637
14794TIP3    H244319   5.848   7.187   4.738 -0.1239  1.0590 -0.2869
14795TIP3   OH244320   6.798   2.052   6.373  0.2424  0.4816  0.1689
14795TIP3    H144321   6.869   2.105   6.410  0.9457 -2.2948  2.9912
14795TIP3    H244322   6.842   1.994   6.310  0.2561 -0.2615  0.8640
14796TIP3   OH244323   4.109   7.231   6.627 -0.0273 -0.1952 -0.1414
14796TIP3    H144324   4.179   7.169   6.643 -0.7365 -1.1632 -0.7428
14796TIP3    H244325   4.029   7.178   6.627 -0.6464  0.7245 -0.5549
14797TIP3   OH244326   0.683   4.180   0.896  0.4633 -0.2480  0.0462
14797TIP3    H144327   0.588   4.182   0.910  0.5879  1.2639  0.8085
14797TIP3    H244328   0.708   4.090   0.917 -0.3668  0.1463  2.9977
14798TIP3   OH244329   3.967   7.494   5.260  0.2289  0.7791  0.1486
14798TIP3    H144330   3.942   7.587   5.260 -0.1949  0.6651 -0.5578
14798TIP3    H244331   4.053   7.491   5.219 -0.8994  0.5577 -2.2683
14799TIP3   OH244332   0.739   5.629   1.209 -0.5420 -0.0054 -0.2055
14799TIP3    H144333   0.699   5.700   1.159  1.2230  0.4656 -0.9906
14799TIP3    H244334   0.670   5.562   1.215 -0.9816  0.1596 -2.8142
14800TIP3   OH244335   3.812   7.287   5.991  0.0785  0.1319  0.1277
14800TIP3    H144336   3.748   7.319   6.054 -0.2024 -0.8656  0.3577
14800TIP3    H244337   3.786   7.326   5.907 -0.2429  0.5114  0.4053
14801TIP3   OH244338   5.597   7.293   4.032  0.2320  0.2064 -0.3364
14801TIP3    H144339   5.621   7.384   4.050  0.7721  0.0638 -0.3048
14801TIP3    H244340   5.523   7.299   3.972  0.9952  0.6699 -1.2415
14802TIP3   OH244341   0.967   4.274   0.224  0.8446 -0.0685 -0.2600
14802TIP3    H144342   0.999   4.273   0.134  1.9400  1.0851  0.0953
14802TIP3    H244343   0.970   4.367   0.249 -1.7364 -0.0636  0.1607
14803TIP3   OH244344   0.809   4.400   0.773  0.3507 -0.2107 -0.0244
14803TIP3    H144345   0.780   4.453   0.699 -0.6591  2.4166  2.1652
14803TIP3    H244346   0.744   4.330   0.781 -0.7374  0.7751 -0.2847
14804TIP3   OH244347   6.240   1.375   6.750 -0.4196 -0.8013 -0.0937
14804TIP3    H144348   6.186   1.427   6.691 -0.8050 -0.4300  0.5694
14804TIP3    H244349   6.255   1.293   6.703  0.0807 -0.1428 -1.0909
14805TIP3   OH244350   0.711   3.225   1.723 -0.0150 -0.0393  0.5763
14805TIP3    H144351   0.653   3.161   1.682  1.2699 -0.8162 -0.0464
14805TIP3    H244352   0.678   3.233   1.812 -1.1478 -0.3884  0.1963
14806TIP3   OH244353   3.512   7.467   6.258 -0.5018  0.0866 -1.0076
14806TIP3    H144354   3.494   7.541   6.199 -3.1065 -0.9573 -1.6085
14806TIP3    H244355   3.508   7.390   6.201  0.3911 -0.6865 -0.0504
14807TIP3   OH244356   0.432   0.898   6.022 -0.0627 -0.8830 -0.0250
14807TIP3    H144357   0.440   0.980   6.070  1.9042 -1.7004  1.0916
14807TIP3    H244358   0.382   0.841   6.081  2.2172 -1.8347  1.0682
14808TIP3   OH244359   0.278   0.216   6.328 -0.1406 -0.3144  0.5511
14808TIP3    H144360   0.237   0.296   6.296 -0.7801 -0.0818  1.9108
14808TIP3    H244361   0.216   0.146   6.303  0.1907 -0.3305 -0.2211
14809TIP3   OH244362   8.346   0.836   5.997 -0.0264 -0.2514  0.4566
14809TIP3    H144363   8.392   0.778   5.936  2.7206  0.3136  1.9253
14809TIP3    H244364   8.257   0.801   6.001  0.3498 -1.6000 -2.1747
14810TIP3   OH244365   3.805   4.807   0.190  0.0346 -0.2735 -0.4546
14810TIP3    H144366   3.794   4.856   0.108 -1.5726 -0.1238 -0.1786
14810TIP3    H244367   3.817   4.716   0.162 -1.1498 -0.3222 -0.8621
14811TIP3   OH244368   7.669   2.155   6.658 -0.0146  1.1665 -0.3701
14811TIP3    H144369   7.736   2.090   6.678 -0.7763  0.2938 -0.6434
14811TIP3    H244370   7.715   2.221   6.606  0.5429  0.3787 -0.8920
14812TIP3   OH244371   5.054   6.841   5.703  0.4864 -0.0414  0.0545
14812TIP3    H144372   5.070   6.931   5.675  0.6067 -0.4974 -1.3470
14812TIP3    H244373   5.087   6.787   5.632 -2.5998 -1.1409 -0.6221
14813TIP3   OH244374   4.035   1.316   6.014 -0.0831  0.3143  0.6021
14813TIP3    H144375   4.067   1.377   6.080 -0.2918  0.2586  0.7558
14813TIP3    H244376   3.997   1.244   6.065 -0.9168  0.6253  0.4141
14814TIP3   OH244377   6.303   7.613   5.057 -0.5381  0.5726 -0.2925
14814TIP3    H144378   6.380   7.558   5.056 -0.6584  0.3530  1.1524
14814TIP3    H244379   6.328   7.691   5.007  0.9485  0.9179  0.9333
14815TIP3   OH244380   6.464   3.269   6.668 -0.3719  0.3754 -0.3381
14815TIP3    H144381   6.558   3.276   6.648  0.1405 -0.1748  1.7468
14815TIP3    H244382   6.449   3.336   6.734 -0.5299 -2.1828  2.3381
14816TIP3   OH244383   8.068   4.543   0.423  0.0766  0.6754  0.3530
14816TIP3    H144384   8.085   4.452   0.448  0.9008  0.2587 -1.6367
14816TIP3    H244385   7.983   4.540   0.379 -0.2484  1.0088  0.9483
14817TIP3   OH244386   4.923   7.284   5.191 -0.3774 -0.7290 -0.4689
14817TIP3    H144387   4.878   7.268   5.274  1.8326  0.1875  0.9591
14817TIP3    H244388   4.862   7.339   5.141 -1.9227 -1.6670  0.3264
14818TIP3   OH244389   7.972   4.044   0.929 -0.7902  0.0492 -0.6126
14818TIP3    H144390   7.974   3.952   0.905  1.0498  0.0174 -0.4605
14818TIP3    H244391   7.997   4.090   0.848  2.6716  0.1119  0.4273
14819TIP3   OH244392   2.699   3.809   1.198  0.4800 -0.4798 -0.6704
14819TIP3    H144393   2.606   3.795   1.181  0.0511 -0.3057  1.4262
14819TIP3    H244394   2.718   3.895   1.159 -0.5716  0.1034  0.0851
14820TIP3   OH244395   5.430   0.596   4.543  0.5040 -0.7147 -0.2959
14820TIP3    H144396   5.344   0.635   4.554  1.0725  0.2795  0.6416
14820TIP3    H244397   5.412   0.510   4.503 -0.9344 -0.7106  0.3110
14821TIP3   OH244398   7.493   1.760   2.250  0.1516  0.7473 -0.9858
14821TIP3    H144399   7.525   1.672   2.228 -0.8310  0.6300 -1.9628
14821TIP3    H244400   7.450   1.791   2.171  1.8856  2.7851 -1.1947
14822TIP3   OH244401   8.394   0.190   6.470  0.5254 -0.2515  0.2716
14822TIP3    H144402   8.392   0.182   6.374 -0.9255  2.0667  0.0628
14822TIP3    H244403   8.306   0.220   6.494  1.0743 -0.1356  2.2538
14823TIP3   OH244404   2.434   3.776   0.518 -0.3415 -0.1680 -0.0308
14823TIP3    H144405   2.469   3.850   0.469 -0.7325 -0.5250 -0.8530
14823TIP3    H244406   2.511   3.725   0.543 -0.1261  0.1139 -0.1191
14824TIP3   OH244407   5.315   7.827   6.225  0.1203 -0.4013  0.2380
14824TIP3    H144408   5.317   7.920   6.201  0.6301 -1.0318 -2.3022
14824TIP3    H244409   5.226   7.799   6.203  0.6357 -1.0173 -1.1353
14825TIP3   OH244410   4.739   4.762   0.519  0.0339  0.2767 -0.7754
14825TIP3    H144411   4.804   4.798   0.459 -0.7529  1.7189 -0.7690
14825TIP3    H244412   4.753   4.809   0.601  1.6016 -2.2030  0.4605
14826TIP3   OH244413   0.070   0.439   6.202  0.4898  0.0442  0.0151
14826TIP3    H144414   0.102   0.476   6.120  0.0681  1.0146  0.2869
14826TIP3    H244415  -0.023   0.458   6.202  0.3216 -0.7796  0.2845
14827TIP3   OH244416   5.515   2.966   1.421 -0.1132 -0.0180  0.3611
14827TIP3    H144417   5.465   2.999   1.496  1.0347 -0.5560  1.3872
14827TIP3    H244418   5.574   3.038   1.399 -0.4265  0.1269 -0.0030
   8.50000   8.01388   6.94022   0.00000   0.00000  -2.83333   0.00000  -2.83333  -4.00694
