Title
35723
    1GLY      N    1   5.734   4.226   3.363 -0.1396 -0.0021  0.4487
    1GLY    HT1    2   5.827   4.255   3.401  0.5513  0.2014 -1.3480
    1GLY    HT2    3   5.673   4.310   3.355  0.6718  0.5665  0.1217
    1GLY    HT3    4   5.746   4.184   3.269 -1.3615  0.2488  0.1776
    1GLY     CA    5   5.685   4.135   3.469 -0.3216  0.4484 -0.4232
    1GLY    HA1    6   5.680   4.201   3.555 -0.4586  1.7777 -1.4364
    1GLY    HA2    7   5.751   4.050   3.480 -1.9233 -0.9391 -1.3572
    1GLY      C    8   5.542   4.080   3.448 -0.1634 -0.4517 -0.1302
    1GLY      O    9   5.480   4.107   3.348 -0.3981  0.0243  0.6464
    2SER      N   10   5.488   4.000   3.546 -0.5340  0.1662 -0.1714
    2SER     HN   11   5.541   3.968   3.624 -1.7515 -0.1235  0.5574
    2SER     CA   12   5.350   3.955   3.537  0.2315 -0.4008 -0.0123
    2SER     HA   13   5.334   3.920   3.436 -1.5155 -2.3176  0.8889
    2SER     CB   14   5.306   3.841   3.639  0.1839 -0.2120  0.7831
    2SER    HB1   15   5.204   3.805   3.616  0.7352  0.1266 -2.3221
    2SER    HB2   16   5.312   3.888   3.740 -1.2401  0.9131  0.3509
    2SER     OG   17   5.395   3.736   3.634 -0.1365  0.0204 -0.0948
    2SER    HG1   18   5.363   3.681   3.562 -1.0375 -0.3311  0.5658
    2SER      C   19   5.260   4.073   3.565  1.0070  0.8933 -0.1226
    2SER      O   20   5.300   4.177   3.616 -0.0965  0.2019 -0.6876
    3GLY      N   21   5.132   4.064   3.529 -0.1616 -0.0422  0.0542
    3GLY     HN   22   5.093   3.987   3.479 -2.1893  1.2088 -0.3639
    3GLY     CA   23   5.042   4.176   3.551 -0.1727  0.5262 -0.0876
    3GLY    HA1   24   4.961   4.175   3.479  0.9081 -0.6696 -1.3173
    3GLY    HA2   25   5.091   4.271   3.538 -0.6309  0.4648 -2.5497
    3GLY      C   26   4.967   4.163   3.683 -0.1329 -0.4511  0.2811
    3GLY      O   27   4.975   4.070   3.759  0.1277  0.5347 -0.0280
    4ASP      N   28   4.879   4.260   3.711  0.0906  0.1340  0.1398
    4ASP     HN   29   4.877   4.340   3.652 -0.8344  0.6791  0.9072
    4ASP     CA   30   4.779   4.264   3.813  1.4229  0.0250  0.3443
    4ASP     HA   31   4.831   4.243   3.905 -0.4072  2.5247  2.0128
    4ASP     CB   32   4.720   4.405   3.831 -0.1684 -0.1784  0.3362
    4ASP    HB1   33   4.633   4.407   3.900  1.4595 -0.8224  2.4413
    4ASP    HB2   34   4.664   4.433   3.739 -0.9600  0.4157  0.9822
    4ASP     CG   35   4.833   4.508   3.869  0.5499  0.0739  0.9507
    4ASP    OD1   36   4.937   4.456   3.921  0.3094  0.0050 -0.6841
    4ASP    OD2   37   4.819   4.629   3.848  0.1889 -0.1118  0.0484
    4ASP      C   38   4.674   4.155   3.795  0.2701 -0.1136  0.8286
    4ASP      O   39   4.626   4.129   3.688  0.3972 -0.0995 -0.0712
    5PRO      N   40   4.623   4.074   3.891  0.0455  0.2576  0.7183
    5PRO     CD   41   4.648   4.083   4.032 -0.2357  0.4867 -0.5132
    5PRO    HD1   42   4.630   4.191   4.052  1.3995  0.6221  0.2996
    5PRO    HD2   43   4.748   4.051   4.067  0.8147  2.2921 -1.7406
    5PRO     CA   44   4.522   3.976   3.865 -0.4629 -0.4247  0.3291
    5PRO     HA   45   4.557   3.917   3.782  1.0189 -0.1684  0.7569
    5PRO     CB   46   4.514   3.896   3.991 -0.2387  0.8470 -0.1051
    5PRO    HB1   47   4.603   3.830   4.002 -0.2536  0.7376 -0.6688
    5PRO    HB2   48   4.420   3.837   3.991  0.8250 -0.8741 -0.0596
    5PRO     CG   49   4.535   4.007   4.094  0.1269  0.3634  0.2947
    5PRO    HG1   50   4.447   4.074   4.092  0.7432  1.1692 -1.2333
    5PRO    HG2   51   4.541   3.988   4.203 -0.4263 -0.1654  0.2360
    5PRO      C   52   4.391   4.043   3.819 -0.2147  0.1190  0.2834
    5PRO      O   53   4.355   4.148   3.870 -0.1886  0.1908 -0.2849
    6GLY      N   54   4.314   3.977   3.727 -0.6185  0.0777  0.2495
    6GLY     HN   55   4.340   3.889   3.687  0.6295  0.1473  0.8886
    6GLY     CA   56   4.183   4.018   3.681 -0.5820  0.5858 -0.2538
    6GLY    HA1   57   4.140   3.950   3.610 -0.2907 -0.0097  0.1399
    6GLY    HA2   58   4.195   4.118   3.642 -2.1550  0.0992 -2.0786
    6GLY      C   59   4.078   4.027   3.795  0.4699 -0.6207 -0.4094
    6GLY      O   60   4.105   3.972   3.902 -0.1816 -0.0937 -0.4337
    7ASN      N   61   3.960   4.082   3.775 -0.1323 -0.6139 -0.1426
    7ASN     HN   62   3.945   4.128   3.688 -1.0403  1.1081  0.9036
    7ASN     CA   63   3.862   4.106   3.879 -0.4650  0.4427  0.5222
    7ASN     HA   64   3.910   4.153   3.964 -0.6074 -1.5960  1.7746
    7ASN     CB   65   3.748   4.204   3.844 -0.1155 -0.4413  0.7127
    7ASN    HB1   66   3.687   4.236   3.931 -1.9554  1.2098 -1.1202
    7ASN    HB2   67   3.671   4.169   3.772 -2.0306  1.7824  1.5892
    7ASN     CG   68   3.804   4.339   3.794  0.2150  0.4189 -0.0544
    7ASN    OD1   69   3.902   4.353   3.722  0.3623  0.4527 -0.2977
    7ASN    ND2   70   3.728   4.443   3.841  0.1644 -0.6530 -0.0925
    7ASN   HD21   71   3.758   4.535   3.815  1.0225 -1.2974 -1.4696
    7ASN   HD22   72   3.646   4.430   3.898 -0.9058  1.9648 -0.9621
    7ASN      C   73   3.803   3.976   3.932 -0.1723  0.1368 -0.5096
    7ASN      O   74   3.792   3.880   3.859 -0.2910  0.1884  0.1203
    8GLY      N   75   3.762   3.977   4.061 -0.1193  0.8008 -0.6794
    8GLY     HN   76   3.784   4.050   4.125  2.0237 -1.0680  0.7980
    8GLY     CA   77   3.695   3.861   4.130  0.0317 -0.4744 -0.3716
    8GLY    HA1   78   3.670   3.881   4.233 -0.2952 -2.2579 -0.0917
    8GLY    HA2   79   3.758   3.773   4.128  1.3502  0.4329  0.9948
    8GLY      C   80   3.559   3.828   4.066 -0.7530 -0.7706  0.1104
    8GLY      O   81   3.508   3.917   3.995  0.6014 -0.1566 -0.1523
    9ASP      N   82   3.503   3.712   4.088 -0.2762  0.6248  0.6962
    9ASP     HN   83   3.542   3.644   4.150 -0.4039  1.4229  1.6461
    9ASP     CA   84   3.375   3.681   4.035  0.6089 -0.3504  1.0267
    9ASP     HA   85   3.387   3.680   3.928  2.1142 -1.0148  1.1790
    9ASP     CB   86   3.318   3.539   4.084 -0.3319 -0.2745 -0.1960
    9ASP    HB1   87   3.214   3.536   4.046 -0.0796  0.3877 -0.9716
    9ASP    HB2   88   3.324   3.530   4.194 -1.1411  0.4519 -0.0891
    9ASP     CG   89   3.386   3.427   4.025 -1.0556  0.6679 -0.1612
    9ASP    OD1   90   3.407   3.431   3.900 -0.4362 -0.3235  0.0839
    9ASP    OD2   91   3.413   3.333   4.099 -0.3208  0.1378 -0.0612
    9ASP      C   92   3.265   3.787   4.082 -0.2413  0.2056 -0.2671
    9ASP      O   93   3.277   3.855   4.187  0.4500  0.6114  0.3296
   10PRO      N   94   3.157   3.807   4.004  0.6528  0.2556 -0.2696
   10PRO     CD   95   3.151   3.786   3.859 -0.1184 -0.3485  0.2876
   10PRO    HD1   96   3.150   3.676   3.842 -0.9693 -0.3712  0.4473
   10PRO    HD2   97   3.241   3.827   3.810  0.5463 -0.9508  0.9846
   10PRO     CA   98   3.031   3.851   4.054 -0.1414  0.1828  0.1675
   10PRO     HA   99   3.044   3.956   4.075  0.6573  0.0226  0.5045
   10PRO     CB  100   2.928   3.833   3.936  0.2266  0.2876  0.5369
   10PRO    HB1  101   2.843   3.904   3.934 -0.2090 -0.2275  0.6722
   10PRO    HB2  102   2.891   3.729   3.944  1.3495 -0.0936  0.9677
   10PRO     CG  103   3.016   3.841   3.810  0.1761  0.5585 -0.6331
   10PRO    HG1  104   2.972   3.794   3.720 -1.9038  0.9212  0.1591
   10PRO    HG2  105   3.024   3.952   3.797 -0.0316  0.7613  0.8394
   10PRO      C  106   2.984   3.777   4.183  1.1401 -1.1151 -0.4378
   10PRO      O  107   3.001   3.655   4.192  0.5027  0.3439  0.2416
   11GLY      N  108   2.932   3.846   4.289  0.1112 -0.9549  0.0801
   11GLY     HN  109   2.937   3.946   4.291 -0.4245 -0.9206 -0.1939
   11GLY     CA  110   2.879   3.779   4.410  0.3491  0.0457 -0.2545
   11GLY    HA1  111   2.869   3.851   4.489  0.6292 -2.0865  1.7586
   11GLY    HA2  112   2.954   3.711   4.447  0.6770  1.2273  1.3042
   11GLY      C  113   2.747   3.720   4.391  0.0013  0.8049  0.1912
   11GLY      O  114   2.680   3.739   4.290 -0.2500 -0.0201  0.1733
   12SER      N  115   2.698   3.638   4.493  0.3236 -0.1640  0.0913
   12SER     HN  116   2.755   3.594   4.561 -1.3647 -2.5798  0.0248
   12SER     CA  117   2.562   3.590   4.513 -0.0398  0.5348  0.3910
   12SER     HA  118   2.553   3.520   4.431  1.1354 -0.8290  1.4107
   12SER     CB  119   2.541   3.496   4.636  0.1042 -0.3807  0.0231
   12SER    HB1  120   2.435   3.462   4.638 -0.2890  0.8580  0.6000
   12SER    HB2  121   2.551   3.553   4.731 -1.3757 -1.0057  0.5636
   12SER     OG  122   2.621   3.382   4.616  0.0537 -0.1895  0.7995
   12SER    HG1  123   2.712   3.414   4.623 -0.4405  1.1158  1.2487
   12SER      C  124   2.451   3.696   4.496 -0.5950  0.3452  0.1556
   12SER      O  125   2.455   3.799   4.567 -0.2756  0.1510 -0.2012
   13GLY      N  126   2.358   3.673   4.410 -0.4118  0.4196 -0.0928
   13GLY     HN  127   2.356   3.586   4.361 -0.8142  1.1501 -1.3844
   13GLY     CA  128   2.249   3.764   4.381 -0.2514 -0.8115 -0.2101
   13GLY    HA1  129   2.216   3.757   4.279 -0.5055 -0.6920 -0.1370
   13GLY    HA2  130   2.280   3.866   4.397  1.0246 -0.6331 -3.4847
   13GLY      C  131   2.136   3.725   4.476 -0.5814 -0.4728 -0.2744
   13GLY    OT1  132   2.122   3.608   4.523 -0.1629 -0.5051 -0.1152
   13GLY    OT2  133   2.057   3.820   4.503 -0.1742 -0.0022 -1.0224
   14SOD    SOD  134   2.613   6.701   6.308  0.1930  0.1106 -0.2745
   15SOD    SOD  135   6.096   6.071   4.040 -0.4581 -0.1864 -0.0436
   16SOD    SOD  136   2.193   0.623   3.723 -0.3782  0.0369  0.3174
   17SOD    SOD  137   2.860   0.646   4.077  0.2399 -0.1677 -0.0357
   18SOD    SOD  138   1.774   1.662   1.196 -0.2171 -0.1036 -0.0046
   19SOD    SOD  139   6.797   3.196   3.471 -0.1394  0.2361  0.2941
   20SOD    SOD  140   4.245   4.951   4.818 -0.1768 -0.8343 -0.3491
   21SOD    SOD  141   4.864   3.376   5.534 -0.3537  0.1517  0.3467
   22SOD    SOD  142   2.792   2.447   1.173 -0.0004  0.8886  0.0544
   23SOD    SOD  143   6.194   2.810   1.572  0.3500 -0.0020 -0.1883
   24SOD    SOD  144   5.535   1.072   3.688 -0.1291  0.0953  0.2986
   25SOD    SOD  145   6.968   6.942   4.468  0.4615 -0.4903  0.2601
   26SOD    SOD  146   6.762   3.534   1.787  0.2854  0.2547  0.4148
   27SOD    SOD  147   5.873   3.895   0.568  0.2126  0.0949  0.1391
   28SOD    SOD  148   0.823   5.207   5.869 -0.7813 -0.1988 -0.5890
   29SOD    SOD  149   3.924   4.651   5.937 -0.4505  0.3423  0.1112
   30SOD    SOD  150   0.670   5.655   6.274  0.0136 -0.2404  0.3917
   31SOD    SOD  151   4.770   1.505   3.750 -0.0397  0.1240 -0.2816
   32SOD    SOD  152   6.756   3.261   2.482 -0.1539  0.3716 -0.6074
   33SOD    SOD  153   6.960   5.219   0.046 -0.2665 -0.0545 -0.1731
   34SOD    SOD  154   4.107   4.583   1.477 -0.0409  0.0352 -0.2819
   35SOD    SOD  155   4.057   1.775   1.463 -0.5198  0.0391  0.1499
   36SOD    SOD  156   7.741   2.923   2.054  0.3859  0.0498 -0.1919
   37SOD    SOD  157   4.190   4.606   3.213  0.1222  0.0992  0.5552
   38SOD    SOD  158   1.236   2.926   5.280 -0.3518  0.1321  0.1303
   39SOD    SOD  159   4.917   0.283   4.844 -0.7712 -0.1143  0.2960
   40SOD    SOD  160   3.258   5.243   4.582  0.2837  0.2793 -0.0101
   41SOD    SOD  161   1.131   4.824   4.188  0.2330  0.2893  0.0458
   42SOD    SOD  162   2.699   5.617   3.795 -0.2471  0.2073  0.5948
   43SOD    SOD  163   3.441   6.890   2.487  0.2411 -0.0946  0.3472
   44SOD    SOD  164   6.006   5.883   2.218 -0.2488  0.0033 -0.2067
   45SOD    SOD  165   4.050   2.908   2.932  0.1915 -0.0152  0.1441
   46SOD    SOD  166   3.484   0.180   3.872  0.5079 -0.1333  0.4205
   47SOD    SOD  167   6.995   6.243   2.279 -0.1886 -0.8112  0.6081
   48SOD    SOD  168   4.353   0.004   4.833 -0.2376  0.5109 -0.2919
   49SOD    SOD  169   3.450   2.277   1.403  0.0358  0.3534  0.0442
   50CLA    CLA  170   4.563   6.428   6.187 -0.0501 -0.3198  0.0554
   51CLA    CLA  171   3.635   0.881   1.050  0.1040 -0.0706 -0.0884
   52CLA    CLA  172   6.274   3.826   2.810  0.0051 -0.3353 -0.1870
   53CLA    CLA  173   4.958   6.522   5.072  0.0573 -0.6106 -0.0619
   54CLA    CLA  174   0.824   2.170   5.722  0.3723 -0.4455  0.1105
   55CLA    CLA  175   2.698   5.243   1.884  0.1865 -0.2786 -0.0042
   56CLA    CLA  176   3.135   0.395   2.971 -0.1573  0.4003  0.2298
   57CLA    CLA  177   3.891   3.950   0.246  0.2582  0.2076 -0.1123
   58CLA    CLA  178   0.409   6.081   6.353  0.2681 -0.0354 -0.0299
   59CLA    CLA  179   7.329   6.357   5.246  0.3300  0.1070 -0.3122
   60CLA    CLA  180   7.156   6.632   4.298 -0.2189 -0.1444 -0.3104
   61CLA    CLA  181   0.077   0.352   1.708 -0.1713  0.1152  0.1952
   62CLA    CLA  182   4.068   0.703   4.650 -0.0440 -0.0102 -0.0431
   63CLA    CLA  183   4.295   1.291   4.565  0.5291 -0.1686 -0.8130
   64CLA    CLA  184   6.187   1.840   3.787 -0.3142 -0.0960 -0.0621
   65CLA    CLA  185   1.683   4.833   1.290  0.2031  0.0161 -0.2355
   66CLA    CLA  186   4.873   3.135   2.454  0.2735 -0.3378 -0.2810
   67CLA    CLA  187   3.201   5.277   5.358 -0.4556  0.1320 -0.0330
   68CLA    CLA  188   6.853   4.650   2.202  0.0751  0.4329 -0.2193
   69CLA    CLA  189   7.059   7.073   5.292 -0.1197 -0.2819  0.1164
   70CLA    CLA  190   2.348   1.729   2.506 -0.1419 -0.0339  0.2224
   71CLA    CLA  191   1.875   1.788   1.896 -0.5413 -0.4125 -0.0213
   72CLA    CLA  192   5.247   3.408   5.325 -0.3672 -0.3692 -0.1652
   73CLA    CLA  193   5.405   1.203   3.467 -0.0192  0.1670  0.0013
   74CLA    CLA  194   6.880   0.937   0.328 -0.4840  0.0428  0.0390
   75CLA    CLA  195   3.259   6.735   5.469 -0.0318  0.1369 -0.4595
   76CLA    CLA  196   4.364   5.281   5.893 -0.4824  0.3018 -0.1337
   77CLA    CLA  197   1.683   6.127   6.393 -0.5353 -0.0218  0.0263
   78CLA    CLA  198   2.756   0.654   3.377 -0.1847 -0.1549  0.1332
   79CLA    CLA  199   1.704   1.860   4.345 -0.3317 -0.7720  0.5535
   80CLA    CLA  200   3.609   2.601   0.003 -0.0148  0.4663  0.1471
   81CLA    CLA  201   6.594   6.453   2.366  0.0160  0.0178  0.1235
   82CLA    CLA  202   4.460   4.697   0.338 -0.2724 -0.2475 -0.2947
   83CLA    CLA  203   2.085   2.521   0.884 -0.4892 -0.2804 -0.2341
   84TIP3   OH2  204   3.050   0.573   3.497  0.1723  0.3581  0.1952
   84TIP3    H1  205   3.109   0.561   3.423 -0.8715  0.1432 -0.5977
   84TIP3    H2  206   2.962   0.569   3.460 -0.4027 -1.5985  1.6955
   85TIP3   OH2  207   2.144   0.346   1.670  0.6331  0.1971 -0.2011
   85TIP3    H1  208   2.201   0.318   1.742  0.0430 -0.7488 -0.0960
   85TIP3    H2  209   2.164   0.439   1.659 -0.1628  0.6692  1.9975
   86TIP3   OH2  210   0.513   7.266   3.448 -0.1920 -0.5856  0.2202
   86TIP3    H1  211   0.504   7.191   3.389  3.0446 -1.3028  0.5565
   86TIP3    H2  212   0.544   7.337   3.392 -0.2819 -0.3441  0.4740
   87TIP3   OH2  213   1.726   1.112   2.226 -0.1614 -0.1313 -0.9874
   87TIP3    H1  214   1.646   1.159   2.202 -0.0691 -0.1952 -1.4342
   87TIP3    H2  215   1.785   1.125   2.151  0.1383 -0.3296 -0.7899
   88TIP3   OH2  216   1.880   0.297   1.275  0.4462 -0.1518 -0.0025
   88TIP3    H1  217   1.800   0.330   1.316  0.2479 -0.3927 -0.1912
   88TIP3    H2  218   1.861   0.204   1.259  0.1256  0.1736 -1.6044
   89TIP3   OH2  219   0.168   6.410   0.645 -0.0274  0.0055  0.1301
   89TIP3    H1  220   0.166   6.493   0.597  0.2653 -0.2318 -0.2969
   89TIP3    H2  221   0.228   6.426   0.718 -0.3517  0.3184  0.3290
   90TIP3   OH2  222   4.022   1.680   6.221  0.6660  0.1631  0.0008
   90TIP3    H1  223   3.975   1.763   6.228 -0.9973 -0.8802  1.4938
   90TIP3    H2  224   4.095   1.699   6.162 -0.5607  2.2785 -0.8860
   91TIP3   OH2  225   0.518   0.201   2.332 -0.0077  0.0237  0.0395
   91TIP3    H1  226   0.516   0.267   2.401  1.4851 -0.0647  0.1924
   91TIP3    H2  227   0.527   0.252   2.251 -0.9229  0.0891 -0.0278
   92TIP3   OH2  228   3.684   0.944   3.686 -0.2455 -0.7058 -0.4415
   92TIP3    H1  229   3.654   0.964   3.775 -2.2843  1.6704 -1.6110
   92TIP3    H2  230   3.779   0.941   3.694 -0.3015  1.1715  1.5006
   93TIP3   OH2  231   6.163   7.356   1.463  0.1928 -0.5933  0.2137
   93TIP3    H1  232   6.100   7.324   1.398  0.1748 -0.0005 -0.0625
   93TIP3    H2  233   6.248   7.350   1.419  0.2736 -0.9483  0.4192
   94TIP3   OH2  234   2.377   7.395   3.492  0.4327  0.1335  0.8075
   94TIP3    H1  235   2.371   7.356   3.405  1.4345  2.3005 -0.2624
   94TIP3    H2  236   2.415   7.326   3.547 -0.0861 -1.1971 -0.4865
   95TIP3   OH2  237   6.236   6.914   0.899  0.5740 -0.7869  0.5067
   95TIP3    H1  238   6.234   6.821   0.922 -3.8677 -0.6597  0.9700
   95TIP3    H2  239   6.177   6.956   0.962  2.2608  2.3538  0.1154
   96TIP3   OH2  240   2.884   0.416   2.400 -0.3388  0.0893 -0.1165
   96TIP3    H1  241   2.958   0.363   2.429 -1.5592 -2.0623 -0.7743
   96TIP3    H2  242   2.825   0.418   2.476 -1.1956 -1.2324 -0.7130
   97TIP3   OH2  243   2.824   1.191   2.765 -0.0633  0.2924 -0.1111
   97TIP3    H1  244   2.753   1.248   2.795  0.0750  1.0315 -1.1660
   97TIP3    H2  245   2.873   1.169   2.844 -1.1947  0.1638  0.5535
   98TIP3   OH2  246   1.971   1.416   2.693  0.7356 -0.2272  0.1147
   98TIP3    H1  247   1.971   1.382   2.782  1.3954  0.0257  0.2160
   98TIP3    H2  248   2.063   1.414   2.666  0.7769  1.3046  0.0624
   99TIP3   OH2  249   0.779   6.001   3.466 -0.4902 -0.3038 -0.7112
   99TIP3    H1  250   0.736   5.947   3.532  0.6153  0.7978  0.9546
   99TIP3    H2  251   0.719   6.075   3.452 -0.1682  0.0872 -0.0354
  100TIP3   OH2  252   5.000   1.120   3.879  0.2425 -0.5297 -0.5982
  100TIP3    H1  253   5.066   1.154   3.940  0.2510 -1.7254  0.0843
  100TIP3    H2  254   5.007   1.025   3.888 -1.3598 -0.6666 -0.7625
  101TIP3   OH2  255   3.125   1.789   2.320  0.3129  1.1319  0.4430
  101TIP3    H1  256   3.105   1.881   2.304 -0.4783  1.0384  0.8455
  101TIP3    H2  257   3.042   1.751   2.348 -0.0631 -0.3520 -2.5308
  102TIP3   OH2  258   7.811   0.234   1.939  0.1672  0.9313  0.0619
  102TIP3    H1  259   7.860   0.261   1.861  0.5739 -0.0556 -0.0349
  102TIP3    H2  260   7.731   0.195   1.904  1.4233 -1.7597 -0.0236
  103TIP3   OH2  261   7.236   6.692   2.040 -0.9619  0.2695  0.2349
  103TIP3    H1  262   7.283   6.632   2.098 -0.7180 -0.0744 -0.3215
  103TIP3    H2  263   7.275   6.778   2.058 -0.6102  0.0989  0.2918
  104TIP3   OH2  264   0.034   6.521   1.726 -0.5163  0.0948  0.2769
  104TIP3    H1  265   0.043   6.579   1.801 -0.3669  1.5171 -0.8099
  104TIP3    H2  266  -0.055   6.487   1.732 -0.2596 -0.3598  1.4885
  105TIP3   OH2  267   3.777   1.111   1.211  0.0281  0.0504  0.1820
  105TIP3    H1  268   3.811   1.158   1.135 -0.9188  1.3499  0.5479
  105TIP3    H2  269   3.748   1.027   1.176 -0.8014  0.8060 -0.9704
  106TIP3   OH2  270   0.865   5.805   2.107 -0.1284  0.0334  0.3518
  106TIP3    H1  271   0.769   5.801   2.099 -0.1695  0.6175  0.4805
  106TIP3    H2  272   0.880   5.860   2.184  0.3019 -1.4250  1.3178
  107TIP3   OH2  273   2.500   0.324   2.069 -0.0743 -0.0496 -0.1177
  107TIP3    H1  274   2.574   0.371   2.107 -0.2298  0.7701 -0.8127
  107TIP3    H2  275   2.539   0.249   2.024  0.2191 -0.3239  0.5858
  108TIP3   OH2  276   6.439   5.382   5.654  0.0696 -0.2037  0.0855
  108TIP3    H1  277   6.365   5.333   5.689  1.0454 -0.8116  1.3214
  108TIP3    H2  278   6.468   5.438   5.726  1.7568 -1.0716  0.1222
  109TIP3   OH2  279   2.463   7.328   1.890  0.3623  0.1882  0.6939
  109TIP3    H1  280   2.496   7.249   1.932  0.2371 -0.6457 -0.7294
  109TIP3    H2  281   2.376   7.304   1.859  0.5529  0.6964 -0.2509
  110TIP3   OH2  282   2.173   0.453   2.769  0.4866  0.2355  0.7875
  110TIP3    H1  283   2.078   0.446   2.779  0.4595  0.6380  0.8217
  110TIP3    H2  284   2.199   0.520   2.832  0.7242  0.5042  0.4083
  111TIP3   OH2  285   3.213   0.593   2.399 -0.6066 -0.4136  0.0202
  111TIP3    H1  286   3.123   0.597   2.365 -1.1884 -0.3522  1.5232
  111TIP3    H2  287   3.203   0.562   2.489  1.0370 -2.0772 -0.3518
  112TIP3   OH2  288   5.561   1.366   1.570 -0.6550  0.6892 -0.0313
  112TIP3    H1  289   5.538   1.429   1.501 -1.2102  0.9381  0.3715
  112TIP3    H2  290   5.500   1.294   1.558 -0.4468  0.5231 -0.0878
  113TIP3   OH2  291   6.568   0.216   1.095  0.3302 -0.1538  0.3979
  113TIP3    H1  292   6.498   0.177   1.043 -0.3197  1.0396  0.3838
  113TIP3    H2  293   6.541   0.306   1.109  1.9375  0.3695  0.2391
  114TIP3   OH2  294   2.352   7.081   2.462 -0.3466  0.2071 -0.1952
  114TIP3    H1  295   2.329   7.007   2.404 -1.6691  0.7359 -0.3632
  114TIP3    H2  296   2.409   7.042   2.528 -0.8168 -0.9246 -0.4317
  115TIP3   OH2  297   4.352   7.118   1.638  0.2412 -0.1142  0.0767
  115TIP3    H1  298   4.291   7.044   1.644 -1.5468  1.1879 -1.4547
  115TIP3    H2  299   4.413   7.105   1.711 -1.2048 -2.0584  0.9823
  116TIP3   OH2  300   2.877   0.859   1.252  0.5494  0.1160 -0.4477
  116TIP3    H1  301   2.971   0.844   1.250  0.6745  0.8182 -0.0358
  116TIP3    H2  302   2.868   0.951   1.276 -0.2353  0.1301 -0.7746
  117TIP3   OH2  303   1.955   6.953   3.676  0.4831  0.2197  0.1710
  117TIP3    H1  304   1.972   6.958   3.582  1.4763  0.6967  0.3644
  117TIP3    H2  305   1.880   7.010   3.690  1.5255  1.6695 -0.0555
  118TIP3   OH2  306   5.089   1.187   2.614 -0.1030  0.6458 -0.9577
  118TIP3    H1  307   5.161   1.243   2.643  0.9116 -0.1036 -1.9884
  118TIP3    H2  308   5.015   1.211   2.671  0.3144  2.9836 -1.3513
  119TIP3   OH2  309   2.949   1.196   3.016 -0.0786 -0.2957 -0.1514
  119TIP3    H1  310   3.005   1.274   3.011  0.0713 -0.3481  0.6622
  119TIP3    H2  311   3.007   1.126   3.043 -0.9058  0.0705  2.7301
  120TIP3   OH2  312   2.543   0.296   0.756  0.1417 -0.2010 -0.0455
  120TIP3    H1  313   2.603   0.336   0.818 -0.8453 -0.0873  0.8414
  120TIP3    H2  314   2.596   0.230   0.711  0.6415 -0.8720  1.5116
  121TIP3   OH2  315   5.706   3.830   6.257  0.7646  0.0062  0.2988
  121TIP3    H1  316   5.665   3.764   6.313 -0.4332  0.8352  0.3981
  121TIP3    H2  317   5.784   3.857   6.307 -1.2404  2.0345  2.4499
  122TIP3   OH2  318   2.761   0.055   1.388  0.6052 -0.0747 -0.8496
  122TIP3    H1  319   2.722   0.092   1.308 -0.6650 -1.1305 -0.7263
  122TIP3    H2  320   2.732  -0.036   1.390  1.1837 -0.2469  0.4804
  123TIP3   OH2  321   1.745   5.631   2.181 -0.0430  0.1917  0.3815
  123TIP3    H1  322   1.801   5.680   2.242 -0.8097  1.0257  0.4383
  123TIP3    H2  323   1.699   5.699   2.131  0.7257 -0.4967 -1.2683
  124TIP3   OH2  324   4.609   1.039   2.972 -0.7944 -0.0786 -0.9417
  124TIP3    H1  325   4.694   1.059   3.010 -1.7263  1.5836  0.3999
  124TIP3    H2  326   4.563   0.989   3.040 -1.7292  1.0955 -0.6896
  125TIP3   OH2  327   3.738   1.689   0.013 -0.2255  0.1898 -0.3462
  125TIP3    H1  328   3.730   1.784   0.027 -1.9122  0.2142 -1.2894
  125TIP3    H2  329   3.821   1.678  -0.032 -0.4192  1.3379 -1.0227
  126TIP3   OH2  330   2.961   3.230   0.132  0.0469  0.2384 -0.3532
  126TIP3    H1  331   2.917   3.160   0.085  0.3183 -0.1194 -0.0832
  126TIP3    H2  332   2.970   3.197   0.222  1.9029 -0.1941 -0.6755
  127TIP3   OH2  333   6.746   3.815   5.838  0.0496  0.1119 -0.5939
  127TIP3    H1  334   6.688   3.764   5.895 -0.4846  0.3869 -0.8827
  127TIP3    H2  335   6.734   3.905   5.865 -0.8983  0.3475 -1.7202
  128TIP3   OH2  336   4.641   0.147   1.048  0.4934 -0.1554 -0.1691
  128TIP3    H1  337   4.574   0.099   1.097  0.0603  1.3281  0.7304
  128TIP3    H2  338   4.708   0.168   1.113  1.7448 -1.4559 -1.0222
  129TIP3   OH2  339   1.562   7.223   3.798 -0.4326 -0.1293  0.0486
  129TIP3    H1  340   1.491   7.189   3.744 -1.0637  0.0235  0.7699
  129TIP3    H2  341   1.552   7.318   3.794  0.7302 -0.0271 -1.1636
  130TIP3   OH2  342   3.977   0.717   3.126  0.1981  0.3575 -0.0341
  130TIP3    H1  343   3.937   0.738   3.042 -0.2422 -0.0983  0.0646
  130TIP3    H2  344   4.071   0.709   3.106  0.5064  3.1464  0.0549
  131TIP3   OH2  345   1.941   7.227   2.790  0.6082 -0.4519 -0.1584
  131TIP3    H1  346   1.919   7.159   2.854  1.6655 -1.5885 -0.9821
  131TIP3    H2  347   2.032   7.250   2.809  0.9843 -0.9134 -1.3525
  132TIP3   OH2  348   0.684   5.698   1.027  0.5566  0.1611 -0.2882
  132TIP3    H1  349   0.608   5.648   1.057  0.4880  0.8798  0.7585
  132TIP3    H2  350   0.679   5.781   1.075  1.4999  0.5731 -0.8832
  133TIP3   OH2  351   5.335   1.613   1.583  0.3143  0.1114  0.3086
  133TIP3    H1  352   5.262   1.663   1.619 -0.3844  0.1631 -1.1462
  133TIP3    H2  353   5.314   1.522   1.603 -0.3336  0.0975 -0.4312
  134TIP3   OH2  354   6.310   1.946   6.116 -0.1952 -0.5772 -0.5425
  134TIP3    H1  355   6.240   1.917   6.057  1.1911 -0.8701 -2.0870
  134TIP3    H2  356   6.317   2.040   6.101 -1.2058 -0.2968  0.6694
  135TIP3   OH2  357   1.795   0.043   1.256  0.4582  0.1905 -0.1703
  135TIP3    H1  358   1.781  -0.035   1.309 -1.4532  1.7400  1.6766
  135TIP3    H2  359   1.718   0.047   1.199 -0.8121  2.1507  1.6107
  136TIP3   OH2  360   5.222   6.367   5.693 -0.7858 -0.0413 -0.0597
  136TIP3    H1  361   5.137   6.405   5.670 -0.7709 -1.0398 -1.8856
  136TIP3    H2  362   5.246   6.316   5.616  2.7134  2.3098 -0.6189
  137TIP3   OH2  363   0.756   6.820   2.047 -0.2676  0.1792  0.4667
  137TIP3    H1  364   0.763   6.906   2.089 -2.5404  0.5837  0.0855
  137TIP3    H2  365   0.688   6.832   1.980  0.6619 -1.4423 -0.8092
  138TIP3   OH2  366   1.803   6.018   4.503 -0.1826  0.7625 -0.2893
  138TIP3    H1  367   1.725   6.073   4.518 -1.7963 -1.3585 -0.6954
  138TIP3    H2  368   1.872   6.062   4.552 -2.4884  0.6674  3.2476
  139TIP3   OH2  369   3.245   0.328   2.204 -0.1881  0.2637 -0.0273
  139TIP3    H1  370   3.308   0.393   2.172  1.0068 -0.5920  0.5474
  139TIP3    H2  371   3.203   0.295   2.125  2.1303 -1.2144 -0.6793
  140TIP3   OH2  372   2.621   6.656   1.836 -0.0173 -0.0128 -0.2963
  140TIP3    H1  373   2.687   6.616   1.892  0.2412 -2.1220 -2.0654
  140TIP3    H2  374   2.538   6.629   1.874  0.1440 -0.0394  0.0402
  141TIP3   OH2  375   3.756   0.845   3.961 -0.6880  0.3953 -0.3003
  141TIP3    H1  376   3.769   0.770   3.902  0.9502  0.7427 -0.4001
  141TIP3    H2  377   3.711   0.808   4.036  0.6974 -0.8531 -0.0495
  142TIP3   OH2  378   3.778   2.450   0.203  0.0921  0.1337 -0.0993
  142TIP3    H1  379   3.757   2.500   0.124 -1.0868  1.3568  0.9528
  142TIP3    H2  380   3.815   2.514   0.263 -0.3272 -0.4876  0.8364
  143TIP3   OH2  381   4.689   1.633   1.753  0.1940 -0.5109  0.1210
  143TIP3    H1  382   4.754   1.648   1.821  0.2716 -0.8892  0.1321
  143TIP3    H2  383   4.705   1.702   1.688 -0.5185  0.4558  0.9568
  144TIP3   OH2  384   5.181   0.718   2.471 -0.0670 -0.2536  0.2589
  144TIP3    H1  385   5.264   0.707   2.518 -0.2420 -0.0218  0.6278
  144TIP3    H2  386   5.136   0.788   2.519 -1.0445 -1.2795  0.8802
  145TIP3   OH2  387   5.434   5.267   6.133  0.5651 -0.6876  0.2492
  145TIP3    H1  388   5.399   5.180   6.117  1.4247 -0.6934 -1.6526
  145TIP3    H2  389   5.374   5.305   6.197 -1.6881 -1.4834 -1.3340
  146TIP3   OH2  390   3.287   1.868   0.690  0.6412 -0.3720 -0.2764
  146TIP3    H1  391   3.230   1.855   0.614  2.4240 -0.0569 -1.7013
  146TIP3    H2  392   3.274   1.960   0.713 -0.4717 -0.6597  0.2926
  147TIP3   OH2  393   1.862   1.106   1.479 -0.2695 -0.2360  0.4085
  147TIP3    H1  394   1.914   1.148   1.548 -1.3011 -0.6025  1.4444
  147TIP3    H2  395   1.795   1.057   1.527 -0.8676 -0.6846 -0.8648
  148TIP3   OH2  396   4.191   0.251   2.602  0.2519  0.4164 -0.0427
  148TIP3    H1  397   4.212   0.170   2.648 -0.7299 -0.5567 -1.2793
  148TIP3    H2  398   4.187   0.226   2.510  2.0753  2.2943 -0.6856
  149TIP3   OH2  399   5.238   5.356   6.322 -0.5128  0.8350  0.0811
  149TIP3    H1  400   5.210   5.422   6.259 -2.1650  0.1147  0.0138
  149TIP3    H2  401   5.159   5.302   6.336  0.6185 -0.7188  0.6110
  150TIP3   OH2  402   4.759   1.380   3.536 -0.0173 -0.6916 -0.0734
  150TIP3    H1  403   4.741   1.297   3.493  0.4449 -0.5933 -0.4659
  150TIP3    H2  404   4.774   1.441   3.463 -0.8218 -0.1561  0.1951
  151TIP3   OH2  405   2.346   6.846   2.022  0.3116  0.2512 -0.1963
  151TIP3    H1  406   2.368   6.755   2.002  0.5592  0.3828 -0.5350
  151TIP3    H2  407   2.406   6.871   2.092 -0.3148 -0.1012  0.4706
  152TIP3   OH2  408   3.039   2.995   1.692  0.7314  0.0143  0.3047
  152TIP3    H1  409   3.057   3.088   1.682 -1.3159  0.3559 -0.6331
  152TIP3    H2  410   3.065   2.975   1.782  0.5803  1.6509  0.7372
  153TIP3   OH2  411   3.678   0.928   1.394 -0.0043  0.3078  0.0199
  153TIP3    H1  412   3.752   0.867   1.392  1.1211  1.6334 -0.2874
  153TIP3    H2  413   3.647   0.932   1.303  0.4997  0.8421 -0.1383
  154TIP3   OH2  414   3.455   6.251   1.302 -0.0812  0.6652  0.5472
  154TIP3    H1  415   3.413   6.306   1.236  0.9758  1.8423  0.8466
  154TIP3    H2  416   3.495   6.180   1.251  1.2181  1.8753 -0.1673
  155TIP3   OH2  417   7.525   7.037   4.715 -0.3029  0.2965 -0.7081
  155TIP3    H1  418   7.508   6.982   4.638 -0.5828 -0.7661  0.1065
  155TIP3    H2  419   7.616   7.018   4.738 -1.0543 -1.5252  0.9007
  156TIP3   OH2  420   4.265   1.350   1.800  0.2369 -0.6935  0.0740
  156TIP3    H1  421   4.281   1.406   1.724 -0.3829 -0.0375  0.4260
  156TIP3    H2  422   4.214   1.277   1.765 -0.0189 -0.4083 -0.1497
  157TIP3   OH2  423   1.263   6.156   1.093  0.7847  0.6969 -0.2120
  157TIP3    H1  424   1.169   6.146   1.107  1.0965  0.2205  1.7710
  157TIP3    H2  425   1.289   6.078   1.045  0.0593  1.1834 -1.4223
  158TIP3   OH2  426   2.185   0.970   1.902 -0.0598  0.4364 -0.0003
  158TIP3    H1  427   2.226   0.900   1.954 -2.4742 -1.5945 -0.7268
  158TIP3    H2  428   2.224   1.050   1.936  2.1898 -1.1846  1.4363
  159TIP3   OH2  429   1.430   6.488   1.658 -0.4743  0.0146 -0.2269
  159TIP3    H1  430   1.396   6.445   1.736 -0.5800 -1.1390 -0.9021
  159TIP3    H2  431   1.513   6.444   1.640  0.8814  2.0947  0.7815
  160TIP3   OH2  432   4.021   2.170   1.594  0.0167  0.1522  0.0755
  160TIP3    H1  433   3.952   2.195   1.532 -0.6862 -2.0959 -0.1025
  160TIP3    H2  434   3.972   2.140   1.671  0.8595  1.1065  0.9876
  161TIP3   OH2  435   0.892   5.968   1.891  0.0788  0.0424  0.2300
  161TIP3    H1  436   0.952   5.914   1.841 -0.9187 -0.4133 -0.4868
  161TIP3    H2  437   0.891   5.927   1.978  1.6041  0.6811  0.5640
  162TIP3   OH2  438   4.842   1.526   3.269  0.4316  0.2568 -0.5159
  162TIP3    H1  439   4.927   1.556   3.302 -0.0068  2.2176 -1.1357
  162TIP3    H2  440   4.798   1.605   3.239 -1.6551 -0.7283 -0.1555
  163TIP3   OH2  441   4.343   1.032   0.356  0.0097  0.2085 -0.0569
  163TIP3    H1  442   4.396   1.111   0.345 -0.5201  0.4211 -1.1836
  163TIP3    H2  443   4.395   0.962   0.315  0.6098 -0.1000  1.1939
  164TIP3   OH2  444   7.689   7.031   1.776  0.0708 -0.4019  0.0825
  164TIP3    H1  445   7.773   7.076   1.764 -0.6731  0.3585 -2.3884
  164TIP3    H2  446   7.696   6.953   1.721 -0.8814 -0.2796 -0.2138
  165TIP3   OH2  447   4.372   0.402   2.466  0.4293 -0.4061  0.1210
  165TIP3    H1  448   4.332   0.365   2.544  1.3920 -0.0550  0.7987
  165TIP3    H2  449   4.329   0.487   2.455  1.5011  0.3196  1.3057
  166TIP3   OH2  450   2.863   6.637   1.477  0.5880  0.3989  0.5176
  166TIP3    H1  451   2.935   6.699   1.486  1.0293 -0.0774  0.3209
  166TIP3    H2  452   2.891   6.577   1.407 -1.4321  2.1686 -1.8849
  167TIP3   OH2  453   3.289   7.380   3.154 -0.0787 -0.3994  0.2512
  167TIP3    H1  454   3.214   7.328   3.125 -1.5123  1.0125  1.2915
  167TIP3    H2  455   3.346   7.317   3.199 -1.1089 -1.3175  0.2839
  168TIP3   OH2  456   4.531   2.082   1.044  0.4171  0.0009 -0.0972
  168TIP3    H1  457   4.622   2.056   1.027  0.4090 -0.8645  1.0744
  168TIP3    H2  458   4.513   2.150   0.980  1.8610  0.0912 -0.4259
  169TIP3   OH2  459   7.367   4.446   5.831  0.3345  0.4760  0.1994
  169TIP3    H1  460   7.366   4.523   5.887 -0.1489 -0.0547  0.9332
  169TIP3    H2  461   7.454   4.447   5.791  1.0078  0.3967  1.6226
  170TIP3   OH2  462   6.201   2.441   1.803 -0.4673 -0.2543 -0.3910
  170TIP3    H1  463   6.264   2.497   1.847 -0.6431 -0.0059 -0.4565
  170TIP3    H2  464   6.216   2.354   1.841  0.7718 -0.4682 -1.3231
  171TIP3   OH2  465   3.644   1.892   1.400  0.4680  0.0685 -0.3572
  171TIP3    H1  466   3.693   1.841   1.464 -0.6381  0.5639  0.9348
  171TIP3    H2  467   3.619   1.971   1.448 -0.6775  0.2875 -1.2976
  172TIP3   OH2  468   5.094   1.142   1.621 -0.2555 -0.3351 -0.2357
  172TIP3    H1  469   5.135   1.080   1.681 -0.8447 -0.8710 -0.3748
  172TIP3    H2  470   5.023   1.092   1.580 -1.2596  0.6616  0.2410
  173TIP3   OH2  471   1.188   5.306   1.823 -0.3263 -0.4574 -0.1160
  173TIP3    H1  472   1.217   5.250   1.896  0.6279 -0.0153 -0.1448
  173TIP3    H2  473   1.268   5.350   1.794 -1.1516  1.3218  0.2484
  174TIP3   OH2  474   4.092   0.483   2.770  0.5847 -0.5820  0.3251
  174TIP3    H1  475   4.108   0.404   2.718  0.8579  0.9975 -2.0474
  174TIP3    H2  476   4.146   0.550   2.729 -1.6149  1.4950  0.7197
  175TIP3   OH2  477   6.248   0.912   0.309  0.2295 -0.5083 -0.7017
  175TIP3    H1  478   6.163   0.902   0.352  0.3198  0.1885 -0.3636
  175TIP3    H2  479   6.297   0.834   0.336  0.3872  0.0611  0.7217
  176TIP3   OH2  480   3.431   0.536   2.112  0.3527  0.3617  0.2810
  176TIP3    H1  481   3.453   0.616   2.160  0.2906  0.7213 -0.2809
  176TIP3    H2  482   3.500   0.528   2.046  0.4660 -0.1533  0.4670
  177TIP3   OH2  483   3.485   1.392   1.733 -0.2978 -0.0951  0.2688
  177TIP3    H1  484   3.434   1.378   1.653  2.1781 -0.5707 -1.2472
  177TIP3    H2  485   3.569   1.350   1.717  1.1134  1.8542  2.1995
  178TIP3   OH2  486   5.311   0.114   0.359  0.4170 -0.2423  0.1644
  178TIP3    H1  487   5.309   0.203   0.393  0.2943  0.5140 -1.7447
  178TIP3    H2  488   5.400   0.084   0.375  0.1568 -0.1856  1.7943
  179TIP3   OH2  489   5.457   1.627   2.165  0.7831 -0.2262 -0.2351
  179TIP3    H1  490   5.393   1.633   2.094  1.5951  0.3027 -0.9292
  179TIP3    H2  491   5.532   1.581   2.127 -0.3301 -3.6295  1.4362
  180TIP3   OH2  492   1.780   0.271   1.807  0.3003  0.5423 -0.4010
  180TIP3    H1  493   1.788   0.181   1.775 -0.2360  0.2595  0.2313
  180TIP3    H2  494   1.716   0.265   1.879  0.5739  1.3584 -0.0813
  181TIP3   OH2  495   6.368   0.131   0.214  0.2582 -0.2839  0.0069
  181TIP3    H1  496   6.317   0.081   0.277  0.6648 -2.4706 -1.3393
  181TIP3    H2  497   6.335   0.103   0.129  1.5717  0.5936 -0.8224
  182TIP3   OH2  498   2.722   2.253   1.492 -0.2403  0.1051 -1.0402
  182TIP3    H1  499   2.675   2.334   1.512  0.0913  0.3382 -1.2073
  182TIP3    H2  500   2.767   2.271   1.410 -0.5844 -0.4235 -1.3494
  183TIP3   OH2  501   5.354   1.139   3.187  0.0960  0.1243 -0.3460
  183TIP3    H1  502   5.429   1.173   3.139 -1.4486  0.0106 -3.0086
  183TIP3    H2  503   5.358   1.180   3.273  2.2065  1.4549 -1.0510
  184TIP3   OH2  504   1.320   6.952   3.095 -0.1921  0.0379  0.2254
  184TIP3    H1  505   1.334   6.951   3.190 -1.5411  1.4425  0.4631
  184TIP3    H2  506   1.407   6.938   3.058  0.2290 -1.3767  1.6555
  185TIP3   OH2  507   3.896   1.832   2.161 -0.0719 -0.0862  0.3759
  185TIP3    H1  508   3.915   1.743   2.192  0.2764 -0.0944  0.1472
  185TIP3    H2  509   3.936   1.889   2.226  2.4563 -0.0997 -1.0841
  186TIP3   OH2  510   7.741   6.771   2.785  0.1678  0.1266  0.4799
  186TIP3    H1  511   7.768   6.684   2.755 -0.9972 -0.8963  2.2386
  186TIP3    H2  512   7.816   6.803   2.836  0.0078 -0.5411  1.1478
  187TIP3   OH2  513   5.881   0.361   4.423  0.0587  0.1758 -0.1177
  187TIP3    H1  514   5.887   0.266   4.419 -0.2497  0.1069  0.8537
  187TIP3    H2  515   5.802   0.382   4.373  1.9002  0.1951 -3.1147
  188TIP3   OH2  516   4.626   4.810   0.123  0.4109 -0.2355 -0.2098
  188TIP3    H1  517   4.563   4.759   0.174 -0.8341 -0.1272 -1.5867
  188TIP3    H2  518   4.676   4.859   0.188 -2.5757  1.5780  0.8719
  189TIP3   OH2  519   4.945   1.378   4.606  0.5800  0.3252 -0.4023
  189TIP3    H1  520   4.967   1.464   4.641 -0.6343 -0.2684  1.9451
  189TIP3    H2  521   4.882   1.395   4.537  2.0372  1.4501 -1.4823
  190TIP3   OH2  522   2.395   5.813   3.323  0.3827 -0.8924  0.3239
  190TIP3    H1  523   2.370   5.831   3.232 -0.1893 -1.3296  0.3932
  190TIP3    H2  524   2.344   5.876   3.374  1.7431  0.2987  0.2546
  191TIP3   OH2  525   4.023   5.685   1.479  0.2738 -0.0110  0.2505
  191TIP3    H1  526   4.061   5.601   1.505  0.6545  0.3884  1.0273
  191TIP3    H2  527   4.060   5.704   1.393 -0.4837 -1.0475 -0.3049
  192TIP3   OH2  528   5.474   1.469   2.765  0.0715  0.0029  0.2234
  192TIP3    H1  529   5.475   1.559   2.734  0.8149  0.6904  2.1536
  192TIP3    H2  530   5.510   1.418   2.693  0.1152  1.3137 -0.6913
  193TIP3   OH2  531   6.535   0.339   0.150 -0.5620  0.0248  0.3705
  193TIP3    H1  532   6.468   0.290   0.196 -0.4135  0.2055  0.7778
  193TIP3    H2  533   6.618   0.301   0.179 -0.4810 -0.0960 -0.0129
  194TIP3   OH2  534   3.418   7.270   0.637 -0.0570  0.1692  0.1351
  194TIP3    H1  535   3.431   7.265   0.731 -0.0937 -0.9813  0.0880
  194TIP3    H2  536   3.447   7.184   0.604 -0.9723  0.1974 -0.7731
  195TIP3   OH2  537   5.321   0.585   4.312 -0.2389 -0.3753 -0.2791
  195TIP3    H1  538   5.378   0.639   4.257 -1.3046  1.4883  0.3857
  195TIP3    H2  539   5.244   0.639   4.326  0.1052 -0.6956  3.2493
  196TIP3   OH2  540   5.968   0.278   1.076  0.3642  0.0554 -0.1656
  196TIP3    H1  541   5.996   0.325   1.154 -0.8170  3.3560 -1.6522
  196TIP3    H2  542   5.961   0.345   1.008 -2.0399 -2.1498 -2.2162
  197TIP3   OH2  543   1.822   7.195   2.315  0.6640 -0.4571  0.2988
  197TIP3    H1  544   1.912   7.228   2.319  0.5068  0.0632 -0.5654
  197TIP3    H2  545   1.785   7.234   2.237 -0.4585 -0.3464  0.8794
  198TIP3   OH2  546   7.774   4.393   6.127  0.0596 -0.2160  0.0600
  198TIP3    H1  547   7.808   4.356   6.046 -0.4810  0.3061 -0.4062
  198TIP3    H2  548   7.809   4.336   6.196  1.1051 -0.2358 -0.4794
  199TIP3   OH2  549   7.364   0.751   0.740  0.4176  0.1656  0.4091
  199TIP3    H1  550   7.442   0.795   0.774  0.0888  0.5496  0.6919
  199TIP3    H2  551   7.373   0.755   0.645  0.5424  0.5870  0.4347
  200TIP3   OH2  552   3.710   1.486   0.922  0.5163 -0.3388  0.0764
  200TIP3    H1  553   3.752   1.419   0.976  0.2938  0.3576  1.1081
  200TIP3    H2  554   3.729   1.458   0.832  2.3999 -0.5444  0.5128
  201TIP3   OH2  555   3.628   7.267   3.812 -0.1509 -0.5751 -0.2344
  201TIP3    H1  556   3.593   7.180   3.793 -0.1229 -0.4122 -1.0731
  201TIP3    H2  557   3.551   7.320   3.832 -0.2433 -0.5980 -0.5270
  202TIP3   OH2  558   5.231   0.428   2.921 -0.2934 -0.2198  0.0883
  202TIP3    H1  559   5.278   0.355   2.882  1.5380 -0.2982  2.2874
  202TIP3    H2  560   5.258   0.505   2.871 -1.0425 -0.8311 -1.2615
  203TIP3   OH2  561   6.988   2.403   1.175  0.6600 -0.2189  0.4102
  203TIP3    H1  562   7.051   2.470   1.145  1.3796 -0.3997  1.4811
  203TIP3    H2  563   7.042   2.325   1.189  0.1759 -0.4065  1.2215
  204TIP3   OH2  564   4.271   1.026   1.207  0.8226  0.1998  0.2654
  204TIP3    H1  565   4.197   1.011   1.150  3.6579 -2.5602 -2.8819
  204TIP3    H2  566   4.253   0.974   1.285 -0.9902  0.3787 -0.0262
  205TIP3   OH2  567   6.622   1.857   0.945 -0.1374 -0.2473  0.3569
  205TIP3    H1  568   6.697   1.868   1.003 -1.1755  1.7369  1.3471
  205TIP3    H2  569   6.625   1.933   0.887 -1.9117  0.3684  1.0311
  206TIP3   OH2  570   5.953   0.762   1.874 -0.2261 -0.4936 -0.1201
  206TIP3    H1  571   5.993   0.748   1.788  0.0016  3.2374 -0.7201
  206TIP3    H2  572   6.024   0.798   1.928 -0.3803 -2.7554  1.6631
  207TIP3   OH2  573   7.236   4.280   5.217  0.3920  0.2145  0.4360
  207TIP3    H1  574   7.317   4.272   5.267 -1.1401  1.7225  3.2938
  207TIP3    H2  575   7.246   4.362   5.168  0.6813  0.2944  0.6271
  208TIP3   OH2  576   4.332   2.628   1.840 -0.0359  0.3454 -0.0936
  208TIP3    H1  577   4.379   2.679   1.774  0.4648  0.9062  0.6963
  208TIP3    H2  578   4.401   2.592   1.896 -0.4313 -0.5737 -0.1908
  209TIP3   OH2  579   2.616   1.644   3.394 -0.1616 -0.6245 -0.6921
  209TIP3    H1  580   2.695   1.686   3.430 -0.2188 -1.0259 -0.1017
  209TIP3    H2  581   2.643   1.555   3.374 -0.2098 -0.4883 -1.3928
  210TIP3   OH2  582   0.149   4.025   3.992 -0.7848  0.0870 -0.1323
  210TIP3    H1  583   0.082   4.015   4.060 -1.0807 -0.1908 -0.4576
  210TIP3    H2  584   0.117   4.098   3.939 -1.1891 -0.4821 -0.6890
  211TIP3   OH2  585   1.407   4.246   1.894 -0.2527  0.0313 -0.0676
  211TIP3    H1  586   1.424   4.243   1.800  1.9430  2.0681  0.2065
  211TIP3    H2  587   1.444   4.165   1.928  2.7254  1.1809 -0.4428
  212TIP3   OH2  588   7.013   2.225   2.656 -0.2968 -0.7238  0.3714
  212TIP3    H1  589   7.061   2.294   2.701 -1.9277  1.1132 -0.6363
  212TIP3    H2  590   6.972   2.175   2.727 -0.5276  0.3914  1.0371
  213TIP3   OH2  591   6.968   2.167   2.931 -0.0166 -0.4371  0.4929
  213TIP3    H1  592   6.998   2.177   3.022 -0.0003 -0.5604  0.5020
  213TIP3    H2  593   6.874   2.185   2.935  0.4873  2.6497  0.0094
  214TIP3   OH2  594   2.023   3.868   3.660  0.3847  0.1641 -0.6164
  214TIP3    H1  595   2.116   3.863   3.638  0.3918  0.0582 -0.5626
  214TIP3    H2  596   2.016   3.828   3.746  0.2189 -0.2753 -0.8275
  215TIP3   OH2  597   1.000   0.551   3.970 -0.7199  0.0930  0.3506
  215TIP3    H1  598   0.916   0.569   4.011 -1.7629 -0.7994 -1.3269
  215TIP3    H2  599   1.049   0.501   4.036 -2.2346 -1.0351  0.6427
  216TIP3   OH2  600   2.865   3.196   2.140  0.0292  0.2399  0.8050
  216TIP3    H1  601   2.822   3.279   2.119  1.3920  0.8350  0.2734
  216TIP3    H2  602   2.807   3.154   2.203 -2.8605 -0.3702 -2.1030
  217TIP3   OH2  603   7.855   3.308   1.671  0.4857  0.1360 -0.1100
  217TIP3    H1  604   7.766   3.318   1.704 -0.2339 -0.5754 -1.7436
  217TIP3    H2  605   7.868   3.382   1.612  0.2680 -0.7871 -1.3419
  218TIP3   OH2  606   7.631   3.264   0.860 -0.5589  0.1557 -0.5502
  218TIP3    H1  607   7.658   3.174   0.876  0.7102  0.2804 -1.9136
  218TIP3    H2  608   7.573   3.259   0.784 -0.0542  0.5533 -0.9622
  219TIP3   OH2  609   2.198   0.775   2.354  0.0050 -0.1341  0.0484
  219TIP3    H1  610   2.156   0.731   2.428 -0.2282  1.8462  1.1276
  219TIP3    H2  611   2.144   0.853   2.339  1.2404  0.5524 -0.8793
  220TIP3   OH2  612   1.958   1.797   0.402  0.3401 -0.0982  0.0665
  220TIP3    H1  613   1.954   1.792   0.307  2.8470 -1.1883 -0.0163
  220TIP3    H2  614   1.870   1.773   0.432  0.0888 -1.7040 -1.9050
  221TIP3   OH2  615   5.334   3.729   5.739  0.1486  0.0781  0.6820
  221TIP3    H1  616   5.364   3.774   5.817  2.5890  0.5687 -0.4849
  221TIP3    H2  617   5.374   3.642   5.744 -0.1219 -0.0751  0.2614
  222TIP3   OH2  618   1.349   2.100   2.158  0.3414 -0.2004 -0.3372
  222TIP3    H1  619   1.345   2.178   2.214 -0.1132 -0.3711 -0.1257
  222TIP3    H2  620   1.316   2.030   2.214 -1.8180 -0.0543 -1.3675
  223TIP3   OH2  621   1.373   4.754   1.765 -0.1586 -0.0848  0.2558
  223TIP3    H1  622   1.429   4.754   1.688 -0.0638  0.1432  0.3248
  223TIP3    H2  623   1.351   4.846   1.779  0.3889 -0.0501  0.9118
  224TIP3   OH2  624   2.631   2.192   1.865 -0.1076 -0.2710 -0.3706
  224TIP3    H1  625   2.592   2.258   1.923 -0.1247  0.1801 -0.8892
  224TIP3    H2  626   2.641   2.237   1.781  0.9694 -0.5600 -0.4147
  225TIP3   OH2  627   2.782   3.547   0.827  0.4742 -0.0227  0.2868
  225TIP3    H1  628   2.747   3.510   0.746  0.6476  2.1282 -0.8230
  225TIP3    H2  629   2.869   3.577   0.803  0.6428  0.3513  1.3580
  226TIP3   OH2  630   2.599   1.884   2.466  0.2896  0.5338 -0.5346
  226TIP3    H1  631   2.514   1.841   2.457  0.0891  0.3148  2.0851
  226TIP3    H2  632   2.662   1.815   2.443 -0.1971  0.3789 -1.4290
  227TIP3   OH2  633   2.557   2.133   3.078  0.2289 -0.2275  0.4025
  227TIP3    H1  634   2.547   2.037   3.083 -0.6336 -0.1870 -0.4916
  227TIP3    H2  635   2.630   2.146   3.018  0.2984 -0.3267  0.4647
  228TIP3   OH2  636   1.501   3.372   3.306  0.0818  0.1556  0.4912
  228TIP3    H1  637   1.524   3.451   3.256 -0.9149  0.0780 -0.1050
  228TIP3    H2  638   1.569   3.309   3.283  0.2638  0.4874  0.1055
  229TIP3   OH2  639   1.853   2.607   0.688 -0.1220 -0.9065  0.1002
  229TIP3    H1  640   1.813   2.677   0.739 -1.2740 -1.2712 -0.2820
  229TIP3    H2  641   1.915   2.565   0.748  0.7402  0.5817  0.2545
  230TIP3   OH2  642   3.527   1.458   3.413  0.5023 -1.1017  0.6288
  230TIP3    H1  643   3.592   1.391   3.435  0.7336 -0.9263  0.4807
  230TIP3    H2  644   3.470   1.416   3.348  1.0819 -0.9106 -0.0063
  231TIP3   OH2  645   5.940   6.239   4.004 -0.0406 -0.0454 -0.2353
  231TIP3    H1  646   5.887   6.250   4.083  1.2487  3.0114  0.2621
  231TIP3    H2  647   5.880   6.260   3.932 -0.3242  0.4507  0.1420
  232TIP3   OH2  648   2.323   2.442   1.578  0.2887 -0.5164 -0.1621
  232TIP3    H1  649   2.297   2.507   1.512  1.3343 -1.2521 -1.3368
  232TIP3    H2  650   2.292   2.478   1.661  1.7858  2.0130 -0.6485
  233TIP3   OH2  651   2.903   1.821   4.265 -0.3400 -0.3577 -0.7482
  233TIP3    H1  652   2.917   1.727   4.278 -1.0632 -0.6999 -2.3134
  233TIP3    H2  653   2.834   1.826   4.199  0.5328  1.2778 -1.5695
  234TIP3   OH2  654   2.499   0.487   3.338 -0.6339 -0.1424 -0.0983
  234TIP3    H1  655   2.583   0.530   3.352 -0.6733 -0.3039  0.6516
  234TIP3    H2  656   2.479   0.503   3.246 -0.1269  0.5127 -0.0989
  235TIP3   OH2  657   2.634   1.581   3.837  0.1352  0.4240 -0.6724
  235TIP3    H1  658   2.577   1.542   3.771 -0.3837  2.0861 -1.2319
  235TIP3    H2  659   2.598   1.669   3.850  0.5565  0.2981  1.4364
  236TIP3   OH2  660   0.706   2.905   2.874  0.1330  0.4679  0.2688
  236TIP3    H1  661   0.722   2.890   2.780  0.4754  3.0612 -0.1471
  236TIP3    H2  662   0.615   2.934   2.879 -0.2628 -0.8723  0.9042
  237TIP3   OH2  663   3.289   3.435   1.806  0.3191 -0.3091  0.2373
  237TIP3    H1  664   3.203   3.414   1.841  0.0894 -0.9328 -0.6890
  237TIP3    H2  665   3.272   3.473   1.720  1.0427 -2.4556 -0.9055
  238TIP3   OH2  666   1.741   0.924   1.131  0.0646  0.1926  0.2198
  238TIP3    H1  667   1.665   0.980   1.148 -0.2161  0.4978 -1.8451
  238TIP3    H2  668   1.713   0.836   1.158 -1.1975  0.2258 -0.9090
  239TIP3   OH2  669   1.446   1.855   2.951  0.4400  0.1880 -0.0374
  239TIP3    H1  670   1.402   1.778   2.913 -0.1189 -0.2064  1.3688
  239TIP3    H2  671   1.391   1.929   2.924  0.4766  0.0011 -0.6367
  240TIP3   OH2  672   6.898   0.565   1.368 -0.6883 -0.1234  0.2508
  240TIP3    H1  673   6.974   0.519   1.403 -0.0056 -1.2424 -2.5101
  240TIP3    H2  674   6.918   0.658   1.377  0.0685 -0.4086  1.4812
  241TIP3   OH2  675   2.123   1.310   0.705  0.2358  0.3172  0.1887
  241TIP3    H1  676   2.196   1.292   0.765 -1.6562 -0.2151  2.3796
  241TIP3    H2  677   2.111   1.228   0.658 -0.3216 -0.2811  1.3520
  242TIP3   OH2  678   1.863   1.619   3.071 -0.0528  0.5854  0.0350
  242TIP3    H1  679   1.776   1.654   3.092 -1.1464 -1.5936 -0.6728
  242TIP3    H2  680   1.872   1.631   2.977  1.3482  2.7475  0.4094
  243TIP3   OH2  681   1.949   2.269   0.997  0.5040  0.2616  0.5862
  243TIP3    H1  682   1.956   2.263   1.092 -2.3102  2.3053  0.9842
  243TIP3    H2  683   1.955   2.363   0.978  3.2871 -0.2797 -1.4998
  244TIP3   OH2  684   4.495   5.761   5.930  0.2224 -0.3111  0.5819
  244TIP3    H1  685   4.452   5.841   5.903  1.3148  0.1568  0.1873
  244TIP3    H2  686   4.482   5.700   5.857  0.1299 -0.2067  0.5128
  245TIP3   OH2  687   1.554   1.265   3.477 -0.4941  0.2985 -0.2355
  245TIP3    H1  688   1.575   1.351   3.514 -1.3573  0.5218 -0.2504
  245TIP3    H2  689   1.521   1.214   3.551 -0.0238 -0.0100 -0.2350
  246TIP3   OH2  690   3.768   4.249   2.265  0.6639  0.5951 -0.1033
  246TIP3    H1  691   3.768   4.244   2.169  1.4034  0.7668 -0.1158
  246TIP3    H2  692   3.699   4.312   2.285 -0.2948 -0.3090 -0.4668
  247TIP3   OH2  693   1.257   1.924   1.862  0.5038 -0.5289 -0.1990
  247TIP3    H1  694   1.342   1.909   1.903  0.5916  0.5551  0.0498
  247TIP3    H2  695   1.238   2.016   1.881  0.3447 -0.1101 -2.2248
  248TIP3   OH2  696   1.497   1.337   1.215  0.2299  0.2601 -0.4617
  248TIP3    H1  697   1.407   1.303   1.213 -1.5203  4.6590 -0.5794
  248TIP3    H2  698   1.527   1.329   1.124 -0.0592 -1.0667 -0.4575
  249TIP3   OH2  699   3.692   0.097   3.993 -0.4914 -0.3327  0.7547
  249TIP3    H1  700   3.681   0.029   4.060  0.3334 -0.0255  1.2182
  249TIP3    H2  701   3.762   0.152   4.028 -0.8533  0.4950  0.1695
  250TIP3   OH2  702   2.716   2.990   1.423  0.2470  0.1969  0.1929
  250TIP3    H1  703   2.788   2.979   1.361 -0.2700 -0.0242 -0.3747
  250TIP3    H2  704   2.648   3.036   1.373 -0.0292  0.3455  0.7042
  251TIP3   OH2  705   0.532   3.785   1.527 -0.5438 -0.5876  0.3811
  251TIP3    H1  706   0.556   3.746   1.611 -0.0787 -0.0998  0.4838
  251TIP3    H2  707   0.437   3.774   1.521 -0.5525 -0.8068  0.8746
  252TIP3   OH2  708   1.647   4.241   0.854 -0.4385  0.0085  0.1092
  252TIP3    H1  709   1.616   4.154   0.876  0.1485 -1.3718 -4.0728
  252TIP3    H2  710   1.738   4.243   0.885 -0.2795 -1.0628 -0.2779
  253TIP3   OH2  711   3.660   6.581   6.311 -0.1285 -0.1012 -0.0243
  253TIP3    H1  712   3.751   6.607   6.316 -0.0139 -0.5793  0.5455
  253TIP3    H2  713   3.633   6.573   6.403 -0.3175 -1.3817 -0.1794
  254TIP3   OH2  714   0.878   1.791   3.556  0.2523 -0.6078  0.1465
  254TIP3    H1  715   0.785   1.774   3.540  0.2411  1.0820 -1.8254
  254TIP3    H2  716   0.879   1.864   3.618  0.2784 -1.1346  0.7729
  255TIP3   OH2  717   1.846   2.096   1.838  0.3964  0.6307 -0.0457
  255TIP3    H1  718   1.769   2.121   1.889  1.0416  0.5747  0.9727
  255TIP3    H2  719   1.842   2.000   1.835  1.3730  0.5111  1.5529
  256TIP3   OH2  720   2.864   2.032   1.571  0.4859 -0.3594  0.6245
  256TIP3    H1  721   2.924   2.095   1.611  1.5078 -0.3555 -0.8514
  256TIP3    H2  722   2.799   2.086   1.526  0.8227 -0.3490  0.1431
  257TIP3   OH2  723   4.627   5.746   6.178 -0.3184  0.1515  0.2312
  257TIP3    H1  724   4.582   5.765   6.096  0.0003  0.3241  0.0954
  257TIP3    H2  725   4.587   5.666   6.210  0.3207 -0.5259 -0.6535
  258TIP3   OH2  726   1.521   3.410   2.909  0.9061  0.4175 -0.1586
  258TIP3    H1  727   1.536   3.471   2.981  0.5556 -1.5730  1.6445
  258TIP3    H2  728   1.609   3.385   2.881  1.0788 -1.4378  1.9114
  259TIP3   OH2  729   2.708   2.649   1.816 -0.5171 -0.0845 -0.4940
  259TIP3    H1  730   2.682   2.573   1.763  2.6912 -1.0985 -0.7145
  259TIP3    H2  731   2.739   2.713   1.752  0.1419  0.0259 -0.0665
  260TIP3   OH2  732   1.839   3.083   1.995 -0.1835 -0.0191 -0.4107
  260TIP3    H1  733   1.920   3.130   2.013 -0.3793  0.9510 -2.0481
  260TIP3    H2  734   1.773   3.129   2.048  0.1146 -0.1123  0.0477
  261TIP3   OH2  735   6.471   0.066   5.874  0.2344  0.5488  0.9733
  261TIP3    H1  736   6.471   0.137   5.809  0.3897  0.7905  1.2352
  261TIP3    H2  737   6.399   0.009   5.846  2.2543 -1.0527 -1.2249
  262TIP3   OH2  738   7.028   0.783   1.051 -0.1319 -0.0442  0.5998
  262TIP3    H1  739   7.011   0.791   0.957  1.2044 -0.9140  0.2715
  262TIP3    H2  740   6.951   0.738   1.086  0.2506 -1.4783 -0.3955
  263TIP3   OH2  741   2.105   1.472   1.441  0.7976  0.0319 -0.6607
  263TIP3    H1  742   2.171   1.404   1.456  0.4349 -0.5294 -1.5826
  263TIP3    H2  743   2.104   1.523   1.522  1.0189 -1.1112  0.0710
  264TIP3   OH2  744   2.365   3.281   2.242 -0.0536  0.3794 -0.0986
  264TIP3    H1  745   2.345   3.206   2.298  0.2715  0.6722  0.4142
  264TIP3    H2  746   2.320   3.355   2.283  1.0537  0.7995  0.3835
  265TIP3   OH2  747   3.209   1.917   1.462 -0.7100 -0.1947 -0.1981
  265TIP3    H1  748   3.290   1.874   1.438  0.2021  0.3082  1.8272
  265TIP3    H2  749   3.179   1.871   1.541  0.4954  2.9601  2.2451
  266TIP3   OH2  750   1.042   6.364   1.648 -0.3134 -0.1046 -0.4360
  266TIP3    H1  751   1.006   6.445   1.684  1.0125 -0.1572  1.0713
  266TIP3    H2  752   0.967   6.318   1.611 -1.4301  0.7401  0.7620
  267TIP3   OH2  753   1.476   4.207   1.623  0.3677  0.3862  0.5994
  267TIP3    H1  754   1.432   4.270   1.566  1.0890  0.1272 -0.2610
  267TIP3    H2  755   1.566   4.238   1.629  1.1258 -1.3447 -1.0706
  268TIP3   OH2  756   0.957   3.662   1.779 -0.1201 -0.0659 -0.2135
  268TIP3    H1  757   1.005   3.697   1.704  0.3652  0.8353  0.4955
  268TIP3    H2  758   0.918   3.580   1.748  2.8586 -1.4455 -0.5000
  269TIP3   OH2  759   1.177   2.364   2.535 -0.0822  0.1078 -0.5712
  269TIP3    H1  760   1.109   2.431   2.534  0.5022  0.7209  0.0569
  269TIP3    H2  761   1.215   2.366   2.447 -0.1637  0.5057 -0.5984
  270TIP3   OH2  762   3.785   2.514   4.666  0.5697  0.0280 -0.0110
  270TIP3    H1  763   3.726   2.466   4.723  1.8207  0.1096  1.3643
  270TIP3    H2  764   3.870   2.471   4.677  1.4452  1.8034  0.3461
  271TIP3   OH2  765   1.525   2.798   0.906 -0.0020 -0.4944 -0.1067
  271TIP3    H1  766   1.500   2.724   0.961  1.7596  0.3556  1.8598
  271TIP3    H2  767   1.444   2.848   0.897 -0.7271 -1.5793  0.2182
  272TIP3   OH2  768   3.638   2.766   2.940 -0.3807 -0.7745  0.1095
  272TIP3    H1  769   3.588   2.819   3.002 -1.0698  1.5898 -2.3824
  272TIP3    H2  770   3.595   2.780   2.856  2.0414 -1.9094 -1.3768
  273TIP3   OH2  771   2.684   0.833   1.029 -0.4199  0.3988 -0.0118
  273TIP3    H1  772   2.751   0.850   1.095 -0.9359 -2.3632  1.3040
  273TIP3    H2  773   2.604   0.820   1.080 -1.2111  0.0548 -1.3114
  274TIP3   OH2  774   1.521   2.775   1.706  0.2578  0.1270 -1.0517
  274TIP3    H1  775   1.616   2.764   1.703  0.0259 -1.6752 -2.8877
  274TIP3    H2  776   1.493   2.767   1.615 -2.1727 -4.5803 -0.0242
  275TIP3   OH2  777   1.147   4.469   0.005  0.5021 -0.0775  0.8130
  275TIP3    H1  778   1.204   4.451   0.081  0.6729 -0.1032  0.6783
  275TIP3    H2  779   1.182   4.551  -0.031  0.6685 -0.2758  0.5251
  276TIP3   OH2  780   4.695   3.210   1.107 -0.4423  0.1650 -0.2681
  276TIP3    H1  781   4.631   3.194   1.177  0.2217 -1.7813 -0.0726
  276TIP3    H2  782   4.642   3.220   1.028 -1.0419 -0.9631 -0.0286
  277TIP3   OH2  783   6.783   7.077   2.720 -0.7186  0.6551 -0.4710
  277TIP3    H1  784   6.703   7.111   2.680 -1.2398  0.2196  0.1955
  277TIP3    H2  785   6.791   7.123   2.803 -0.8590 -0.0788 -0.0440
  278TIP3   OH2  786   4.350   7.327   0.389 -0.2164 -0.5219  0.9601
  278TIP3    H1  787   4.316   7.238   0.382 -2.0549  0.2918 -1.0356
  278TIP3    H2  788   4.421   7.331   0.325 -0.5301 -0.3776  0.6216
  279TIP3   OH2  789   0.435   2.229   2.771  0.0701 -0.2597 -0.0614
  279TIP3    H1  790   0.342   2.210   2.780  0.0437  0.1104  0.4538
  279TIP3    H2  791   0.477   2.143   2.768 -0.3707 -0.4472 -1.2343
  280TIP3   OH2  792   7.838   0.602   5.330  0.8271 -0.7654  0.2216
  280TIP3    H1  793   7.785   0.593   5.409 -0.2265  2.4810 -0.0179
  280TIP3    H2  794   7.781   0.571   5.259  1.0996 -1.9466  0.5084
  281TIP3   OH2  795   7.865   6.488   0.114 -0.5054  0.1401  0.0161
  281TIP3    H1  796   7.779   6.450   0.094 -1.1897  1.4559  0.3788
  281TIP3    H2  797   7.913   6.417   0.156 -1.5665 -0.4829  0.1996
  282TIP3   OH2  798   0.182   2.860   1.896 -0.0122 -0.2674  0.1649
  282TIP3    H1  799   0.210   2.914   1.971  1.6877 -2.4359  1.1605
  282TIP3    H2  800   0.087   2.861   1.900  0.0030  1.8151  0.7663
  283TIP3   OH2  801   2.511   1.352   4.619 -0.3374  0.3686 -0.3464
  283TIP3    H1  802   2.556   1.418   4.671 -2.0635  1.0361  0.3337
  283TIP3    H2  803   2.433   1.396   4.585 -0.8706 -0.9548 -0.9054
  284TIP3   OH2  804   3.026   1.569   4.442 -0.2050 -0.4677  0.5135
  284TIP3    H1  805   2.932   1.563   4.424 -0.2826  0.5088  0.6054
  284TIP3    H2  806   3.067   1.556   4.357 -0.4990  1.4988  0.0510
  285TIP3   OH2  807   6.953   6.928   2.113  0.1040 -0.8563  0.0465
  285TIP3    H1  808   6.889   6.906   2.181 -0.6165 -0.0642 -0.3761
  285TIP3    H2  809   7.036   6.937   2.161 -0.6733  1.1389  1.0542
  286TIP3   OH2  810   0.223   1.774   2.444 -0.6964 -0.0405 -0.2021
  286TIP3    H1  811   0.229   1.752   2.537 -2.6953  1.1653  0.2462
  286TIP3    H2  812   0.266   1.860   2.438  0.3476 -0.5849 -0.5854
  287TIP3   OH2  813   1.184   1.915   2.591 -0.5780  0.2801 -0.1822
  287TIP3    H1  814   1.270   1.937   2.628 -1.5209  1.8479  1.1941
  287TIP3    H2  815   1.129   1.991   2.612 -2.4739 -0.9756 -0.4464
  288TIP3   OH2  816   1.427   3.206   0.707 -0.0794  0.0885  0.2127
  288TIP3    H1  817   1.487   3.152   0.655 -0.9537  0.5784 -1.3449
  288TIP3    H2  818   1.472   3.291   0.713  0.1097 -0.0253  0.4341
  289TIP3   OH2  819   3.483   0.710   1.562 -0.6724 -0.6097 -0.0540
  289TIP3    H1  820   3.510   0.706   1.470  2.1175  1.2135  0.6280
  289TIP3    H2  821   3.551   0.663   1.609 -1.1695 -0.0575  1.2393
  290TIP3   OH2  822   6.413   5.682   6.149  0.3586 -0.2229  0.1674
  290TIP3    H1  823   6.392   5.678   6.056 -0.6402  1.8037  0.2881
  290TIP3    H2  824   6.356   5.749   6.184  0.4715 -1.2169  2.3389
  291TIP3   OH2  825   3.794   5.184   5.886 -0.6648  0.2396  0.6859
  291TIP3    H1  826   3.844   5.241   5.945  0.6280  0.2546 -0.4045
  291TIP3    H2  827   3.713   5.167   5.933  0.2568  0.4183  2.3903
  292TIP3   OH2  828   1.890   1.757   1.405  0.3578  0.1470 -0.0121
  292TIP3    H1  829   1.946   1.738   1.480  0.8756  2.5989  0.2574
  292TIP3    H2  830   1.842   1.835   1.430 -1.2725 -0.4214 -1.2886
  293TIP3   OH2  831   0.284   7.415   2.426 -0.4376  0.1110 -0.4616
  293TIP3    H1  832   0.328   7.405   2.511 -0.8026 -0.2524 -0.3134
  293TIP3    H2  833   0.318   7.497   2.391  0.3512 -0.1668 -0.3420
  294TIP3   OH2  834   6.940   5.750   6.366  0.2318  0.0356  0.0612
  294TIP3    H1  835   6.974   5.661   6.364  1.1824  0.3889  0.1480
  294TIP3    H2  836   6.846   5.740   6.354  0.5814 -0.8195 -2.1377
  295TIP3   OH2  837   2.812   2.441   0.619  0.4595 -0.4654  0.4688
  295TIP3    H1  838   2.853   2.383   0.683  0.2691 -0.3552  0.6900
  295TIP3    H2  839   2.718   2.423   0.627  0.5609 -1.8986 -1.1637
  296TIP3   OH2  840   2.662   2.021   0.287 -0.1738 -0.1158  0.2741
  296TIP3    H1  841   2.645   2.003   0.195  2.7326 -0.9242 -0.1242
  296TIP3    H2  842   2.724   2.094   0.287  0.7648 -0.8894  1.5613
  297TIP3   OH2  843   7.773   7.428   4.026  0.1631  0.4677  0.4920
  297TIP3    H1  844   7.698   7.399   4.077 -0.9320  1.8603 -0.2905
  297TIP3    H2  845   7.769   7.376   3.946 -0.7170  1.3983 -0.0915
  298TIP3   OH2  846   2.477   3.848   2.048  0.5440 -0.0276 -0.1355
  298TIP3    H1  847   2.535   3.800   1.989  0.3401 -0.1172 -0.2613
  298TIP3    H2  848   2.535   3.880   2.117  0.7788  0.0626 -0.3750
  299TIP3   OH2  849   0.152   2.123   3.385  0.0909 -0.2344  0.0032
  299TIP3    H1  850   0.236   2.139   3.340 -0.6441  0.3044 -1.2047
  299TIP3    H2  851   0.092   2.097   3.315 -1.1262  0.7625  0.6569
  300TIP3   OH2  852   2.120   3.494   0.308  0.4967  0.4182  0.1181
  300TIP3    H1  853   2.046   3.442   0.279  0.1500  0.5521  0.7507
  300TIP3    H2  854   2.194   3.464   0.255  0.0929 -0.0402 -0.1819
  301TIP3   OH2  855   1.817   3.444   2.266 -0.0794 -0.4349  0.4050
  301TIP3    H1  856   1.800   3.537   2.284 -0.4998 -0.4477  0.0717
  301TIP3    H2  857   1.854   3.443   2.178  0.3055 -0.5461  0.5683
  302TIP3   OH2  858   1.032   1.668   4.124  0.4207  0.1943  0.3150
  302TIP3    H1  859   0.955   1.615   4.148  0.0599  0.6893  0.2684
  302TIP3    H2  860   1.073   1.690   4.208 -0.4137  1.2893  0.4571
  303TIP3   OH2  861   2.992   0.988   1.757 -0.0740  0.1088  0.4529
  303TIP3    H1  862   2.908   1.032   1.754 -1.5365 -2.3564  2.8911
  303TIP3    H2  863   3.050   1.048   1.804 -0.8538  1.2095  0.0042
  304TIP3   OH2  864   3.625   2.368   1.245 -0.5553 -0.3868  0.4329
  304TIP3    H1  865   3.561   2.428   1.206  0.4338 -0.4432 -1.3053
  304TIP3    H2  866   3.671   2.330   1.170  0.3831 -1.6083  1.6092
  305TIP3   OH2  867   4.515   5.270   6.187  0.4378  0.0412 -0.2419
  305TIP3    H1  868   4.489   5.183   6.217  2.2805 -1.3124 -2.5340
  305TIP3    H2  869   4.480   5.277   6.098 -0.7721  2.1595  0.3485
  306TIP3   OH2  870   2.174   2.376   0.386 -0.0283 -0.8726  0.2076
  306TIP3    H1  871   2.250   2.404   0.437 -0.1984 -0.7642  0.4031
  306TIP3    H2  872   2.160   2.285   0.413 -1.0975 -0.3222  1.5550
  307TIP3   OH2  873   1.095   2.710   2.211 -0.0185 -0.0350  0.0154
  307TIP3    H1  874   1.070   2.645   2.277 -2.6814  3.3883  2.5554
  307TIP3    H2  875   1.167   2.759   2.252  0.1257  0.4035 -0.7509
  308TIP3   OH2  876   0.299   2.704   1.399 -0.0594 -0.2621  0.2303
  308TIP3    H1  877   0.387   2.698   1.437 -0.2034 -0.1802  0.5775
  308TIP3    H2  878   0.271   2.613   1.390  0.7946 -0.3608 -1.6001
  309TIP3   OH2  879   2.380   4.002   0.320 -0.1915 -0.1534 -0.0177
  309TIP3    H1  880   2.363   3.912   0.290  0.3024 -0.3618  0.3071
  309TIP3    H2  881   2.303   4.051   0.294 -0.9209 -0.8917  0.7145
  310TIP3   OH2  882   2.258   1.939   2.218 -0.5317  0.0409 -0.3107
  310TIP3    H1  883   2.277   1.905   2.305 -0.1982  1.1203  0.0470
  310TIP3    H2  884   2.162   1.941   2.212 -0.5612 -2.2664 -0.8659
  311TIP3   OH2  885   6.739   1.236   3.143 -0.0843  0.2289  0.4396
  311TIP3    H1  886   6.653   1.226   3.103 -0.6720 -0.2617  1.7950
  311TIP3    H2  887   6.787   1.158   3.117  0.5283  1.2729 -1.6755
  312TIP3   OH2  888   3.128   6.711   6.234 -0.4427  0.2851 -0.6104
  312TIP3    H1  889   3.163   6.794   6.266 -0.2586 -0.5864  1.5673
  312TIP3    H2  890   3.205   6.658   6.217 -0.5837 -0.0580 -0.2072
  313TIP3   OH2  891   1.535   0.134   1.254 -0.3887 -0.0261  0.2995
  313TIP3    H1  892   1.536   0.219   1.297 -1.4096 -0.3533  0.9708
  313TIP3    H2  893   1.508   0.153   1.164  2.0058  0.6913 -0.3219
  314TIP3   OH2  894   2.879   4.546   1.866  0.4602 -0.6929 -0.2427
  314TIP3    H1  895   2.789   4.561   1.836 -0.1086 -0.1091  1.7137
  314TIP3    H2  896   2.931   4.549   1.786 -1.0794  0.4080 -1.2323
  315TIP3   OH2  897   3.253   2.996   3.112 -0.4859 -0.4455 -0.4451
  315TIP3    H1  898   3.296   2.968   3.193  0.3483  1.2602 -0.2670
  315TIP3    H2  899   3.163   2.965   3.121 -0.0030 -1.6267  0.4394
  316TIP3   OH2  900   5.691   4.565   0.713 -0.1428  0.1907  0.0550
  316TIP3    H1  901   5.614   4.512   0.693 -0.9048  1.4687 -0.4088
  316TIP3    H2  902   5.658   4.654   0.721  1.2503  0.7170  0.0702
  317TIP3   OH2  903   5.492   2.293   2.670 -0.1423  0.0015 -0.0324
  317TIP3    H1  904   5.486   2.246   2.753 -1.3932 -2.1673 -1.3185
  317TIP3    H2  905   5.585   2.294   2.649  0.0842 -0.2213  0.9497
  318TIP3   OH2  906   2.387   2.354   0.940 -0.0630 -0.2926  0.2052
  318TIP3    H1  907   2.346   2.299   0.873  1.6928  1.5920 -2.5028
  318TIP3    H2  908   2.327   2.427   0.951  0.9925  0.8611 -1.4653
  319TIP3   OH2  909   4.141   7.369   5.777  0.2154 -0.0338 -0.1314
  319TIP3    H1  910   4.112   7.314   5.849  1.0457  0.0210  0.2577
  319TIP3    H2  911   4.233   7.386   5.796  0.4700 -0.0922 -1.2473
  320TIP3   OH2  912   4.415   4.321   5.352 -0.2848  0.2735 -0.9784
  320TIP3    H1  913   4.330   4.356   5.328 -0.7438  0.6214  1.0781
  320TIP3    H2  914   4.446   4.378   5.422  0.9455 -0.7577 -0.6592
  321TIP3   OH2  915   2.275   1.466   1.937  0.0419 -0.2375  0.7544
  321TIP3    H1  916   2.360   1.511   1.941 -0.4010  0.6385  0.3494
  321TIP3    H2  917   2.211   1.531   1.966 -0.5808 -0.6838  0.3981
  322TIP3   OH2  918   2.535   2.332   2.094  0.0051 -0.1073  0.1506
  322TIP3    H1  919   2.522   2.267   2.163 -0.6830  0.5294  0.6274
  322TIP3    H2  920   2.460   2.320   2.036 -0.7407  0.9989  0.8472
  323TIP3   OH2  921   7.076   5.779   6.147 -0.0594 -0.1512 -0.4711
  323TIP3    H1  922   7.017   5.781   6.222 -0.5041 -1.9300 -0.7538
  323TIP3    H2  923   7.161   5.756   6.184  0.1795  1.0993 -0.2367
  324TIP3   OH2  924   0.436   7.118   2.448  0.1244 -0.0157  0.0914
  324TIP3    H1  925   0.434   7.057   2.521  2.4612 -0.6587 -0.3620
  324TIP3    H2  926   0.413   7.203   2.487  1.0435 -0.4127  1.4968
  325TIP3   OH2  927   3.687   0.958   0.094  0.5932  0.3444 -0.7208
  325TIP3    H1  928   3.719   1.037   0.138  0.1398  0.3716 -0.4356
  325TIP3    H2  929   3.714   0.886   0.151 -1.4160  0.4916  0.4625
  326TIP3   OH2  930   6.821   1.338   0.383  0.1512 -0.4298  0.1778
  326TIP3    H1  931   6.768   1.317   0.306  1.8315 -0.2575 -1.0554
  326TIP3    H2  932   6.758   1.369   0.448 -1.0828  1.2533 -1.7750
  327TIP3   OH2  933   7.510   6.668   3.560 -0.2489 -0.1771  0.4804
  327TIP3    H1  934   7.455   6.703   3.490 -1.6502 -0.0535  1.6361
  327TIP3    H2  935   7.468   6.697   3.641  2.2028  0.9986  1.3864
  328TIP3   OH2  936   6.955   4.483   6.200  0.1247  0.6209 -0.0055
  328TIP3    H1  937   6.944   4.463   6.106  0.1268  0.0047  0.1200
  328TIP3    H2  938   7.049   4.476   6.215  0.0844  0.3160  0.1241
  329TIP3   OH2  939   2.538   2.099   0.041 -0.2404 -0.2326 -0.5359
  329TIP3    H1  940   2.523   2.194   0.045  0.0127 -0.2490  1.2061
  329TIP3    H2  941   2.451   2.061   0.028 -0.2045  0.2791 -2.4943
  330TIP3   OH2  942   1.103   7.087   2.478  0.3001  1.0498  0.5395
  330TIP3    H1  943   1.030   7.077   2.539  0.0712 -0.4206  0.0443
  330TIP3    H2  944   1.182   7.085   2.533  0.1020 -0.4335  0.7757
  331TIP3   OH2  945   0.124   5.506   5.857 -0.3542  0.0125  0.5287
  331TIP3    H1  946   0.035   5.528   5.884 -0.0137 -1.4691  2.9835
  331TIP3    H2  947   0.121   5.413   5.836  0.7770 -0.2364  1.3877
  332TIP3   OH2  948   1.737   7.085   1.872  0.1026 -0.4415  0.1285
  332TIP3    H1  949   1.743   7.098   1.777  1.4212  1.6952  0.4490
  332TIP3    H2  950   1.765   6.995   1.886 -1.7605 -1.3452 -1.6466
  333TIP3   OH2  951   6.766   4.140   6.372 -0.1124 -0.0790 -0.5897
  333TIP3    H1  952   6.707   4.108   6.304 -2.0788  1.0329  0.5437
  333TIP3    H2  953   6.731   4.225   6.397  2.7260  1.2091 -0.7611
  334TIP3   OH2  954   3.691   1.268   1.937  0.4679  0.0996 -0.0803
  334TIP3    H1  955   3.754   1.223   1.993  1.2836  0.2028 -0.9057
  334TIP3    H2  956   3.668   1.347   1.986  0.5419 -0.2157  0.4751
  335TIP3   OH2  957   3.720   1.899   0.313  0.1329 -0.4116  0.1605
  335TIP3    H1  958   3.665   1.827   0.343 -1.2765  0.9571  0.9308
  335TIP3    H2  959   3.801   1.889   0.362 -0.9668 -0.0525  2.0944
  336TIP3   OH2  960   2.814   1.614   2.728 -0.3062  0.1125  0.0046
  336TIP3    H1  961   2.727   1.581   2.706 -0.2393  0.0300 -0.1395
  336TIP3    H2  962   2.835   1.573   2.812  0.2332 -1.0902 -0.6977
  337TIP3   OH2  963   3.931   2.280   2.851 -0.2264  0.0769  0.3192
  337TIP3    H1  964   3.910   2.340   2.922 -0.4503  0.5804 -0.1715
  337TIP3    H2  965   4.014   2.240   2.877  0.4846  1.4145  0.1287
  338TIP3   OH2  966   5.056   6.496   6.238  0.0569 -0.4379 -0.0749
  338TIP3    H1  967   5.101   6.412   6.227  1.2428  0.4227 -2.0373
  338TIP3    H2  968   5.031   6.522   6.150  0.2392  1.5568  0.4294
  339TIP3   OH2  969   5.646   3.888   0.595 -0.4602 -0.3975  0.5754
  339TIP3    H1  970   5.575   3.946   0.624  1.1311  1.8527  0.0763
  339TIP3    H2  971   5.610   3.843   0.518 -1.6558  0.0497  0.8625
  340TIP3   OH2  972   6.600   4.096   6.133  0.2111  0.1518 -0.0557
  340TIP3    H1  973   6.530   4.095   6.067 -0.0295 -0.4627  0.2058
  340TIP3    H2  974   6.600   4.008   6.169  1.9126 -0.1853 -0.8615
  341TIP3   OH2  975   5.305   1.779   0.114  0.0253 -0.1461  0.8672
  341TIP3    H1  976   5.369   1.714   0.143  0.7168  0.7211  1.3011
  341TIP3    H2  977   5.255   1.734   0.046  0.9420 -0.9082  0.6814
  342TIP3   OH2  978   3.244   1.797   1.781  0.0482 -0.5127 -0.5555
  342TIP3    H1  979   3.206   1.867   1.834 -1.6844 -0.1323 -2.2436
  342TIP3    H2  980   3.217   1.717   1.827  0.8166 -0.1223  0.5915
  343TIP3   OH2  981   6.856   7.205   6.431  0.2722 -0.1872  0.8881
  343TIP3    H1  982   6.779   7.150   6.447  0.2103  0.3164  2.4313
  343TIP3    H2  983   6.821   7.293   6.423  0.4679 -0.2371 -0.6733
  344TIP3   OH2  984   5.981   1.517   1.546 -0.4495  0.1565 -0.5894
  344TIP3    H1  985   6.072   1.543   1.529 -0.3210  0.6601  0.7980
  344TIP3    H2  986   5.950   1.483   1.462  0.3427  1.9666 -1.6422
  345TIP3   OH2  987   6.310   3.784   5.995 -0.2169 -0.3114 -0.3603
  345TIP3    H1  988   6.266   3.748   5.919  0.4547 -0.3429 -0.7401
  345TIP3    H2  989   6.242   3.789   6.062 -0.5280 -1.4413 -0.5776
  346TIP3   OH2  990   3.075   2.844   0.275 -0.6001 -0.3371  0.3213
  346TIP3    H1  991   3.023   2.921   0.297  0.5747  0.8002 -0.8098
  346TIP3    H2  992   3.106   2.811   0.359  0.1118  1.3008  0.7214
  347TIP3   OH2  993   7.455   4.194   5.351 -0.0937  0.1449  0.4870
  347TIP3    H1  994   7.535   4.231   5.313 -0.8502  1.3262  0.0245
  347TIP3    H2  995   7.451   4.230   5.439 -0.4998  0.6714  0.2557
  348TIP3   OH2  996   4.220   2.722   0.684 -0.0398  0.2015  0.1014
  348TIP3    H1  997   4.184   2.738   0.771  1.5775  0.2271  0.7940
  348TIP3    H2  998   4.221   2.627   0.675 -0.2082  0.1991  0.1166
  349TIP3   OH2  999   0.711   2.529   2.267 -0.0746  0.0328  0.3411
  349TIP3    H1 1000   0.643   2.594   2.284  0.9391  0.9775  0.8387
  349TIP3    H2 1001   0.664   2.446   2.256 -1.3276  0.7578  0.2469
  350TIP3   OH2 1002   1.822   1.269   0.766 -0.3834  0.2033 -0.3567
  350TIP3    H1 1003   1.917   1.283   0.759 -0.1904 -1.2775 -0.9342
  350TIP3    H2 1004   1.808   1.183   0.726 -1.9531  0.3362 -0.1102
  351TIP3   OH2 1005   1.259   7.172   2.098 -0.1097  1.6130 -0.8609
  351TIP3    H1 1006   1.347   7.151   2.067  0.1810  1.2002  0.2233
  351TIP3    H2 1007   1.206   7.177   2.018  0.4013 -0.4760 -1.3734
  352TIP3   OH2 1008   5.354   7.182   5.594 -0.1195  0.5081  0.0415
  352TIP3    H1 1009   5.345   7.090   5.569  0.5650  0.1370  1.1367
  352TIP3    H2 1010   5.266   7.207   5.622 -0.3266  0.2157 -0.3402
  353TIP3   OH2 1011   3.041   2.199   1.717  0.2153 -0.5214  0.0619
  353TIP3    H1 1012   3.012   2.263   1.783  1.2867  0.1281 -0.0865
  353TIP3    H2 1013   3.041   2.115   1.764 -0.9257 -0.3782  0.3404
  354TIP3   OH2 1014   6.001   4.424   5.451  0.1796 -0.2700 -0.3052
  354TIP3    H1 1015   6.057   4.376   5.511  0.1053 -0.0423 -0.0504
  354TIP3    H2 1016   6.056   4.493   5.415  0.0932 -0.1067 -0.1289
  355TIP3   OH2 1017   3.100   5.153   6.418 -0.1820 -0.3068  0.4418
  355TIP3    H1 1018   3.043   5.225   6.444  0.0368  0.1244 -0.2680
  355TIP3    H2 1019   3.185   5.173   6.457 -0.1512 -0.2398  0.3404
  356TIP3   OH2 1020   7.697   4.997   5.819  0.1437  0.1152  0.1196
  356TIP3    H1 1021   7.779   5.022   5.777  0.5818  1.2786  1.6190
  356TIP3    H2 1022   7.657   4.935   5.758  3.0727 -2.0302  0.3032
  357TIP3   OH2 1023   2.079   2.941   1.051  0.4284  0.2225 -0.3188
  357TIP3    H1 1024   2.136   2.901   0.985 -0.2083  1.8578 -1.8728
  357TIP3    H2 1025   1.990   2.915   1.026  0.3357 -1.2167  1.3496
  358TIP3   OH2 1026   2.582   1.700   2.959 -0.6115 -0.2843  0.2567
  358TIP3    H1 1027   2.499   1.699   2.913 -0.6637 -1.5539  0.3393
  358TIP3    H2 1028   2.611   1.608   2.957  1.4565  0.3684 -1.0058
  359TIP3   OH2 1029   7.849   4.246   5.880 -0.1294  0.0279  0.3310
  359TIP3    H1 1030   7.848   4.185   5.806  0.0415  2.0295 -1.4067
  359TIP3    H2 1031   7.938   4.280   5.882  0.3892 -1.4231  2.7053
  360TIP3   OH2 1032   3.611   1.029   2.209 -0.2764  0.4991  0.9338
  360TIP3    H1 1033   3.629   1.123   2.207 -0.2391  0.4939  1.0767
  360TIP3    H2 1034   3.600   1.005   2.116 -1.2475  0.8301  0.9624
  361TIP3   OH2 1035   3.707   3.435   1.296  0.1419  0.0228  0.3178
  361TIP3    H1 1036   3.641   3.368   1.318  0.6600 -0.4717  0.3913
  361TIP3    H2 1037   3.674   3.515   1.336 -0.0680 -0.3790  0.9658
  362TIP3   OH2 1038   4.446   1.792   1.860 -0.0580  0.1762 -0.1812
  362TIP3    H1 1039   4.496   1.844   1.923 -0.0759  1.0004 -0.8292
  362TIP3    H2 1040   4.513   1.754   1.803 -0.1679  1.6482 -1.3285
  363TIP3   OH2 1041   5.147   6.943   5.175  0.2567 -0.1760 -0.1518
  363TIP3    H1 1042   5.095   6.989   5.110  0.4010 -0.2711 -0.3380
  363TIP3    H2 1043   5.185   7.012   5.230  2.2234  0.0738 -1.7587
  364TIP3   OH2 1044   4.155   2.078   0.916 -0.9218  0.4517  0.1633
  364TIP3    H1 1045   4.192   1.991   0.929 -0.6854  0.4712 -0.3837
  364TIP3    H2 1046   4.184   2.104   0.829 -0.2830  1.4365  0.6718
  365TIP3   OH2 1047   5.329   6.936   5.514  0.0046  0.1761  0.1019
  365TIP3    H1 1048   5.267   6.863   5.523 -0.4794  0.4040 -1.3208
  365TIP3    H2 1049   5.399   6.902   5.459 -1.4066  1.5064 -2.5887
  366TIP3   OH2 1050   6.874   6.991   3.129  0.0127  0.2450 -0.0743
  366TIP3    H1 1051   6.795   7.022   3.086  0.2309 -1.6986 -1.9411
  366TIP3    H2 1052   6.946   7.028   3.078  0.2812 -0.8280 -0.4870
  367TIP3   OH2 1053   5.107   1.731   1.621 -0.0001  0.1883 -0.1866
  367TIP3    H1 1054   5.125   1.803   1.561 -0.3683  0.7196  0.3331
  367TIP3    H2 1055   5.013   1.714   1.609  0.2296 -0.6921 -0.8342
  368TIP3   OH2 1056   2.630   0.682   0.774  0.2293 -0.0300 -0.3700
  368TIP3    H1 1057   2.626   0.605   0.830  0.3364 -0.0416 -0.3793
  368TIP3    H2 1058   2.691   0.742   0.818 -0.3983  0.3436  0.0054
  369TIP3   OH2 1059   2.892   7.056   1.867 -0.0701 -0.0439 -1.0533
  369TIP3    H1 1060   2.922   7.019   1.783 -1.7479 -0.4146 -1.5055
  369TIP3    H2 1061   2.856   6.981   1.914  0.4517  0.2530 -0.1739
  370TIP3   OH2 1062   4.990   0.900   2.912  0.2624 -0.3125 -0.0575
  370TIP3    H1 1063   4.922   0.878   2.975 -1.1985  2.1623 -0.6878
  370TIP3    H2 1064   5.039   0.972   2.953 -0.6700  1.2860 -1.6450
  371TIP3   OH2 1065   4.436   4.037   1.638 -0.2146  0.1329  0.1023
  371TIP3    H1 1066   4.383   4.018   1.716 -0.7177 -1.2221 -0.5505
  371TIP3    H2 1067   4.508   4.090   1.671 -0.7852  0.1511  1.3818
  372TIP3   OH2 1068   7.180   5.968   4.610 -0.2308  0.4711 -0.8273
  372TIP3    H1 1069   7.168   5.931   4.523  0.9934  0.1400 -0.8614
  372TIP3    H2 1070   7.246   5.912   4.652 -1.3770  0.1516  0.5970
  373TIP3   OH2 1071   4.760   0.811   1.578 -0.3807  0.4021  0.5412
  373TIP3    H1 1072   4.831   0.868   1.608  0.3317 -0.4305  0.4643
  373TIP3    H2 1073   4.804   0.730   1.553 -1.3961 -0.2208  0.7550
  374TIP3   OH2 1074   0.737   4.337   6.290 -0.4432  0.4421  0.3836
  374TIP3    H1 1075   0.754   4.362   6.380 -0.4282  1.0655  0.2147
  374TIP3    H2 1076   0.735   4.242   6.291  1.3641  0.3891  0.7038
  375TIP3   OH2 1077   1.202   2.222   0.069 -0.5818  0.3707  0.0836
  375TIP3    H1 1078   1.165   2.150   0.017 -0.1528  0.0271  0.2456
  375TIP3    H2 1079   1.136   2.238   0.137  0.3375 -1.4415  1.4440
  376TIP3   OH2 1080   2.675   0.481   1.252  0.4659 -0.1865  0.8787
  376TIP3    H1 1081   2.623   0.550   1.294  1.1524  0.4744  0.6620
  376TIP3    H2 1082   2.685   0.414   1.320  1.1104  0.6348  1.6132
  377TIP3   OH2 1083   4.831   0.714   1.935  0.2139 -0.3786  0.2167
  377TIP3    H1 1084   4.851   0.738   2.025 -0.7165  1.5728 -0.0801
  377TIP3    H2 1085   4.881   0.775   1.881 -1.5727  0.4757 -0.5511
  378TIP3   OH2 1086   2.379   7.024   1.147  0.5516  0.5122 -0.1312
  378TIP3    H1 1087   2.296   6.984   1.120  0.8005 -0.9904  1.2834
  378TIP3    H2 1088   2.355   7.113   1.173 -0.4053  0.4870 -0.8887
  379TIP3   OH2 1089   3.163   1.914   4.088 -0.0600 -0.1965  0.1506
  379TIP3    H1 1090   3.159   1.832   4.136 -1.4411  0.1907  0.7354
  379TIP3    H2 1091   3.106   1.973   4.137 -0.8234  0.4597 -1.4769
  380TIP3   OH2 1092   4.075   4.893   4.366 -0.5322 -0.0778  0.1841
  380TIP3    H1 1093   4.093   4.957   4.297 -0.2206 -1.0563 -0.6513
  380TIP3    H2 1094   3.989   4.857   4.343 -0.4571 -0.3623  0.3439
  381TIP3   OH2 1095   3.931   1.508   1.834  0.5122  0.0901 -0.6524
  381TIP3    H1 1096   3.911   1.470   1.920  1.0724 -1.4477 -1.1805
  381TIP3    H2 1097   3.956   1.598   1.852 -0.4333  0.0987  0.6882
  382TIP3   OH2 1098   5.952   3.834   4.400  0.4230  0.1608  0.3073
  382TIP3    H1 1099   5.892   3.805   4.469  1.4290 -1.1342  0.6420
  382TIP3    H2 1100   5.998   3.908   4.438  0.5773 -0.2025  0.8356
  383TIP3   OH2 1101   1.962   1.399   2.964 -0.5170 -0.2383 -0.5140
  383TIP3    H1 1102   1.927   1.457   3.032  0.5014  1.2505 -1.2445
  383TIP3    H2 1103   1.985   1.318   3.011 -0.7140  0.4131  0.7338
  384TIP3   OH2 1104   6.130   5.517   6.164 -0.3908  0.1413  0.2199
  384TIP3    H1 1105   6.196   5.562   6.218 -0.6825 -1.6527  2.1447
  384TIP3    H2 1106   6.065   5.485   6.227 -2.3531  0.6228 -1.5212
  385TIP3   OH2 1107   0.485   6.715   2.539  0.0705  0.4208  0.0484
  385TIP3    H1 1108   0.562   6.731   2.484  0.3564 -0.0566  0.3117
  385TIP3    H2 1109   0.474   6.796   2.589  1.2835 -0.0541  1.0924
  386TIP3   OH2 1110   5.254   2.299   2.387 -0.2746 -0.1835  0.0246
  386TIP3    H1 1111   5.204   2.334   2.461 -2.1620 -2.1734 -0.2479
  386TIP3    H2 1112   5.222   2.347   2.311  1.3185  1.5196  0.3876
  387TIP3   OH2 1113   4.951   2.483   2.332  0.1973  0.1962  0.1261
  387TIP3    H1 1114   4.892   2.540   2.283 -3.1761 -3.8019 -0.7223
  387TIP3    H2 1115   5.017   2.457   2.269 -0.3400  0.2934 -0.4848
  388TIP3   OH2 1116   4.513   2.182   3.647 -0.0511 -0.1153  0.2814
  388TIP3    H1 1117   4.518   2.253   3.711  0.9875  0.6907 -0.6865
  388TIP3    H2 1118   4.528   2.225   3.563 -0.0481 -1.3905 -0.3679
  389TIP3   OH2 1119   2.242   3.678   1.192 -0.0315 -0.4487 -0.1433
  389TIP3    H1 1120   2.269   3.739   1.124  0.5867  0.8493  1.2519
  389TIP3    H2 1121   2.291   3.598   1.173  0.4171  0.0257 -1.0061
  390TIP3   OH2 1122   3.956   1.917   1.293 -0.2479  0.3933 -0.2620
  390TIP3    H1 1123   4.025   1.981   1.275  0.1469 -0.0975 -0.5020
  390TIP3    H2 1124   3.878   1.954   1.252 -0.2023  1.1059  0.2919
  391TIP3   OH2 1125   1.722   1.569   0.999  0.1410 -1.1744  0.5145
  391TIP3    H1 1126   1.731   1.569   0.904  1.8099 -0.3640  0.6571
  391TIP3    H2 1127   1.677   1.486   1.019  0.2380 -1.5862 -0.9226
  392TIP3   OH2 1128   6.031   5.323   5.584 -0.1498 -0.3711  0.1422
  392TIP3    H1 1129   5.954   5.269   5.604  0.2734 -1.1058 -0.2202
  392TIP3    H2 1130   6.098   5.292   5.644 -0.3468  0.7821  0.9787
  393TIP3   OH2 1131   2.602   1.181   1.782 -0.3019  0.2082  0.5674
  393TIP3    H1 1132   2.553   1.152   1.705 -1.2695  1.2866  0.7704
  393TIP3    H2 1133   2.679   1.225   1.746 -0.3359 -0.0030  0.2301
  394TIP3   OH2 1134   0.884   7.261   6.066 -0.3130 -0.1371 -0.0144
  394TIP3    H1 1135   0.977   7.283   6.078 -0.1132 -1.8613  1.9013
  394TIP3    H2 1136   0.867   7.279   5.974  1.5882  1.4269 -0.0976
  395TIP3   OH2 1137   6.175   4.872   5.251 -0.6966  0.2149  0.2426
  395TIP3    H1 1138   6.132   4.946   5.209 -0.9517 -1.2204 -2.1249
  395TIP3    H2 1139   6.262   4.869   5.210 -0.7018 -0.8058  0.2968
  396TIP3   OH2 1140   6.760   6.048   6.117 -0.4020 -0.9916 -0.2877
  396TIP3    H1 1141   6.746   6.068   6.024  0.7606 -0.1163 -0.2892
  396TIP3    H2 1142   6.855   6.055   6.128 -0.7731  1.4781  1.5594
  397TIP3   OH2 1143   2.332   3.013   0.730 -0.4909  0.2231 -0.4686
  397TIP3    H1 1144   2.295   2.945   0.786  1.8102  0.0541  0.9531
  397TIP3    H2 1145   2.379   2.966   0.661  0.6302  0.3314  0.1955
  398TIP3   OH2 1146   4.678   2.224   0.066 -0.3389  0.0002  0.5213
  398TIP3    H1 1147   4.588   2.249   0.046  0.6088  1.7810 -1.6996
  398TIP3    H2 1148   4.711   2.296   0.121  0.3214  0.3150 -0.2837
  399TIP3   OH2 1149   6.822   3.188   4.371 -0.0093 -0.4198  0.0508
  399TIP3    H1 1150   6.797   3.114   4.316  0.0131 -0.2654 -0.1682
  399TIP3    H2 1151   6.739   3.226   4.399 -0.0236 -0.7393  0.4530
  400TIP3   OH2 1152   4.356   3.032   1.702 -0.6730  0.3402 -0.2835
  400TIP3    H1 1153   4.297   3.093   1.747 -1.1836 -0.0600 -0.4074
  400TIP3    H2 1154   4.395   3.084   1.632  0.4374  1.0838  0.8751
  401TIP3   OH2 1155   6.160   6.157   5.031  0.1937 -0.4031  0.1906
  401TIP3    H1 1156   6.119   6.105   5.100  0.7241 -0.2266  0.6402
  401TIP3    H2 1157   6.115   6.241   5.034 -2.3444 -1.6310 -2.1480
  402TIP3   OH2 1158   4.124   2.379   0.248 -0.2698  0.0047 -0.2689
  402TIP3    H1 1159   4.068   2.388   0.170 -0.1168  0.1346 -0.3627
  402TIP3    H2 1160   4.211   2.362   0.213  0.0020  1.1132 -0.1491
  403TIP3   OH2 1161   2.969   2.377   0.384  0.4460 -0.4605  0.4742
  403TIP3    H1 1162   2.955   2.406   0.474  0.4197  0.6841  0.1154
  403TIP3    H2 1163   3.041   2.431   0.352 -1.3045  1.0680 -1.0489
  404TIP3   OH2 1164   5.496   7.383   5.488 -0.5283 -0.3087  0.1150
  404TIP3    H1 1165   5.449   7.321   5.545  0.9454 -1.3444  0.2313
  404TIP3    H2 1166   5.566   7.331   5.449  0.9278  1.3614  0.4488
  405TIP3   OH2 1167   0.344   0.104   5.905 -0.3219 -0.1786  0.1077
  405TIP3    H1 1168   0.419   0.044   5.910 -0.4569 -0.5075 -1.7218
  405TIP3    H2 1169   0.275   0.060   5.954 -0.1952 -1.1841 -0.6155
  406TIP3   OH2 1170   2.450   2.286   5.256  0.1325  0.2792  0.7310
  406TIP3    H1 1171   2.495   2.285   5.172  0.0655  2.8281  0.6348
  406TIP3    H2 1172   2.518   2.307   5.320  0.0452 -0.9209  1.2237
  407TIP3   OH2 1173   3.480   1.663   0.831 -0.0118 -0.1349  0.6059
  407TIP3    H1 1174   3.554   1.613   0.867  0.3568  0.2616  0.4112
  407TIP3    H2 1175   3.516   1.705   0.753 -0.0907  1.0608  1.1904
  408TIP3   OH2 1176   4.673   5.365   5.885 -0.4895  0.2556  0.0537
  408TIP3    H1 1177   4.685   5.460   5.872  0.4333  0.2274  0.6344
  408TIP3    H2 1178   4.580   5.355   5.902 -0.4027  1.2168  1.1970
  409TIP3   OH2 1179   3.232   1.934   1.118 -0.0976 -0.4878 -0.5006
  409TIP3    H1 1180   3.252   1.841   1.111  0.6584 -0.3053 -0.8338
  409TIP3    H2 1181   3.309   1.978   1.083 -0.4431  0.2664 -0.3329
  410TIP3   OH2 1182   7.321   7.104   4.861 -0.0402  0.2633 -0.2559
  410TIP3    H1 1183   7.376   7.162   4.915 -0.3705  1.0357 -0.7414
  410TIP3    H2 1184   7.383   7.061   4.802  0.3697 -0.8442  0.9622
  411TIP3   OH2 1185   2.471   2.260   1.178 -0.3674  0.1740 -0.0719
  411TIP3    H1 1186   2.395   2.216   1.217  0.1627  0.9690  1.9288
  411TIP3    H2 1187   2.444   2.279   1.088 -2.5629  0.4749  0.6192
  412TIP3   OH2 1188   6.970   6.746   2.973  0.4215  0.3428 -0.2867
  412TIP3    H1 1189   6.911   6.793   3.032 -0.6173  0.1415 -1.1692
  412TIP3    H2 1190   6.986   6.663   3.018  0.3915  0.5716  0.1566
  413TIP3   OH2 1191   2.872   3.202   0.676  0.2323  0.4080 -0.0578
  413TIP3    H1 1192   2.794   3.211   0.730 -0.1430  0.2125 -0.5693
  413TIP3    H2 1193   2.897   3.110   0.684  0.3963  0.4649  0.0869
  414TIP3   OH2 1194   6.647   5.638   4.631  0.1397 -0.0953 -0.2981
  414TIP3    H1 1195   6.626   5.723   4.671 -0.7357 -0.2839 -0.3492
  414TIP3    H2 1196   6.597   5.575   4.682  0.8059 -0.5878 -0.2508
  415TIP3   OH2 1197   5.671   4.302   5.967 -0.1353  0.2746 -0.2465
  415TIP3    H1 1198   5.660   4.271   5.877  0.6348 -0.0796 -0.2267
  415TIP3    H2 1199   5.662   4.223   6.021  2.8290 -0.1448 -0.2620
  416TIP3   OH2 1200   5.616   2.934   0.227 -0.3826 -0.4202 -0.2002
  416TIP3    H1 1201   5.637   2.932   0.133 -1.3420  1.0179 -0.4471
  416TIP3    H2 1202   5.657   3.014   0.259 -1.1483 -0.2470  0.3534
  417TIP3   OH2 1203   4.096   1.002   1.472 -0.4627  0.3157 -0.3268
  417TIP3    H1 1204   4.051   0.919   1.461  0.0542  0.0903 -0.7350
  417TIP3    H2 1205   4.038   1.067   1.433 -0.6432  0.0881 -0.4334
  418TIP3   OH2 1206   0.771   2.367   6.266 -0.2522 -0.3998  0.0273
  418TIP3    H1 1207   0.812   2.282   6.281  1.3409  0.5846  1.5680
  418TIP3    H2 1208   0.771   2.378   6.171  1.2455 -1.3067 -0.0856
  419TIP3   OH2 1209   2.380   0.841   0.286  0.3945 -0.0384  0.4176
  419TIP3    H1 1210   2.458   0.846   0.230 -0.7279  0.6678 -1.1441
  419TIP3    H2 1211   2.379   0.751   0.317 -0.0300 -1.0723 -2.3799
  420TIP3   OH2 1212   2.825   0.662   1.451  0.2291 -0.0191 -0.4907
  420TIP3    H1 1213   2.743   0.679   1.497 -0.0340 -1.9982 -0.1876
  420TIP3    H2 1214   2.814   0.707   1.367 -1.1704 -0.2381 -0.4449
  421TIP3   OH2 1215   1.326   6.317   2.150  1.0724 -0.6622  0.1625
  421TIP3    H1 1216   1.279   6.237   2.126  0.7156 -0.2157 -0.6432
  421TIP3    H2 1217   1.388   6.289   2.218 -0.1575 -1.2991  1.0359
  422TIP3   OH2 1218   2.655   1.108   0.282  0.1277 -0.2423 -0.1606
  422TIP3    H1 1219   2.605   1.115   0.364  2.0801 -1.9976  1.2406
  422TIP3    H2 1220   2.711   1.185   0.281  2.9118 -2.1026  2.2039
  423TIP3   OH2 1221   5.967   5.886   5.798  0.3034 -0.7952  0.2106
  423TIP3    H1 1222   5.979   5.798   5.835  0.2907 -0.8014  0.2001
  423TIP3    H2 1223   5.985   5.945   5.871 -0.2626 -0.8199  0.3691
  424TIP3   OH2 1224   4.945   1.068   0.135  0.4299 -0.1104  0.1872
  424TIP3    H1 1225   4.995   1.011   0.076 -0.2727 -0.4830 -0.0665
  424TIP3    H2 1226   4.864   1.018   0.152 -1.5036  1.9915 -2.3429
  425TIP3   OH2 1227   3.557   2.479   0.951 -0.1408  0.1965  0.0276
  425TIP3    H1 1228   3.558   2.509   0.860 -1.6970 -1.7378 -0.6734
  425TIP3    H2 1229   3.644   2.441   0.964 -0.4600 -0.9847 -1.1800
  426TIP3   OH2 1230   1.830   2.354   0.083  0.7853 -0.5054  0.1620
  426TIP3    H1 1231   1.898   2.291   0.058 -1.1041 -3.8676  3.0223
  426TIP3    H2 1232   1.755   2.331   0.028 -0.1831 -1.3992  1.8120
  427TIP3   OH2 1233   6.435   6.668   4.984  0.5099 -0.0001 -0.1203
  427TIP3    H1 1234   6.357   6.660   4.929  0.1452 -2.2106  0.6525
  427TIP3    H2 1235   6.505   6.628   4.933  0.5385 -0.5143  0.3194
  428TIP3   OH2 1236   4.919   1.371   2.033  0.0547  0.5533  0.3396
  428TIP3    H1 1237   4.866   1.312   2.086 -1.1819  0.5035 -0.9039
  428TIP3    H2 1238   4.864   1.448   2.020  1.0341  1.3054  0.6179
  429TIP3   OH2 1239   6.106   6.857   5.200  0.4801 -0.2904  0.2018
  429TIP3    H1 1240   6.103   6.898   5.286  1.3953 -0.7543  0.4578
  429TIP3    H2 1241   6.055   6.916   5.144  0.4528  0.3652  0.9069
  430TIP3   OH2 1242   1.728   0.046   5.780  0.0875  0.2862 -0.3187
  430TIP3    H1 1243   1.785   0.116   5.749  0.1682  0.4006  0.0925
  430TIP3    H2 1244   1.766   0.018   5.863  1.8770 -2.3893 -1.9521
  431TIP3   OH2 1245   1.923   4.381   1.862 -0.2857  0.3844 -0.0343
  431TIP3    H1 1246   1.994   4.361   1.801  0.4526  0.2020  0.8796
  431TIP3    H2 1247   1.846   4.392   1.806  0.1735 -0.7874 -0.9179
  432TIP3   OH2 1248   7.343   6.307   5.964  0.8630  0.0912  0.6802
  432TIP3    H1 1249   7.258   6.322   6.006 -0.1144  1.6317 -1.7339
  432TIP3    H2 1250   7.383   6.394   5.961  1.3428 -0.1666 -0.6068
  433TIP3   OH2 1251   6.676   4.479   5.546 -0.1861  0.5876  0.1807
  433TIP3    H1 1252   6.712   4.471   5.458  0.1177 -0.1053  0.3633
  433TIP3    H2 1253   6.676   4.573   5.563 -0.6627  0.7617 -0.7254
  434TIP3   OH2 1254   1.696   1.895   2.204 -0.1442  0.6475  0.4547
  434TIP3    H1 1255   1.642   1.834   2.254 -0.6751  1.3152  0.7012
  434TIP3    H2 1256   1.705   1.855   2.118 -0.6784  0.3324  0.5457
  435TIP3   OH2 1257   2.946   1.628   2.485 -0.3461 -0.3948  0.6696
  435TIP3    H1 1258   2.912   1.612   2.574 -2.8646 -0.1057 -0.2009
  435TIP3    H2 1259   2.893   1.571   2.429 -0.4933  1.2896 -0.9337
  436TIP3   OH2 1260   3.942   0.784   0.126  0.0781 -0.3639  0.3092
  436TIP3    H1 1261   3.942   0.860   0.067 -0.6849 -0.3387  0.3325
  436TIP3    H2 1262   4.022   0.737   0.104  0.8401  0.7384  0.6742
  437TIP3   OH2 1263   3.449   1.927   1.658  0.2599  0.1292  0.4577
  437TIP3    H1 1264   3.355   1.909   1.666 -0.1307  2.0966  0.5677
  437TIP3    H2 1265   3.475   1.956   1.745  0.1416  3.2138 -0.4891
  438TIP3   OH2 1266   3.993   0.348   2.016  0.0597  0.1702 -0.0685
  438TIP3    H1 1267   3.919   0.379   1.964 -1.7192 -2.7164  0.6301
  438TIP3    H2 1268   3.968   0.260   2.044  1.1912  1.3920  5.2030
  439TIP3   OH2 1269   6.295   5.689   5.894 -0.6365  0.1506  0.0928
  439TIP3    H1 1270   6.331   5.713   5.809 -1.0583  0.3210 -0.0377
  439TIP3    H2 1271   6.216   5.639   5.874 -0.4074 -0.3391  0.3790
  440TIP3   OH2 1272   4.617   1.266   3.160  0.4523  0.0846  0.0068
  440TIP3    H1 1273   4.665   1.194   3.202 -0.3618 -0.8421 -0.6564
  440TIP3    H2 1274   4.582   1.316   3.234 -0.2779 -1.0707  0.4677
  441TIP3   OH2 1275   3.455   0.337   1.352  0.0618  0.2622 -0.1871
  441TIP3    H1 1276   3.529   0.321   1.411 -0.6187 -0.6803  0.4190
  441TIP3    H2 1277   3.377   0.325   1.406 -0.5460  2.4819 -0.5129
  442TIP3   OH2 1278   4.958   2.042   3.505  0.7517 -0.0627 -0.3341
  442TIP3    H1 1279   4.892   1.981   3.473 -1.2820  2.1957 -0.5864
  442TIP3    H2 1280   4.947   2.042   3.600 -0.2583  0.9808 -0.4380
  443TIP3   OH2 1281   7.635   5.940   5.912 -0.5056  0.4472  0.0325
  443TIP3    H1 1282   7.646   5.944   6.007 -1.0151  0.4965  0.0866
  443TIP3    H2 1283   7.641   6.031   5.883 -0.7721  0.4750  0.0627
  444TIP3   OH2 1284   6.996   4.234   5.728  0.4635  0.3459  0.0113
  444TIP3    H1 1285   6.984   4.303   5.793  0.3582  0.0896  0.2653
  444TIP3    H2 1286   7.087   4.246   5.698  0.6416  0.2144  0.4968
  445TIP3   OH2 1287   3.807   1.910   1.046  0.7941 -0.1212  0.3278
  445TIP3    H1 1288   3.822   1.989   0.994 -1.7324 -0.8329 -1.5769
  445TIP3    H2 1289   3.716   1.917   1.075  1.3485 -1.0621  2.4287
  446TIP3   OH2 1290   6.496   6.250   5.781 -0.3395  0.1966 -0.6183
  446TIP3    H1 1291   6.461   6.161   5.790  0.0662  0.1317  0.4369
  446TIP3    H2 1292   6.556   6.245   5.707  0.3079 -0.6212 -0.0452
  447TIP3   OH2 1293   5.338   1.893   1.842 -0.2221 -0.5012  0.4070
  447TIP3    H1 1294   5.253   1.937   1.842 -1.2657 -2.4431 -0.1495
  447TIP3    H2 1295   5.317   1.802   1.862  1.3568 -1.6522 -2.8443
  448TIP3   OH2 1296   3.013   7.244   2.015 -0.3698 -0.1245  0.0529
  448TIP3    H1 1297   2.978   7.171   1.964 -1.1499  0.3053 -0.0320
  448TIP3    H2 1298   2.938   7.279   2.062  0.2592 -0.2183  1.1321
  449TIP3   OH2 1299   4.452   2.995   2.758  0.0471 -0.3017  0.3661
  449TIP3    H1 1300   4.408   3.007   2.674  1.3928 -1.5912 -0.5592
  449TIP3    H2 1301   4.545   2.990   2.735  0.4831 -0.1063  2.0089
  450TIP3   OH2 1302   3.563   0.558   0.601 -0.0876 -0.7639  0.4473
  450TIP3    H1 1303   3.469   0.570   0.597  0.2216  2.2513  1.4310
  450TIP3    H2 1304   3.584   0.564   0.694  1.1924 -0.5065  0.1488
  451TIP3   OH2 1305   2.971   7.338   4.411  0.1600  0.1371  1.0084
  451TIP3    H1 1306   2.910   7.290   4.467  1.2169  0.5587  2.5711
  451TIP3    H2 1307   2.929   7.423   4.397  0.4892  0.5243  2.2989
  452TIP3   OH2 1308   2.889   1.241   2.033  0.2079 -0.2484  0.0855
  452TIP3    H1 1309   2.898   1.323   1.983  0.8134 -0.7970 -0.7176
  452TIP3    H2 1310   2.968   1.192   2.012  0.4843 -0.4842  1.6163
  453TIP3   OH2 1311   2.792   2.840   3.695  0.1647 -0.0386  0.2384
  453TIP3    H1 1312   2.760   2.814   3.608 -0.0655 -0.3209  0.4046
  453TIP3    H2 1313   2.887   2.838   3.688  0.1562 -1.3175  0.3553
  454TIP3   OH2 1314   4.456   3.168   6.256  0.0269 -0.3838 -0.3675
  454TIP3    H1 1315   4.537   3.147   6.302 -0.1408 -1.0131 -0.3623
  454TIP3    H2 1316   4.447   3.263   6.266 -0.0757 -0.5169  1.0194
  455TIP3   OH2 1317   2.721   7.250   1.077 -0.0831  0.3530  0.2275
  455TIP3    H1 1318   2.671   7.275   1.154 -2.2201 -0.2501 -0.9278
  455TIP3    H2 1319   2.689   7.163   1.054  1.2039  0.1205 -0.7894
  456TIP3   OH2 1320   4.918   0.183   3.630 -0.1252  0.0648  0.7073
  456TIP3    H1 1321   4.925   0.095   3.592  1.1660  0.2616  0.4452
  456TIP3    H2 1322   4.881   0.237   3.559  1.1207  0.1742  0.1272
  457TIP3   OH2 1323   5.090   4.305   5.608 -0.2414  0.5908 -0.0443
  457TIP3    H1 1324   5.042   4.346   5.680  0.2946 -0.6417  1.0246
  457TIP3    H2 1325   5.023   4.288   5.542 -0.7279  1.7805  0.1336
  458TIP3   OH2 1326   1.217   5.279   3.062 -0.0666 -0.1192  0.1303
  458TIP3    H1 1327   1.205   5.187   3.086  0.0340  0.3662  2.2105
  458TIP3    H2 1328   1.177   5.327   3.135  1.6458  1.4841  0.0411
  459TIP3   OH2 1329   1.386   2.158   0.564 -0.3125 -0.6341  0.0302
  459TIP3    H1 1330   1.350   2.111   0.639 -2.1024  0.0224 -0.4089
  459TIP3    H2 1331   1.322   2.147   0.494  1.7714 -2.0452 -1.7430
  460TIP3   OH2 1332   5.148   1.510   0.997 -0.5140  0.1278 -0.3527
  460TIP3    H1 1333   5.199   1.491   0.918 -0.2530 -0.9295  0.0529
  460TIP3    H2 1334   5.156   1.605   1.009 -1.4364  0.4598 -2.1801
  461TIP3   OH2 1335   4.061   2.142   0.415 -1.6346 -0.4423 -0.3658
  461TIP3    H1 1336   4.106   2.206   0.360  0.1580 -0.1178  1.4111
  461TIP3    H2 1337   4.099   2.058   0.390 -0.6984 -0.2764  0.4561
  462TIP3   OH2 1338   4.979   0.154   2.932 -0.1741  0.9371  0.2766
  462TIP3    H1 1339   4.897   0.182   2.973  0.4233  1.1900  1.3273
  462TIP3    H2 1340   4.990   0.213   2.858 -0.8750  0.9869  0.2108
  463TIP3   OH2 1341   7.623   6.549   3.148 -0.0657  0.4642 -0.0943
  463TIP3    H1 1342   7.653   6.458   3.140  0.5252  0.7992 -1.8557
  463TIP3    H2 1343   7.531   6.541   3.171  0.2348 -0.5878  0.7908
  464TIP3   OH2 1344   4.287   5.503   5.483  0.0104  0.2613  0.1544
  464TIP3    H1 1345   4.258   5.424   5.528  0.7851 -0.9478 -1.3864
  464TIP3    H2 1346   4.383   5.498   5.486  0.0600  0.7255 -0.6201
  465TIP3   OH2 1347   4.248   2.781   1.421  0.0152  0.0250  0.0274
  465TIP3    H1 1348   4.309   2.708   1.422 -0.1108 -0.0772  0.9954
  465TIP3    H2 1349   4.187   2.762   1.492 -1.2616  0.0328 -1.0523
  466TIP3   OH2 1350   6.214   6.705   6.201 -0.2540  0.4307  0.5473
  466TIP3    H1 1351   6.184   6.682   6.289 -1.7417  0.3311  0.0272
  466TIP3    H2 1352   6.145   6.762   6.166  0.6061  0.9478 -0.3439
  467TIP3   OH2 1353   6.668   5.684   6.368  0.4235  0.2711  0.5637
  467TIP3    H1 1354   6.677   5.671   6.463 -0.1178 -1.2396  0.4232
  467TIP3    H2 1355   6.576   5.707   6.356  0.6872  1.3230  0.4814
  468TIP3   OH2 1356   3.104   6.064   0.606 -0.3974 -0.1869 -0.4255
  468TIP3    H1 1357   3.065   6.109   0.531  1.4609 -0.2723 -1.4832
  468TIP3    H2 1358   3.139   6.135   0.660  0.1842 -0.2226 -0.7496
  469TIP3   OH2 1359   2.827   1.296   1.644 -0.5701 -0.0920 -0.7740
  469TIP3    H1 1360   2.918   1.271   1.627 -0.5208 -0.4406 -0.0213
  469TIP3    H2 1361   2.797   1.335   1.562 -0.4992 -2.1782 -1.8199
  470TIP3   OH2 1362   4.314   2.493   0.916  0.6023  0.3696 -0.4834
  470TIP3    H1 1363   4.401   2.531   0.928  0.6720  0.0371  0.1262
  470TIP3    H2 1364   4.330   2.408   0.876  0.6710 -0.3082  0.9429
  471TIP3   OH2 1365   5.133   3.250   1.876 -0.0284  0.2759  0.5380
  471TIP3    H1 1366   5.215   3.216   1.913  0.7489  1.9777  0.4180
  471TIP3    H2 1367   5.077   3.265   1.952 -0.5476 -1.6515  0.5645
  472TIP3   OH2 1368   4.520   0.891   5.153  0.1570 -0.1450 -0.1548
  472TIP3    H1 1369   4.433   0.901   5.113 -0.2957 -1.1002  0.5672
  472TIP3    H2 1370   4.522   0.956   5.223 -0.7356 -1.4006  1.0776
  473TIP3   OH2 1371   6.235   6.788   5.873 -0.1423  0.0416 -0.1384
  473TIP3    H1 1372   6.262   6.775   5.782 -0.5908  1.3118 -0.4695
  473TIP3    H2 1373   6.316   6.782   5.923 -0.3710 -4.7518 -0.1162
  474TIP3   OH2 1374   6.358   6.015   5.809  0.0860  0.1396 -0.3780
  474TIP3    H1 1375   6.373   5.978   5.896  0.6484 -1.3458 -1.0940
  474TIP3    H2 1376   6.309   5.947   5.762 -0.1894  0.9196 -1.2291
  475TIP3   OH2 1377   4.266   2.115   2.992 -0.1755 -0.1433  0.0924
  475TIP3    H1 1378   4.290   2.023   3.006  0.0912 -0.2011 -0.7158
  475TIP3    H2 1379   4.177   2.122   3.026 -0.3321 -0.7945 -0.1829
  476TIP3   OH2 1380   3.387   0.137   2.774  0.6590  0.6832  0.0020
  476TIP3    H1 1381   3.400   0.051   2.734 -0.7292 -0.0070  0.9652
  476TIP3    H2 1382   3.301   0.130   2.816  0.9992  2.1986  0.9698
  477TIP3   OH2 1383   4.868   1.062   0.847  0.0660 -0.2681 -0.1098
  477TIP3    H1 1384   4.915   1.140   0.817  1.1788 -1.6231 -1.9907
  477TIP3    H2 1385   4.927   1.022   0.911 -0.2225  0.0865  0.3791
  478TIP3   OH2 1386   1.145   4.165   5.787  0.1186  0.1617  0.1312
  478TIP3    H1 1387   1.055   4.189   5.809  0.7184  1.5882  1.0986
  478TIP3    H2 1388   1.142   4.070   5.771 -1.2131 -0.1142  1.9141
  479TIP3   OH2 1389   0.821   2.815   0.361 -0.0483 -0.7373  0.3126
  479TIP3    H1 1390   0.776   2.731   0.359 -0.1133 -0.6912 -0.2961
  479TIP3    H2 1391   0.755   2.877   0.390 -0.4757 -0.6112 -0.9248
  480TIP3   OH2 1392   2.208   2.385   0.122  0.5161  0.6542 -0.2718
  480TIP3    H1 1393   2.208   2.370   0.216  1.5521 -0.9572 -0.5236
  480TIP3    H2 1394   2.156   2.465   0.111  0.0041  0.6007  1.6117
  481TIP3   OH2 1395   3.087   2.129   0.487 -0.1316 -0.4798  0.1747
  481TIP3    H1 1396   3.007   2.156   0.441 -0.5790  0.4962  1.4864
  481TIP3    H2 1397   3.058   2.108   0.576  1.0370 -0.2647  0.6164
  482TIP3   OH2 1398   5.752   6.853   6.003  0.3328  0.1588 -0.4016
  482TIP3    H1 1399   5.693   6.908   6.055  2.0010  2.1701 -0.6011
  482TIP3    H2 1400   5.724   6.868   5.912  0.4072  0.2120 -0.4158
  483TIP3   OH2 1401   2.566   1.424   1.989 -0.3910  0.2402 -0.3371
  483TIP3    H1 1402   2.604   1.499   1.943 -1.7499  0.8653 -0.4572
  483TIP3    H2 1403   2.531   1.461   2.070  0.2756 -0.5378  0.3239
  484TIP3   OH2 1404   3.116   3.910   2.043 -0.1181  0.2965 -0.7355
  484TIP3    H1 1405   3.127   4.002   2.019  3.1115 -0.1779 -1.3395
  484TIP3    H2 1406   3.048   3.911   2.111 -0.1568  3.1030 -0.7490
  485TIP3   OH2 1407   3.851   0.811   1.729  0.7713 -0.5069 -0.1085
  485TIP3    H1 1408   3.941   0.787   1.750  0.4078 -0.1564  2.0397
  485TIP3    H2 1409   3.808   0.727   1.709  1.4548 -0.7235 -0.6779
  486TIP3   OH2 1410   5.468   2.355   2.114  0.2538 -0.2084 -0.6455
  486TIP3    H1 1411   5.443   2.288   2.051  1.1863 -1.5989  0.4374
  486TIP3    H2 1412   5.535   2.406   2.069  0.2576 -0.6267 -1.1160
  487TIP3   OH2 1413   7.096   4.657   5.938 -0.2027 -0.0583  0.0569
  487TIP3    H1 1414   7.191   4.646   5.928 -0.3778 -1.9882  0.3701
  487TIP3    H2 1415   7.086   4.714   6.015  0.6817 -0.3253  0.3693
  488TIP3   OH2 1416   5.041   1.591   1.376  0.5036  0.0998  0.1093
  488TIP3    H1 1417   5.124   1.603   1.421 -0.2447 -0.2068  1.6115
  488TIP3    H2 1418   5.039   1.660   1.310  2.7051 -0.9644 -1.1192
  489TIP3   OH2 1419   3.611   1.490   2.082  0.0189 -0.2308 -0.7685
  489TIP3    H1 1420   3.595   1.555   2.151  1.0976 -0.0391 -0.6860
  489TIP3    H2 1421   3.593   1.537   2.000  0.5740  0.1128 -0.6974
  490TIP3   OH2 1422   2.802   2.850   0.402 -0.1586 -0.5328 -0.3766
  490TIP3    H1 1423   2.754   2.771   0.378  2.6971 -2.2360 -0.7032
  490TIP3    H2 1424   2.815   2.897   0.319 -0.8486 -0.3050 -0.3547
  491TIP3   OH2 1425   3.375   2.380   2.020 -0.1512  0.2393 -0.2402
  491TIP3    H1 1426   3.466   2.378   1.988 -0.4254  0.3227 -1.0445
  491TIP3    H2 1427   3.346   2.469   2.002 -0.4379  0.1730 -0.0970
  492TIP3   OH2 1428   5.142   1.915   3.061  0.0487  0.1074  0.2846
  492TIP3    H1 1429   5.099   1.925   3.146 -0.1974 -0.3803  0.2171
  492TIP3    H2 1430   5.093   1.846   3.017 -1.4737  2.1214 -1.2913
  493TIP3   OH2 1431   2.582   0.759   5.809  0.4710 -0.0587  0.0218
  493TIP3    H1 1432   2.611   0.681   5.856  1.4899  1.2339  1.5941
  493TIP3    H2 1433   2.520   0.727   5.743 -0.6739 -1.9545  1.9962
  494TIP3   OH2 1434   3.246   1.593   2.464  0.3377  0.7027  0.2427
  494TIP3    H1 1435   3.191   1.535   2.413  1.3623  0.5199 -0.6679
  494TIP3    H2 1436   3.201   1.678   2.461  0.0565  0.5326 -0.4090
  495TIP3   OH2 1437   4.664   6.634   6.396 -0.3710  0.2767  0.2705
  495TIP3    H1 1438   4.617   6.598   6.320  0.8366 -1.9786  0.5531
  495TIP3    H2 1439   4.657   6.566   6.463  2.6264  0.2207  0.5925
  496TIP3   OH2 1440   3.372   3.625   0.194  0.7002 -0.0400  0.2510
  496TIP3    H1 1441   3.324   3.708   0.187  1.0193  0.0313 -1.2735
  496TIP3    H2 1442   3.463   3.651   0.209  0.7460 -0.1157  0.1059
  497TIP3   OH2 1443   0.053   5.498   1.350 -0.0252  0.3812 -0.2417
  497TIP3    H1 1444   0.125   5.478   1.289 -0.0305 -1.7050  0.3800
  497TIP3    H2 1445   0.095   5.503   1.436 -0.2848  1.5700 -0.1732
  498TIP3   OH2 1446   3.220   4.975   1.453  1.3408 -0.2487  0.9555
  498TIP3    H1 1447   3.192   5.058   1.416  0.8222 -0.5737  0.6193
  498TIP3    H2 1448   3.208   4.986   1.548 -4.8030 -2.0811  0.6193
  499TIP3   OH2 1449   2.422   1.957   1.019  0.0123 -0.4631  0.2500
  499TIP3    H1 1450   2.403   1.983   0.929 -0.8082  2.1601  1.1344
  499TIP3    H2 1451   2.372   2.019   1.073  2.9784  0.0350  2.5560
  500TIP3   OH2 1452   3.774   1.451   2.502  0.4087  0.1469  0.7118
  500TIP3    H1 1453   3.796   1.437   2.594 -0.0722 -1.7562  0.5576
  500TIP3    H2 1454   3.770   1.546   2.492  0.4450  0.3599  2.6523
  501TIP3   OH2 1455   5.359   1.827   1.306 -0.0985 -0.3082  0.2752
  501TIP3    H1 1456   5.417   1.863   1.240 -2.8026  1.1417 -1.4212
  501TIP3    H2 1457   5.404   1.841   1.389  2.3922 -0.1966 -1.0467
  502TIP3   OH2 1458   7.638   3.718   4.898 -0.0340 -0.3876 -0.2335
  502TIP3    H1 1459   7.549   3.710   4.932  0.6209  0.3088  1.7065
  502TIP3    H2 1460   7.663   3.628   4.875 -1.4182 -0.5134 -1.2934
  503TIP3   OH2 1461   5.777   6.033   4.955  0.0432 -0.5368 -0.3836
  503TIP3    H1 1462   5.697   6.080   4.981 -0.7418 -1.4566 -1.0757
  503TIP3    H2 1463   5.839   6.102   4.931  0.0909  0.2465  1.9277
  504TIP3   OH2 1464   2.349   3.442   0.174  0.3165 -0.3581 -0.6876
  504TIP3    H1 1465   2.361   3.360   0.125 -0.5870 -0.3671 -0.9137
  504TIP3    H2 1466   2.432   3.488   0.166  0.5310 -0.8525 -1.3195
  505TIP3   OH2 1467   6.396   5.966   6.097 -0.4650 -0.5006 -0.7292
  505TIP3    H1 1468   6.488   5.943   6.107 -0.0667  0.1816 -2.5159
  505TIP3    H2 1469   6.389   6.053   6.136 -0.3951 -0.6348 -0.4175
  506TIP3   OH2 1470   3.302   2.524   0.029  0.3500 -0.1258  0.3519
  506TIP3    H1 1471   3.276   2.455  -0.033  0.1578  0.7510 -0.5525
  506TIP3    H2 1472   3.394   2.540   0.009 -0.3365  1.8212 -1.3208
  507TIP3   OH2 1473   4.233   1.579   3.876  0.1373  0.3034  0.2263
  507TIP3    H1 1474   4.242   1.667   3.840 -0.0999  0.8806  1.5666
  507TIP3    H2 1475   4.143   1.553   3.856  0.1932  0.3704 -0.1228
  508TIP3   OH2 1476   6.267   6.671   1.028  0.7858  0.0062  0.7350
  508TIP3    H1 1477   6.217   6.646   0.951 -1.3866  3.1545  1.0460
  508TIP3    H2 1478   6.295   6.587   1.067 -1.9378 -1.7421 -0.9306
  509TIP3   OH2 1479   2.811   2.962   0.167  0.6735  0.0289  0.3679
  509TIP3    H1 1480   2.745   3.026   0.140 -0.8787 -1.2482  1.0860
  509TIP3    H2 1481   2.840   2.922   0.085  1.3368  1.3185 -0.0463
  510TIP3   OH2 1482   5.562   2.175   3.726 -0.4934  0.8147  0.0247
  510TIP3    H1 1483   5.540   2.211   3.640  0.5746 -0.4217 -0.7990
  510TIP3    H2 1484   5.504   2.099   3.735 -0.6968  1.0216  0.4663
  511TIP3   OH2 1485   3.586   2.156   1.554 -0.3220  0.0694  0.0334
  511TIP3    H1 1486   3.540   2.079   1.588  1.5644 -1.3487 -0.5913
  511TIP3    H2 1487   3.592   2.215   1.629 -1.3808 -0.5774  0.6339
  512TIP3   OH2 1488   7.633   6.951   3.897  0.1564  0.3865 -0.3587
  512TIP3    H1 1489   7.703   6.943   3.962  0.9964 -0.1522 -1.3119
  512TIP3    H2 1490   7.640   6.871   3.845 -0.8434  0.5740 -0.7839
  513TIP3   OH2 1491   5.888   3.668   0.581  0.2952  0.2649  0.1486
  513TIP3    H1 1492   5.871   3.611   0.655  0.0649  1.8881  1.3731
  513TIP3    H2 1493   5.944   3.616   0.523 -0.9557 -1.6477  0.5999
  514TIP3   OH2 1494   4.881   2.275   1.658 -0.2234 -0.0215  0.5638
  514TIP3    H1 1495   4.965   2.274   1.705  0.3674 -3.0276 -0.4564
  514TIP3    H2 1496   4.906   2.284   1.566 -1.1419  0.9279  0.4026
  515TIP3   OH2 1497   0.359   5.910   5.207 -0.5116  0.3789  0.1018
  515TIP3    H1 1498   0.452   5.896   5.190 -0.4120  1.7761 -0.5274
  515TIP3    H2 1499   0.326   5.951   5.127 -0.7387  4.0020  1.9802
  516TIP3   OH2 1500   0.751   6.224   4.325 -0.5705  0.5646 -0.2164
  516TIP3    H1 1501   0.837   6.261   4.302 -0.7642  1.1342 -0.0233
  516TIP3    H2 1502   0.771   6.135   4.355 -0.3287 -0.3746 -2.9651
  517TIP3   OH2 1503   4.418   2.945   0.195 -0.1690 -0.3777 -0.0415
  517TIP3    H1 1504   4.330   2.915   0.216 -0.3893 -1.0270 -1.7949
  517TIP3    H2 1505   4.466   2.866   0.173  0.0532  0.2365 -1.8810
  518TIP3   OH2 1506   7.295   5.807   6.286 -0.0656 -0.0911  0.2410
  518TIP3    H1 1507   7.296   5.872   6.216  0.5031  0.1323  0.4603
  518TIP3    H2 1508   7.312   5.856   6.366  0.9048 -0.5681  0.3438
  519TIP3   OH2 1509   4.584   1.750   0.086 -0.4557 -0.2986  0.2724
  519TIP3    H1 1510   4.665   1.757   0.136  0.2230 -1.9816 -0.5577
  519TIP3    H2 1511   4.525   1.699   0.142  0.1985 -1.9156 -0.4940
  520TIP3   OH2 1512   5.626   2.441   1.062 -0.2131  0.4397  0.5432
  520TIP3    H1 1513   5.627   2.509   0.995  1.8992 -0.2208 -0.1521
  520TIP3    H2 1514   5.693   2.469   1.125 -1.2219  0.3590  1.6677
  521TIP3   OH2 1515   7.009   1.320   1.058 -0.6348  0.4838  0.2450
  521TIP3    H1 1516   7.102   1.302   1.064 -0.6195  0.3548 -0.3223
  521TIP3    H2 1517   6.976   1.255   0.996 -1.0988  0.5280  0.4441
  522TIP3   OH2 1518   1.269   5.088   5.949  0.6441 -0.5394  0.2089
  522TIP3    H1 1519   1.288   5.008   5.998 -1.5223 -1.5463 -0.5389
  522TIP3    H2 1520   1.323   5.155   5.991 -0.2854 -1.6026  3.2465
  523TIP3   OH2 1521   1.520   4.140   5.548 -0.3270 -0.5959 -0.0151
  523TIP3    H1 1522   1.469   4.143   5.468 -0.9457  0.1139  0.3921
  523TIP3    H2 1523   1.479   4.206   5.605  0.2644 -0.9002  0.7778
  524TIP3   OH2 1524   0.271   4.398   4.024 -0.0667  0.3518  0.3959
  524TIP3    H1 1525   0.336   4.328   4.029  0.3519  0.7515  0.5114
  524TIP3    H2 1526   0.260   4.413   3.930  1.1649  1.3647  0.4056
  525TIP3   OH2 1527   5.909   2.330   0.095  0.6368 -0.1559  0.2774
  525TIP3    H1 1528   5.957   2.248   0.091  0.4520 -0.4016  2.3090
  525TIP3    H2 1529   5.834   2.318   0.037  1.7283 -0.6415 -1.0501
  526TIP3   OH2 1530   1.699   2.599   5.856  0.5687  0.2769 -0.1182
  526TIP3    H1 1531   1.728   2.687   5.833  0.4996  0.5551  0.8657
  526TIP3    H2 1532   1.623   2.584   5.800  0.7400  0.7376 -0.4794
  527TIP3   OH2 1533   7.375   6.185   4.962  0.2351  0.3575 -0.1419
  527TIP3    H1 1534   7.368   6.265   4.909  1.4192 -0.2869 -1.2966
  527TIP3    H2 1535   7.364   6.216   5.052  1.7823  1.9976 -0.4800
  528TIP3   OH2 1536   6.144   1.554   1.229  0.3074  0.3251 -0.8510
  528TIP3    H1 1537   6.165   1.504   1.150  0.3417  3.2429 -2.7334
  528TIP3    H2 1538   6.220   1.540   1.286  0.0688 -2.1850 -1.0804
  529TIP3   OH2 1539   3.579   1.198   0.416  0.1639  0.0630  0.0102
  529TIP3    H1 1540   3.576   1.109   0.451  0.0143 -0.0196 -0.2111
  529TIP3    H2 1541   3.669   1.209   0.386  0.1359 -0.0779 -0.1268
  530TIP3   OH2 1542   4.954   3.285   1.258 -0.5140  0.0714 -0.4210
  530TIP3    H1 1543   4.864   3.276   1.227 -0.7979  0.3097  0.3350
  530TIP3    H2 1544   4.980   3.197   1.285  0.2973 -0.4736 -2.8465
  531TIP3   OH2 1545   6.511   4.117   5.299 -0.5425 -0.2716  0.3184
  531TIP3    H1 1546   6.604   4.125   5.275 -0.2710 -0.7216  1.2013
  531TIP3    H2 1547   6.477   4.206   5.291  0.4331  0.2673  1.8436
  532TIP3   OH2 1548   6.694   1.770   1.777 -0.3259  0.0344 -0.6225
  532TIP3    H1 1549   6.770   1.812   1.738 -0.9147  3.8531  2.0478
  532TIP3    H2 1550   6.726   1.687   1.811  1.8702  0.1515 -2.3465
  533TIP3   OH2 1551   7.325   6.019   5.792 -0.3878  0.1277 -0.1113
  533TIP3    H1 1552   7.329   5.928   5.762 -0.5852  0.0877 -0.0224
  533TIP3    H2 1553   7.253   6.019   5.855 -1.0042  0.5548 -0.8186
  534TIP3   OH2 1554   6.440   2.993   1.079  0.0209 -0.1154  0.0105
  534TIP3    H1 1555   6.446   3.068   1.020  0.8313 -0.8181 -0.8197
  534TIP3    H2 1556   6.413   2.921   1.023 -0.7335 -0.4560  0.8040
  535TIP3   OH2 1557   6.275   1.846   0.410  0.4335 -0.3742  0.3277
  535TIP3    H1 1558   6.335   1.894   0.353 -0.2401 -1.1598 -1.0665
  535TIP3    H2 1559   6.227   1.914   0.457 -0.6114  0.3318 -1.7317
  536TIP3   OH2 1560   5.042   0.079   0.518  0.0656  0.1107  0.0079
  536TIP3    H1 1561   4.982   0.072   0.444 -2.5080 -0.1652  2.0214
  536TIP3    H2 1562   5.110   0.138   0.489 -2.1728  1.8956 -1.7856
  537TIP3   OH2 1563   3.755   1.953   0.057 -0.5790  0.1258 -0.6374
  537TIP3    H1 1564   3.726   1.938   0.147  2.2770 -0.9421  0.1613
  537TIP3    H2 1565   3.798   2.039   0.060  1.4078 -0.8572 -0.4704
  538TIP3   OH2 1566   6.374   2.192   0.460 -0.2263  0.0525 -0.2020
  538TIP3    H1 1567   6.438   2.252   0.498  0.4424  0.1274 -1.4487
  538TIP3    H2 1568   6.290   2.223   0.494  0.2818  0.6309  0.5476
  539TIP3   OH2 1569   4.753   2.007   0.558 -0.3430 -0.1793 -0.0106
  539TIP3    H1 1570   4.767   2.014   0.652 -0.4175 -0.8095  0.0504
  539TIP3    H2 1571   4.658   2.010   0.547 -0.2907  1.0195 -0.1632
  540TIP3   OH2 1572   5.730   2.489   3.021  0.4535 -0.1855  0.4788
  540TIP3    H1 1573   5.640   2.518   3.008  0.2027 -1.0315  0.3272
  540TIP3    H2 1574   5.732   2.399   2.988  1.4532 -0.0368  0.1092
  541TIP3   OH2 1575   6.290   1.074   2.929 -0.4421 -0.1458  0.4096
  541TIP3    H1 1576   6.354   1.006   2.948 -0.0718 -0.1228 -0.7333
  541TIP3    H2 1577   6.274   1.067   2.835 -2.9182 -0.8539  0.8293
  542TIP3   OH2 1578   5.360   1.285   2.064  0.4184 -0.2264  0.2178
  542TIP3    H1 1579   5.319   1.356   2.114  1.9587 -0.0566  1.2802
  542TIP3    H2 1580   5.414   1.330   1.999  1.2851 -0.4188  0.7980
  543TIP3   OH2 1581   0.089   3.951   5.845 -0.8813  0.1234 -0.2875
  543TIP3    H1 1582   0.045   4.017   5.793  0.0717  1.7813  0.9749
  543TIP3    H2 1583   0.064   3.970   5.935 -1.3350 -1.8154  0.0220
  544TIP3   OH2 1584   6.727   1.932   0.407 -0.2378  0.5027  0.2464
  544TIP3    H1 1585   6.794   1.881   0.454  1.5379  1.8629 -0.7624
  544TIP3    H2 1586   6.777   1.991   0.351 -2.3151  0.5583 -1.5928
  545TIP3   OH2 1587   5.616   5.486   6.381  0.0681 -0.4623  0.0099
  545TIP3    H1 1588   5.573   5.545   6.443 -0.3515 -1.5096  0.7317
  545TIP3    H2 1589   5.576   5.400   6.398 -0.0016 -0.7823 -1.6597
  546TIP3   OH2 1590   4.313   5.812   5.374 -0.3287  0.5289 -0.1108
  546TIP3    H1 1591   4.314   5.718   5.358  1.1911  0.4798  0.1976
  546TIP3    H2 1592   4.222   5.832   5.397 -0.4816 -0.9995  0.6462
  547TIP3   OH2 1593   3.077   2.636   1.077 -0.7466  0.1866  0.0175
  547TIP3    H1 1594   3.095   2.680   0.994 -0.6846 -1.3930 -0.8469
  547TIP3    H2 1595   3.001   2.580   1.058 -0.8924  0.0146  1.0940
  548TIP3   OH2 1596   2.974   4.922   6.290  0.1238  0.2905  0.1405
  548TIP3    H1 1597   2.921   4.914   6.369 -1.6259  0.3270 -1.0095
  548TIP3    H2 1598   3.054   4.965   6.319 -0.0543 -0.6357  2.0840
  549TIP3   OH2 1599   4.407   2.571   1.480 -0.7088  0.4295  0.0566
  549TIP3    H1 1600   4.361   2.492   1.509 -0.1025 -0.0635 -0.3193
  549TIP3    H2 1601   4.482   2.578   1.539  0.7128 -0.7565 -1.5594
  550TIP3   OH2 1602   4.225   1.671   0.623 -0.0314  0.1768  0.1339
  550TIP3    H1 1603   4.256   1.625   0.545 -0.3727  0.5029 -0.1961
  550TIP3    H2 1604   4.301   1.723   0.651  0.1581 -0.1052  0.1451
  551TIP3   OH2 1605   7.019   3.325   1.401  0.1572 -0.4140  0.2974
  551TIP3    H1 1606   7.074   3.393   1.364  0.1669 -0.2190  0.6723
  551TIP3    H2 1607   6.980   3.281   1.325 -2.9681  2.5543  0.0688
  552TIP3   OH2 1608   1.956   6.929   1.244 -0.1309 -0.1894 -0.3737
  552TIP3    H1 1609   1.864   6.906   1.237 -0.0374 -0.3665 -1.1184
  552TIP3    H2 1610   1.994   6.859   1.297 -0.3344 -0.3816 -0.4804
  553TIP3   OH2 1611   2.889   6.206   3.094  0.2774 -0.2426  0.6016
  553TIP3    H1 1612   2.890   6.252   3.010 -0.5579 -0.5780  0.4050
  553TIP3    H2 1613   2.855   6.119   3.074 -2.0627  0.3814  1.6248
  554TIP3   OH2 1614   6.629   4.710   4.952  0.3672 -0.0481  0.2460
  554TIP3    H1 1615   6.625   4.638   4.890  1.7279  0.1907 -0.1481
  554TIP3    H2 1616   6.717   4.704   4.991  1.2563  2.5031 -1.1937
  555TIP3   OH2 1617   0.005   1.462   0.912  0.0038  0.3170  0.1389
  555TIP3    H1 1618   0.001   1.427   0.823  1.2572 -1.1553  0.6435
  555TIP3    H2 1619   0.004   1.385   0.968 -0.6695  1.2328  1.4182
  556TIP3   OH2 1620   6.353   2.640   2.657  0.0281  0.3235 -0.0970
  556TIP3    H1 1621   6.360   2.640   2.561  1.2167 -0.2662 -0.0269
  556TIP3    H2 1622   6.283   2.701   2.676  1.1855  2.0761 -1.2531
  557TIP3   OH2 1623   7.446   5.361   5.944  0.1687 -0.4074 -0.0419
  557TIP3    H1 1624   7.372   5.351   5.885 -0.1480  1.2367  0.0663
  557TIP3    H2 1625   7.511   5.410   5.893  0.5883 -0.5273  0.3732
  558TIP3   OH2 1626   4.206   2.365   1.261 -0.3860  0.1462  0.2902
  558TIP3    H1 1627   4.125   2.399   1.300 -0.7576 -2.0887  1.5369
  558TIP3    H2 1628   4.258   2.336   1.336  2.4259  3.2250 -0.3404
  559TIP3   OH2 1629   7.088   1.728   0.842 -0.4125 -0.4153 -0.3521
  559TIP3    H1 1630   7.105   1.743   0.935 -0.1483 -1.8923 -0.1440
  559TIP3    H2 1631   7.055   1.811   0.810  4.4184  1.7449 -0.1135
  560TIP3   OH2 1632   4.470   2.483   1.199 -0.1103 -0.3937 -0.0483
  560TIP3    H1 1633   4.456   2.538   1.276 -1.9688 -0.7540 -0.1177
  560TIP3    H2 1634   4.382   2.458   1.170  0.5069  0.3421 -2.7338
  561TIP3   OH2 1635   6.302   1.781   2.062 -0.5173  0.1416  0.5871
  561TIP3    H1 1636   6.258   1.697   2.074  0.7397 -0.3215  2.1803
  561TIP3    H2 1637   6.393   1.764   2.086  0.4713  1.1950 -2.2304
  562TIP3   OH2 1638   4.727   2.360   1.165 -0.8957 -0.1603  0.1782
  562TIP3    H1 1639   4.727   2.452   1.138  0.1820  0.4093  2.0010
  562TIP3    H2 1640   4.647   2.350   1.216 -1.1350 -0.3007 -0.2229
  563TIP3   OH2 1641   4.349   1.159   1.539 -0.1786  0.1403 -0.4048
  563TIP3    H1 1642   4.319   1.083   1.490  0.4309 -1.1230  1.1405
  563TIP3    H2 1643   4.404   1.123   1.609 -1.2059  1.8656  1.3440
  564TIP3   OH2 1644   6.423   2.049   1.505  0.0367  0.4702  0.1748
  564TIP3    H1 1645   6.398   1.964   1.469  0.5717  0.5451 -0.3853
  564TIP3    H2 1646   6.401   2.112   1.437 -0.1853  0.7583  0.5134
  565TIP3   OH2 1647   3.307   5.206   5.907 -0.1335 -0.1671 -0.1003
  565TIP3    H1 1648   3.241   5.138   5.890  0.2506 -0.8781  1.1614
  565TIP3    H2 1649   3.314   5.253   5.825 -1.4173 -0.7897 -0.5887
  566TIP3   OH2 1650   1.928   4.601   5.740 -0.5145  0.0568 -0.2210
  566TIP3    H1 1651   1.936   4.576   5.832  0.2560 -2.4254 -0.9318
  566TIP3    H2 1652   1.865   4.539   5.703 -2.5453  2.4182 -0.9201
  567TIP3   OH2 1653   1.419   2.482   5.705 -0.1855 -0.2270 -0.1631
  567TIP3    H1 1654   1.378   2.560   5.742  1.9603  0.5604  0.6367
  567TIP3    H2 1655   1.459   2.438   5.780  0.2865 -1.0636 -0.8945
  568TIP3   OH2 1656   6.396   5.217   5.424  0.0105 -0.1796  0.0633
  568TIP3    H1 1657   6.425   5.271   5.498 -0.9273  0.0912  0.2403
  568TIP3    H2 1658   6.357   5.140   5.465  0.5157 -0.5575 -0.1720
  569TIP3   OH2 1659   6.229   5.248   1.532 -0.1128  0.1861  0.1419
  569TIP3    H1 1660   6.212   5.342   1.529 -0.7652  0.0371 -0.7277
  569TIP3    H2 1661   6.151   5.207   1.494  1.1912 -0.5839 -1.7914
  570TIP3   OH2 1662   5.993   0.384   1.579 -0.2332  0.0485  0.1160
  570TIP3    H1 1663   5.900   0.403   1.596 -1.0247 -1.7637 -1.8551
  570TIP3    H2 1664   6.002   0.291   1.600  0.5096 -0.3964 -2.0057
  571TIP3   OH2 1665   3.443   2.395   0.356  0.2600 -0.0755  0.0373
  571TIP3    H1 1666   3.525   2.445   0.361  0.6857 -1.0248  3.3507
  571TIP3    H2 1667   3.444   2.357   0.268  2.3364  1.6587 -0.7333
  572TIP3   OH2 1668   5.687   1.659   3.856 -0.0154  0.4133 -0.2110
  572TIP3    H1 1669   5.681   1.655   3.951  0.6875  0.4297 -0.1615
  572TIP3    H2 1670   5.719   1.747   3.838 -1.0026  0.7114 -0.5103
  573TIP3   OH2 1671   5.085   1.540   4.369  0.1044  0.0013 -0.2952
  573TIP3    H1 1672   5.057   1.570   4.456  0.6735 -0.2878 -0.0078
  573TIP3    H2 1673   5.157   1.480   4.387 -0.1892 -0.5482 -0.9341
  574TIP3   OH2 1674   4.155   2.110   1.200  0.0521 -0.1339  0.0139
  574TIP3    H1 1675   4.146   2.100   1.105  0.0227 -0.6250  0.0664
  574TIP3    H2 1676   4.174   2.202   1.213 -0.8381  0.1138 -0.4089
  575TIP3   OH2 1677   7.611   1.675   0.703 -0.0248 -0.5990 -0.1823
  575TIP3    H1 1678   7.536   1.674   0.763 -0.3153 -0.1391 -0.5318
  575TIP3    H2 1679   7.603   1.594   0.653 -1.2785  0.2442 -1.4108
  576TIP3   OH2 1680   7.455   3.817   6.183 -0.1097 -0.1728 -0.5415
  576TIP3    H1 1681   7.413   3.836   6.267  0.9925 -0.9474  0.1880
  576TIP3    H2 1682   7.383   3.788   6.126 -0.4356 -2.5696  1.0333
  577TIP3   OH2 1683   6.867   1.921   1.022 -0.5346 -0.4123 -0.0297
  577TIP3    H1 1684   6.895   1.950   0.935  0.5578  1.1884  0.8479
  577TIP3    H2 1685   6.947   1.891   1.065 -0.8045  0.4105  1.0457
  578TIP3   OH2 1686   5.280   6.764   3.732  0.0194 -0.5033  0.5679
  578TIP3    H1 1687   5.220   6.702   3.692 -1.2679  1.6716 -1.0102
  578TIP3    H2 1688   5.334   6.795   3.659  0.3150  0.5803  1.2306
  579TIP3   OH2 1689   5.770   2.139   2.660 -0.7109 -0.2219  0.0364
  579TIP3    H1 1690   5.827   2.106   2.730 -0.1598  3.2496  1.3544
  579TIP3    H2 1691   5.684   2.103   2.680  0.1618 -2.0807  0.5062
  580TIP3   OH2 1692   0.228   5.224   4.690  0.3591 -0.2237  0.2303
  580TIP3    H1 1693   0.281   5.250   4.614  0.3430  1.2667  0.7164
  580TIP3    H2 1694   0.239   5.295   4.752 -0.9523 -0.6696  0.9807
  581TIP3   OH2 1695   5.161   2.113   0.083  0.4330  0.3003 -0.2705
  581TIP3    H1 1696   5.136   2.200   0.115  0.0715 -0.4099  1.4393
  581TIP3    H2 1697   5.079   2.063   0.084  0.8741 -0.4244 -0.0406
  582TIP3   OH2 1698   3.804   2.009   0.631  0.2560  0.0690 -0.3845
  582TIP3    H1 1699   3.861   2.054   0.568  0.6061 -0.7462 -0.6488
  582TIP3    H2 1700   3.718   2.050   0.618  0.4139  0.1820 -1.1079
  583TIP3   OH2 1701   6.003   1.655   1.832 -0.8993 -0.3530 -0.1099
  583TIP3    H1 1702   6.063   1.729   1.827 -0.4671 -0.6186  1.0067
  583TIP3    H2 1703   5.928   1.681   1.778  0.1101  0.0671 -1.3298
  584TIP3   OH2 1704   4.552   7.296   0.177 -0.8878  0.0024 -0.0308
  584TIP3    H1 1705   4.641   7.260   0.181 -0.7266  0.1840 -1.6268
  584TIP3    H2 1706   4.533   7.302   0.083 -2.1025  1.1377  0.2791
  585TIP3   OH2 1707   4.293   3.384   0.703  0.2750  0.2262  0.2984
  585TIP3    H1 1708   4.365   3.330   0.735 -1.0783 -0.9404  1.4402
  585TIP3    H2 1709   4.269   3.344   0.620 -1.0553 -1.2642  1.3820
  586TIP3   OH2 1710   7.006   4.210   5.326 -0.4117  0.1840 -0.5017
  586TIP3    H1 1711   6.978   4.301   5.341 -0.3782  0.3969 -1.7234
  586TIP3    H2 1712   7.074   4.216   5.260  1.4843 -0.4978  1.3286
  587TIP3   OH2 1713   6.561   3.251   5.691 -0.1126 -0.0132 -0.2183
  587TIP3    H1 1714   6.642   3.225   5.646 -0.3091 -1.0772  0.0270
  587TIP3    H2 1715   6.582   3.336   5.730  0.8999 -0.2805 -0.1585
  588TIP3   OH2 1716   3.554   2.060   0.504 -0.0699  0.5878  0.3822
  588TIP3    H1 1717   3.479   2.037   0.450 -0.3855  0.4805  0.8557
  588TIP3    H2 1718   3.618   2.097   0.444 -0.5372  0.7521 -0.0118
  589TIP3   OH2 1719   2.277   0.287   5.216  0.4902  0.1827  0.4520
  589TIP3    H1 1720   2.330   0.341   5.158 -0.1855  1.6793  1.1953
  589TIP3    H2 1721   2.297   0.319   5.303 -0.2140 -0.5191  0.8739
  590TIP3   OH2 1722   0.450   1.691   0.602  0.5758 -0.1547 -0.4583
  590TIP3    H1 1723   0.368   1.740   0.608 -0.7474 -2.1940 -1.7411
  590TIP3    H2 1724   0.445   1.627   0.673  2.2066  1.3393  1.0653
  591TIP3   OH2 1725   4.734   1.848   1.549  0.2544  0.4592  0.2754
  591TIP3    H1 1726   4.771   1.884   1.468 -0.7455 -0.8303 -0.7707
  591TIP3    H2 1727   4.649   1.813   1.524  0.2578 -0.6547  1.7319
  592TIP3   OH2 1728   7.865   4.798   3.932 -0.1638  0.0724 -0.4803
  592TIP3    H1 1729   7.800   4.732   3.955 -0.3325  0.5512  0.4463
  592TIP3    H2 1730   7.925   4.799   4.007  1.4948 -1.0657 -1.7530
  593TIP3   OH2 1731   6.966   7.349   4.423 -0.0443  0.0019 -0.1592
  593TIP3    H1 1732   6.902   7.403   4.470 -1.4907 -0.9765 -0.9902
  593TIP3    H2 1733   6.941   7.259   4.442  0.9152 -0.3943 -0.7375
  594TIP3   OH2 1734   5.810   1.928   1.097  0.0700  0.2830  0.4509
  594TIP3    H1 1735   5.846   1.914   1.010  0.8538 -1.5240  1.0174
  594TIP3    H2 1736   5.801   2.022   1.106 -1.2745  0.4166 -2.0651
  595TIP3   OH2 1737   2.513   2.631   0.066 -0.1685  0.0886  0.3299
  595TIP3    H1 1738   2.603   2.626   0.033 -0.9477 -3.5090 -1.5010
  595TIP3    H2 1739   2.467   2.688   0.005  0.3802  0.2608  0.0809
  596TIP3   OH2 1740   3.993   3.178   0.682 -0.1775  0.3059  0.4680
  596TIP3    H1 1741   3.934   3.249   0.706 -2.8752 -1.6318 -0.2603
  596TIP3    H2 1742   4.046   3.215   0.611 -0.8359  1.8957  0.7713
  597TIP3   OH2 1743   6.751   1.139   0.113  0.1707  0.5322  0.0999
  597TIP3    H1 1744   6.794   1.094   0.186  0.8499 -1.7710 -1.6980
  597TIP3    H2 1745   6.658   1.141   0.138  0.5445  0.8373  1.5467
  598TIP3   OH2 1746   4.661   3.898   1.304  0.5635 -0.3479  0.4575
  598TIP3    H1 1747   4.592   3.963   1.316  0.2604 -0.5713 -0.0790
  598TIP3    H2 1748   4.622   3.830   1.249  1.7063  0.3221 -1.2307
  599TIP3   OH2 1749   5.618   2.086   0.699 -0.2341  0.1380 -0.0970
  599TIP3    H1 1750   5.553   2.146   0.736 -1.6856 -1.0728 -0.6825
  599TIP3    H2 1751   5.575   2.045   0.625  1.0678 -0.9854 -0.2561
  600TIP3   OH2 1752   5.811   4.820   2.806 -0.5313  0.1857 -0.3493
  600TIP3    H1 1753   5.775   4.741   2.846  0.7329 -0.6056 -0.7417
  600TIP3    H2 1754   5.782   4.816   2.715  0.4315 -0.4060 -0.6431
  601TIP3   OH2 1755   3.049   3.483   0.320  0.5813 -0.2692  0.1179
  601TIP3    H1 1756   3.047   3.470   0.225  3.0209  1.4568 -0.2079
  601TIP3    H2 1757   3.124   3.431   0.350  0.1520 -0.3715  1.0455
  602TIP3   OH2 1758   5.998   2.688   0.470  0.1533 -0.6437 -0.2335
  602TIP3    H1 1759   5.905   2.712   0.471  0.1966 -0.3259 -2.0788
  602TIP3    H2 1760   5.998   2.597   0.439  0.5000 -0.3039 -1.2643
  603TIP3   OH2 1761   5.499   1.529   0.565  0.0534 -0.0864 -0.0211
  603TIP3    H1 1762   5.545   1.598   0.613  1.8813 -0.8881 -0.5519
  603TIP3    H2 1763   5.534   1.448   0.602 -2.4018 -0.7617  0.9209
  604TIP3   OH2 1764   0.797   2.551   1.130 -0.2030 -0.3522 -0.0567
  604TIP3    H1 1765   0.767   2.639   1.155 -0.4806 -0.5473  0.3142
  604TIP3    H2 1766   0.892   2.559   1.121 -0.0007 -0.4364  1.8012
  605TIP3   OH2 1767   5.925   6.564   4.182 -0.2129  0.5411  0.1345
  605TIP3    H1 1768   5.954   6.601   4.099  1.3691 -0.7242  0.1198
  605TIP3    H2 1769   5.948   6.631   4.247  0.6624  0.5334 -0.1646
  606TIP3   OH2 1770   6.130   5.259   6.066  0.0983  0.5815 -0.6217
  606TIP3    H1 1771   6.076   5.226   6.137 -0.1271 -0.1520 -1.1297
  606TIP3    H2 1772   6.109   5.353   6.062  0.0489  0.6120  0.2113
  607TIP3   OH2 1773   7.518   1.921   3.110 -0.2010 -0.4555  0.0241
  607TIP3    H1 1774   7.515   1.826   3.117  2.0131 -0.6662 -1.3895
  607TIP3    H2 1775   7.467   1.941   3.031 -1.9504 -0.3125  1.1587
  608TIP3   OH2 1776   0.506   0.146   1.319 -0.4001  0.2779 -0.0638
  608TIP3    H1 1777   0.593   0.160   1.282 -0.2181  0.2748  0.3601
  608TIP3    H2 1778   0.478   0.233   1.349 -0.5595  0.2848 -0.2256
  609TIP3   OH2 1779   7.158   3.731   1.604  0.0227 -0.4524  0.2611
  609TIP3    H1 1780   7.210   3.801   1.643 -0.6121 -0.2391  0.7424
  609TIP3    H2 1781   7.220   3.679   1.554  0.6773 -0.1346  0.7400
  610TIP3   OH2 1782   6.328   1.159   1.673 -0.3313  0.1154 -0.3633
  610TIP3    H1 1783   6.353   1.190   1.760 -2.0033  2.1107 -0.5662
  610TIP3    H2 1784   6.403   1.182   1.617 -0.6761  1.9401 -0.1008
  611TIP3   OH2 1785   1.018   1.519   2.484  0.1761 -0.2518  0.1721
  611TIP3    H1 1786   1.028   1.425   2.497  0.7577 -0.2526 -0.2685
  611TIP3    H2 1787   1.061   1.536   2.400 -0.0160  0.3899  0.2023
  612TIP3   OH2 1788   4.598   0.467   0.613 -0.4257  0.0132 -0.3667
  612TIP3    H1 1789   4.582   0.396   0.675 -1.2802 -0.1396 -0.7604
  612TIP3    H2 1790   4.694   0.471   0.606 -0.3016  0.4392  1.4159
  613TIP3   OH2 1791   5.694   1.710   0.903  0.0839  0.2753  0.1374
  613TIP3    H1 1792   5.752   1.781   0.875  0.1204  0.3725  0.4503
  613TIP3    H2 1793   5.753   1.635   0.915  0.2687  0.5604  1.1445
  614TIP3   OH2 1794   2.080   5.315   6.148 -0.0082 -0.0857  0.1653
  614TIP3    H1 1795   2.114   5.271   6.226 -1.2477 -1.0509  0.1857
  614TIP3    H2 1796   2.069   5.246   6.084  0.3349  0.5943 -0.6365
  615TIP3   OH2 1797   1.066   4.905   6.120 -0.1025  0.3109  0.3597
  615TIP3    H1 1798   1.016   4.870   6.047 -1.4656  0.1784  1.3346
  615TIP3    H2 1799   1.014   4.979   6.152 -0.7790 -1.0964  2.6896
  616TIP3   OH2 1800   5.176   1.592   0.451  0.2658  0.4490 -0.4333
  616TIP3    H1 1801   5.129   1.664   0.493  0.9052  0.3762  0.4296
  616TIP3    H2 1802   5.185   1.619   0.359  0.9914  1.7336  0.0067
  617TIP3   OH2 1803   5.281   1.810   0.817  0.4054  0.3975  0.0785
  617TIP3    H1 1804   5.323   1.885   0.860  0.0958  1.0112 -0.6808
  617TIP3    H2 1805   5.337   1.735   0.840  1.7828  1.1614 -0.7207
  618TIP3   OH2 1806   4.459   5.465   4.289 -0.6442  0.3977  0.5274
  618TIP3    H1 1807   4.373   5.469   4.330  0.0509  1.7191  1.9090
  618TIP3    H2 1808   4.475   5.555   4.258  1.2667  0.7810  2.5161
  619TIP3   OH2 1809   5.271   6.695   5.287  0.1958  0.2907  0.4116
  619TIP3    H1 1810   5.225   6.767   5.244  0.7991  0.4478  0.0284
  619TIP3    H2 1811   5.359   6.728   5.302  1.2459 -1.2485 -2.0841
  620TIP3   OH2 1812   7.146   5.452   6.173 -0.1994 -0.0391  0.5086
  620TIP3    H1 1813   7.192   5.393   6.233  1.4210  2.2366  1.5735
  620TIP3    H2 1814   7.068   5.479   6.221  0.6508  1.1000  1.2600
  621TIP3   OH2 1815   0.105   6.236   5.348 -0.2847 -0.4584 -0.0758
  621TIP3    H1 1816   0.031   6.273   5.396 -0.6501  0.3569 -1.2378
  621TIP3    H2 1817   0.181   6.285   5.377 -0.5834  0.3818 -0.6948
  622TIP3   OH2 1818   0.431   2.294   0.864 -0.3623  0.0989  0.0106
  622TIP3    H1 1819   0.516   2.292   0.908 -0.0206 -1.6868 -0.6757
  622TIP3    H2 1820   0.367   2.306   0.934  0.4122  0.8661  0.5954
  623TIP3   OH2 1821   6.565   2.209   3.239 -0.3080  0.1650  0.2261
  623TIP3    H1 1822   6.520   2.194   3.322 -1.7409  1.3181 -0.3063
  623TIP3    H2 1823   6.533   2.140   3.181  0.8799 -0.7855  0.7029
  624TIP3   OH2 1824   2.463   7.241   6.066  0.7646  0.3879  0.7719
  624TIP3    H1 1825   2.541   7.188   6.084  0.6104 -0.1796 -0.2284
  624TIP3    H2 1826   2.395   7.177   6.046  0.4712  0.9452 -0.0353
  625TIP3   OH2 1827   0.710   6.097   3.079  0.5853  0.2882  0.2945
  625TIP3    H1 1828   0.675   6.028   3.135 -1.7414  0.8842 -0.3988
  625TIP3    H2 1829   0.734   6.053   2.998  1.2810 -0.0810  0.6920
  626TIP3   OH2 1830   5.182   2.733   1.530  0.8641  0.1723  0.3568
  626TIP3    H1 1831   5.188   2.815   1.481  0.6058 -0.6043 -1.0139
  626TIP3    H2 1832   5.116   2.749   1.597  0.6265  0.9976 -0.0719
  627TIP3   OH2 1833   2.045   3.999   6.034  0.3184  0.5766 -0.0155
  627TIP3    H1 1834   2.041   4.079   6.086  0.4452  2.2494 -2.4661
  627TIP3    H2 1835   1.955   3.985   6.004  0.0789 -0.8566  1.3040
  628TIP3   OH2 1836   0.294   1.236   1.633  0.1316 -0.1555 -0.5723
  628TIP3    H1 1837   0.275   1.154   1.678  2.2392 -0.8770 -0.9012
  628TIP3    H2 1838   0.233   1.239   1.560 -1.0956 -0.5939  0.4291
  629TIP3   OH2 1839   6.694   1.649   0.792 -0.2887  0.0591  0.1255
  629TIP3    H1 1840   6.759   1.614   0.852  0.2586  0.5141 -0.1972
  629TIP3    H2 1841   6.662   1.729   0.834 -1.1859 -0.5553  0.6336
  630TIP3   OH2 1842   5.328   1.244   2.841 -0.3022  0.5159 -0.4352
  630TIP3    H1 1843   5.385   1.167   2.833 -1.9865 -0.8314  0.2263
  630TIP3    H2 1844   5.388   1.318   2.842  1.5140 -0.9155  0.9115
  631TIP3   OH2 1845   3.668   6.204   5.830 -0.3058  0.1774  0.2725
  631TIP3    H1 1846   3.716   6.233   5.753 -0.2809 -1.0299 -0.1711
  631TIP3    H2 1847   3.653   6.284   5.880 -1.0314  1.0888 -1.3682
  632TIP3   OH2 1848   5.059   1.334   0.522 -0.2162  0.0920  0.2533
  632TIP3    H1 1849   5.108   1.410   0.491 -1.5150  1.2331  0.9464
  632TIP3    H2 1850   4.977   1.337   0.472 -0.0018 -1.2263 -0.1849
  633TIP3   OH2 1851   4.374   2.095   2.174  0.8084 -0.0570 -0.0942
  633TIP3    H1 1852   4.446   2.142   2.215 -0.5210  0.9959  1.0470
  633TIP3    H2 1853   4.415   2.046   2.103  2.1971  3.0642 -1.5337
  634TIP3   OH2 1854   5.361   1.217   0.502 -0.3483  0.5620 -0.1473
  634TIP3    H1 1855   5.295   1.287   0.500 -0.4762  0.5133  1.5795
  634TIP3    H2 1856   5.440   1.259   0.536  0.8302  0.8494 -3.1489
  635TIP3   OH2 1857   3.866   2.194   0.053 -0.0404  0.0851  0.4360
  635TIP3    H1 1858   3.807   2.251   0.101 -0.9207  0.5439 -1.1632
  635TIP3    H2 1859   3.940   2.250   0.029 -0.3724  0.2721 -0.1563
  636TIP3   OH2 1860   4.896   2.525   3.000 -0.3495 -0.4484 -0.9337
  636TIP3    H1 1861   4.869   2.570   3.080 -0.6884 -1.6894 -0.3358
  636TIP3    H2 1862   4.988   2.502   3.015 -0.0094  0.5349 -1.4728
  637TIP3   OH2 1863   5.648   3.021   2.295 -0.3736  0.3049  0.0066
  637TIP3    H1 1864   5.614   3.102   2.257  0.2378  1.0583  1.0329
  637TIP3    H2 1865   5.741   3.038   2.310 -0.3118 -0.4651  0.5240
  638TIP3   OH2 1866   5.171   2.942   0.091 -0.2833 -0.1758 -0.0774
  638TIP3    H1 1867   5.081   2.966   0.108 -0.6849 -1.6207 -0.0576
  638TIP3    H2 1868   5.211   3.020   0.054 -1.9016  0.0470 -1.3842
  639TIP3   OH2 1869   6.832   1.404   3.353 -0.5503  0.3465  0.1852
  639TIP3    H1 1870   6.926   1.392   3.369 -0.6508 -1.0951 -0.2451
  639TIP3    H2 1871   6.817   1.364   3.268 -1.8706 -0.9513  0.9990
  640TIP3   OH2 1872   6.482   2.712   3.575  0.2492  0.8499 -0.1522
  640TIP3    H1 1873   6.495   2.654   3.500 -1.4991  1.2940 -0.8292
  640TIP3    H2 1874   6.395   2.688   3.608  1.4385 -0.1029  2.4191
  641TIP3   OH2 1875   4.578   2.888   1.401 -0.8707  0.2443  0.4737
  641TIP3    H1 1876   4.545   2.978   1.394 -0.3858  0.3926  0.0549
  641TIP3    H2 1877   4.588   2.860   1.310 -1.7721 -0.5156  0.6027
  642TIP3   OH2 1878   3.147   3.105   1.159 -0.0558  0.1700 -0.6381
  642TIP3    H1 1879   3.209   3.178   1.156  0.7836 -0.5572 -1.2230
  642TIP3    H2 1880   3.061   3.146   1.158  0.3782  1.0951 -2.8210
  643TIP3   OH2 1881   7.267   5.240   6.289  0.1035  0.2798 -0.0381
  643TIP3    H1 1882   7.210   5.219   6.364 -3.3098  2.4731 -1.9013
  643TIP3    H2 1883   7.354   5.249   6.328 -1.2212 -0.5650  3.3666
  644TIP3   OH2 1884   5.119   2.367   0.189  0.1002  0.1253 -0.4164
  644TIP3    H1 1885   5.120   2.462   0.189 -1.2572  0.2050  2.6459
  644TIP3    H2 1886   5.167   2.343   0.269 -0.8594 -1.6894 -0.3563
  645TIP3   OH2 1887   4.658   2.767   2.479  0.0005  0.2871 -0.0339
  645TIP3    H1 1888   4.612   2.838   2.435 -1.8772 -1.3723 -0.8151
  645TIP3    H2 1889   4.728   2.742   2.418 -1.8419 -1.1893 -1.6135
  646TIP3   OH2 1890   1.613   1.637   6.407 -0.1972  0.2630 -0.2638
  646TIP3    H1 1891   1.560   1.620   6.329  0.9281 -0.2608 -0.9215
  646TIP3    H2 1892   1.570   1.711   6.450 -1.6306 -0.3470 -0.6328
  647TIP3   OH2 1893   1.327   6.924   5.035  0.0801 -0.0783 -0.3040
  647TIP3    H1 1894   1.232   6.935   5.038 -0.1987 -2.1903 -0.6815
  647TIP3    H2 1895   1.346   6.906   4.943  0.9303  0.9565 -0.3411
  648TIP3   OH2 1896   6.093   1.943   1.231 -0.6698  0.1895 -0.3180
  648TIP3    H1 1897   6.004   1.930   1.200 -1.2497  1.9375  0.5991
  648TIP3    H2 1898   6.134   1.999   1.165  0.0662 -1.3655 -1.2275
  649TIP3   OH2 1899   7.043   5.998   6.457 -0.1481 -0.2104 -0.3094
  649TIP3    H1 1900   7.045   6.033   6.368  0.7895  1.2257  0.2559
  649TIP3    H2 1901   6.998   5.914   6.449 -1.0108  0.3946 -1.9576
  650TIP3   OH2 1902   0.210   0.495   1.138 -1.0054  0.0178  0.4693
  650TIP3    H1 1903   0.157   0.416   1.153  0.3165 -1.0654 -0.4836
  650TIP3    H2 1904   0.296   0.473   1.174 -0.9355  1.4355  1.1828
  651TIP3   OH2 1905   1.847   7.470   1.731 -0.7204  0.1532 -0.1318
  651TIP3    H1 1906   1.863   7.382   1.696  1.9621  0.8138 -0.6968
  651TIP3    H2 1907   1.831   7.457   1.824  0.3754 -0.8881 -0.0806
  652TIP3   OH2 1908   5.718   1.919   1.553 -0.2108  0.0148 -0.0973
  652TIP3    H1 1909   5.744   1.977   1.625 -0.8906  1.8977 -1.3233
  652TIP3    H2 1910   5.624   1.932   1.545 -0.6548 -2.5290  0.6637
  653TIP3   OH2 1911   7.250   2.951   1.757 -0.2112  0.1865 -0.0729
  653TIP3    H1 1912   7.201   2.999   1.691 -0.8840  0.2884  0.4978
  653TIP3    H2 1913   7.219   2.985   1.841  1.2675  0.6817  0.2915
  654TIP3   OH2 1914   5.370   2.837   0.280  0.8455  0.5661  0.3938
  654TIP3    H1 1915   5.460   2.865   0.259  0.9416  0.1664  0.2785
  654TIP3    H2 1916   5.317   2.875   0.210  1.2913 -1.5810 -1.1499
  655TIP3   OH2 1917   4.003   3.715   0.718 -0.1553  0.1676  0.3575
  655TIP3    H1 1918   4.078   3.660   0.743 -0.1709  0.4785  1.0984
  655TIP3    H2 1919   4.012   3.726   0.624 -0.6521 -1.8563  0.0599
  656TIP3   OH2 1920   4.786   0.792   5.547 -0.1363  0.1196  0.3657
  656TIP3    H1 1921   4.791   0.697   5.533 -1.4275  0.1013 -0.0627
  656TIP3    H2 1922   4.836   0.807   5.626  0.0821 -0.9303  0.4402
  657TIP3   OH2 1923   5.191   2.736   2.266 -0.8315 -0.0681 -0.0726
  657TIP3    H1 1924   5.126   2.804   2.248 -0.3136  1.1894  2.5197
  657TIP3    H2 1925   5.275   2.782   2.262 -0.5356 -0.3311  2.6634
  658TIP3   OH2 1926   6.355   1.259   1.937 -0.0742  0.1945 -0.5456
  658TIP3    H1 1927   6.436   1.295   1.973  0.9611 -0.9166 -1.6831
  658TIP3    H2 1928   6.310   1.335   1.899  0.0439  0.9466  0.7859
  659TIP3   OH2 1929   0.614   2.678   0.693 -0.7035  0.3288  0.0932
  659TIP3    H1 1930   0.572   2.596   0.667 -1.4188  0.8931 -0.5590
  659TIP3    H2 1931   0.591   2.740   0.624  2.4569  0.2961 -1.0572
  660TIP3   OH2 1932   6.849   2.889   0.424 -0.2619  0.0329 -0.5296
  660TIP3    H1 1933   6.774   2.949   0.418 -0.3277 -0.1069 -1.2009
  660TIP3    H2 1934   6.841   2.834   0.346 -0.4091 -1.1015  0.2907
  661TIP3   OH2 1935   6.816   1.496   3.734 -0.1514  0.2594 -0.3077
  661TIP3    H1 1936   6.830   1.402   3.734  2.2350  0.5771  0.1260
  661TIP3    H2 1937   6.778   1.514   3.820  0.5131 -0.1858  0.0910
  662TIP3   OH2 1938   7.871   1.819   1.162  0.1409  0.0448  0.7611
  662TIP3    H1 1939   7.811   1.882   1.122  0.6276 -0.6212 -1.0689
  662TIP3    H2 1940   7.814   1.756   1.207 -0.4085  0.8389  1.1911
  663TIP3   OH2 1941   5.708   2.707   0.372 -0.1215  0.5947  0.1940
  663TIP3    H1 1942   5.704   2.797   0.341  1.4693  0.4765 -0.4084
  663TIP3    H2 1943   5.712   2.654   0.292  1.8383  0.1741  0.5359
  664TIP3   OH2 1944   5.411   4.919   0.667 -0.4842  0.0196 -0.3494
  664TIP3    H1 1945   5.415   4.847   0.604  2.3467 -1.1170  1.0506
  664TIP3    H2 1946   5.499   4.957   0.666 -1.0902  1.5338  1.1636
  665TIP3   OH2 1947   7.399   3.391   0.992 -0.2076  0.0478 -0.2387
  665TIP3    H1 1948   7.489   3.420   0.985 -0.1731  0.5008  1.7754
  665TIP3    H2 1949   7.404   3.295   0.993  0.4363  0.0738  1.5969
  666TIP3   OH2 1950   6.018   0.343   1.960  0.0510 -0.2898 -0.6752
  666TIP3    H1 1951   5.972   0.369   1.880 -1.2521  0.6931  0.3669
  666TIP3    H2 1952   6.002   0.416   2.021  3.0641  0.1072 -0.3048
  667TIP3   OH2 1953   5.086   0.556   1.120  0.2266 -0.2895  0.4149
  667TIP3    H1 1954   5.104   0.515   1.205 -0.5974  1.1363  1.3018
  667TIP3    H2 1955   5.030   0.631   1.141  0.8680  0.6853 -1.2864
  668TIP3   OH2 1956   5.803   0.500   0.640  0.0309  0.2962  0.1349
  668TIP3    H1 1957   5.870   0.457   0.693  2.2120  2.6693 -0.5835
  668TIP3    H2 1958   5.827   0.481   0.550  0.1202  1.6475 -0.1395
  669TIP3   OH2 1959   7.815   5.529   2.087 -0.5834 -0.1853 -0.0836
  669TIP3    H1 1960   7.779   5.496   2.005  0.5427  0.7015 -0.9545
  669TIP3    H2 1961   7.892   5.474   2.104  0.6352  1.1987 -0.9500
  670TIP3   OH2 1962   7.127   0.761   0.440 -0.9453  0.3623  0.6938
  670TIP3    H1 1963   7.086   0.680   0.469 -0.8129 -0.2411 -0.7559
  670TIP3    H2 1964   7.063   0.802   0.382  0.6412 -0.9139 -2.1193
  671TIP3   OH2 1965   5.542   4.305   1.417  0.0035 -0.3120 -0.0671
  671TIP3    H1 1966   5.494   4.358   1.480 -1.3376  1.2622 -2.3216
  671TIP3    H2 1967   5.608   4.364   1.381  0.1783 -0.9136 -0.7633
  672TIP3   OH2 1968   6.859   2.758   1.208  0.1515 -0.1360 -0.6182
  672TIP3    H1 1969   6.858   2.721   1.296 -1.9374  1.2003 -0.0399
  672TIP3    H2 1970   6.800   2.701   1.158  0.3763 -0.1688 -0.8492
  673TIP3   OH2 1971   0.489   4.034   2.291 -0.0683  0.6860 -0.5761
  673TIP3    H1 1972   0.430   3.964   2.320  2.3757 -0.6781  1.2376
  673TIP3    H2 1973   0.483   4.101   2.359 -0.4134  1.0763 -0.9873
  674TIP3   OH2 1974   4.704   6.054   4.523  0.2690  0.2191 -0.1979
  674TIP3    H1 1975   4.792   6.091   4.515  1.7781 -2.6746  1.9582
  674TIP3    H2 1976   4.684   6.061   4.616 -0.9436 -0.9399 -0.3566
  675TIP3   OH2 1977   7.237   4.412   2.518 -0.2671 -0.0538 -0.2195
  675TIP3    H1 1978   7.296   4.392   2.445 -0.5425 -0.7511 -0.2605
  675TIP3    H2 1979   7.259   4.347   2.585 -1.1706 -0.5056 -0.3437
  676TIP3   OH2 1980   3.995   1.927   6.331 -0.1339  0.1403  0.7632
  676TIP3    H1 1981   3.932   1.906   6.400  1.9800 -0.6824  2.5085
  676TIP3    H2 1982   4.056   1.987   6.372  1.5626 -0.9044 -0.1687
  677TIP3   OH2 1983   7.784   5.224   2.609  0.1977 -0.4759  0.6675
  677TIP3    H1 1984   7.827   5.307   2.588  1.2040 -1.3116 -0.7474
  677TIP3    H2 1985   7.834   5.189   2.683  0.0724 -0.0466  0.9561
  678TIP3   OH2 1986   6.576   2.689   2.298 -0.0489 -0.1717  0.2092
  678TIP3    H1 1987   6.601   2.597   2.287 -1.2302 -0.4535 -0.1770
  678TIP3    H2 1988   6.652   2.729   2.339  0.6843 -1.2116 -0.1025
  679TIP3   OH2 1989   0.713   1.743   0.513  0.4284 -0.3449  0.3243
  679TIP3    H1 1990   0.774   1.692   0.567  0.0770 -0.3154  0.7450
  679TIP3    H2 1991   0.626   1.717   0.543  0.2503  1.2041  1.1940
  680TIP3   OH2 1992   5.685   3.620   3.682  0.1104 -0.2407 -0.2596
  680TIP3    H1 1993   5.610   3.670   3.649  0.2056  0.7528  0.9890
  680TIP3    H2 1994   5.648   3.535   3.706 -0.7869  0.5232  1.1116
  681TIP3   OH2 1995   4.696   2.130   6.026  0.2633  0.4600  0.0846
  681TIP3    H1 1996   4.737   2.152   5.942 -0.0792 -0.4392 -0.3238
  681TIP3    H2 1997   4.604   2.115   6.004  0.5148 -1.5611  0.2988
  682TIP3   OH2 1998   0.353   5.789   2.503  1.2105  0.1256 -0.3689
  682TIP3    H1 1999   0.263   5.803   2.473  0.7197  2.5174  1.9694
  682TIP3    H2 2000   0.371   5.697   2.483 -2.2387 -0.7789  0.2656
  683TIP3   OH2 2001   7.875   2.723   2.069 -0.3836 -0.3903  0.5905
  683TIP3    H1 2002   7.863   2.664   2.143  0.5884 -1.8669 -0.4023
  683TIP3    H2 2003   7.925   2.672   2.005  1.2163  1.7878  0.0479
  684TIP3   OH2 2004   6.544   3.046   1.826 -0.1812  0.0130  0.6388
  684TIP3    H1 2005   6.605   3.032   1.899 -0.7939  0.0416  1.1575
  684TIP3    H2 2006   6.475   3.102   1.862 -0.1166  0.6166 -0.1644
  685TIP3   OH2 2007   4.488   1.790   1.469 -0.3765 -0.1743  0.0100
  685TIP3    H1 2008   4.416   1.731   1.489 -1.3252  0.9222 -0.1378
  685TIP3    H2 2009   4.455   1.845   1.397  1.0937 -0.5714 -0.9957
  686TIP3   OH2 2010   7.705   2.435   1.608 -0.0671 -0.3196 -0.3096
  686TIP3    H1 2011   7.679   2.393   1.526 -0.0967 -2.3739  0.7043
  686TIP3    H2 2012   7.625   2.433   1.662  0.5671 -1.1591  0.6162
  687TIP3   OH2 2013   0.381   7.289   1.169 -0.2346 -0.3064  0.5475
  687TIP3    H1 2014   0.472   7.286   1.140 -0.4372  1.7247 -0.3316
  687TIP3    H2 2015   0.370   7.376   1.208 -2.4605  0.4142 -1.5575
  688TIP3   OH2 2016   7.285   4.394   3.599 -0.8700  0.1560 -0.0190
  688TIP3    H1 2017   7.358   4.422   3.654 -0.5540  1.2505 -0.9624
  688TIP3    H2 2018   7.255   4.475   3.557 -1.8542 -0.4764 -0.5566
  689TIP3   OH2 2019   1.288   2.333   2.293  0.2528 -0.1267  0.8805
  689TIP3    H1 2020   1.201   2.333   2.254  1.4383  0.4465 -1.8876
  689TIP3    H2 2021   1.328   2.414   2.262  1.5767 -0.0910  2.6094
  690TIP3   OH2 2022   6.441   3.500   0.538  0.8890  0.2760 -0.2609
  690TIP3    H1 2023   6.502   3.547   0.596  0.6834 -0.9773  1.0068
  690TIP3    H2 2024   6.469   3.408   0.543 -2.5693 -0.7458  2.3233
  691TIP3   OH2 2025   5.521   3.937   2.166 -0.2496  0.1451  0.3745
  691TIP3    H1 2026   5.498   3.976   2.250  1.5004  0.2017  0.8514
  691TIP3    H2 2027   5.582   3.999   2.126 -0.0720 -0.4886 -0.3561
  692TIP3   OH2 2028   6.014   2.646   4.544  0.0414 -0.1486  0.0875
  692TIP3    H1 2029   5.933   2.627   4.592 -0.8156 -0.7200 -1.5359
  692TIP3    H2 2030   6.014   2.741   4.534 -1.3928 -0.2860 -1.4950
  693TIP3   OH2 2031   0.902   3.848   3.153  0.7054 -0.5185 -0.4538
  693TIP3    H1 2032   0.988   3.883   3.173 -0.2510  0.3831  2.2879
  693TIP3    H2 2033   0.896   3.851   3.057  3.6496 -0.5468 -0.6859
  694TIP3   OH2 2034   3.113   7.288   6.323 -0.0074  0.2980  0.1436
  694TIP3    H1 2035   3.078   7.205   6.355 -0.7367  1.5866  2.8484
  694TIP3    H2 2036   3.206   7.285   6.344 -0.3645  0.8709  1.8966
  695TIP3   OH2 2037   0.384   3.351   2.081  0.6495 -0.1943  0.3344
  695TIP3    H1 2038   0.407   3.431   2.128  1.4670 -0.1595 -0.1097
  695TIP3    H2 2039   0.327   3.379   2.010  1.5379  0.0957 -0.2720
  696TIP3   OH2 2040   0.710   5.287   2.778  0.4259 -0.1902  0.1643
  696TIP3    H1 2041   0.728   5.381   2.774  2.6064 -0.5172  1.4946
  696TIP3    H2 2042   0.795   5.245   2.760 -0.2172 -1.8920  0.9661
  697TIP3   OH2 2043   0.950   2.356   4.161  0.0386 -0.7350  0.4528
  697TIP3    H1 2044   1.042   2.359   4.185 -0.4375  0.0780  2.2828
  697TIP3    H2 2045   0.916   2.442   4.186 -1.3250 -1.1991  0.2474
  698TIP3   OH2 2046   1.745   3.539   1.300 -0.1492 -0.5534 -0.2824
  698TIP3    H1 2047   1.753   3.447   1.273 -1.2798  0.5351 -4.5306
  698TIP3    H2 2048   1.653   3.548   1.325 -0.4594 -0.1066 -1.6100
  699TIP3   OH2 2049   6.255   2.562   1.560 -0.2086  0.3631 -0.4148
  699TIP3    H1 2050   6.339   2.521   1.537 -0.0881 -0.3167  1.1396
  699TIP3    H2 2051   6.221   2.508   1.631 -0.8320  2.0070  0.5679
  700TIP3   OH2 2052   7.142   4.228   3.018  0.4317  0.6837  0.0977
  700TIP3    H1 2053   7.156   4.295   3.085  0.5074  1.2571 -0.4776
  700TIP3    H2 2054   7.047   4.221   3.009  0.3730  3.4349 -2.4594
  701TIP3   OH2 2055   1.314   3.001   0.883  0.1500 -0.9844 -0.5880
  701TIP3    H1 2056   1.224   2.986   0.854  0.1192 -0.2943 -0.8565
  701TIP3    H2 2057   1.354   3.051   0.812  0.1520  0.4844  0.4243
  702TIP3   OH2 2058   0.217   5.947   2.071 -0.2663  0.5139 -0.1732
  702TIP3    H1 2059   0.147   5.993   2.117  1.2709  0.0155  2.8098
  702TIP3    H2 2060   0.173   5.880   2.020 -2.2122  2.6371 -1.3913
  703TIP3   OH2 2061   7.088   5.933   2.679 -0.2602 -0.0923 -0.4955
  703TIP3    H1 2062   7.049   5.851   2.650  1.1416 -0.7992 -0.4443
  703TIP3    H2 2063   7.025   5.970   2.741 -0.4428 -1.6312  0.2439
  704TIP3   OH2 2064   7.845   3.384   2.906  0.0501 -0.4857 -0.1799
  704TIP3    H1 2065   7.809   3.471   2.891 -1.1783 -0.9579 -0.0339
  704TIP3    H2 2066   7.854   3.346   2.819 -0.8395 -0.7717 -0.1491
  705TIP3   OH2 2067   7.835   4.590   1.043  0.3139 -0.4118  0.4612
  705TIP3    H1 2068   7.798   4.651   0.979  1.3868 -0.2427 -0.0099
  705TIP3    H2 2069   7.759   4.556   1.090 -0.4611 -0.2835 -0.6682
  706TIP3   OH2 2070   7.783   2.888   1.830 -0.0610 -0.3785 -0.2386
  706TIP3    H1 2071   7.743   2.949   1.768  0.7655 -0.5983 -1.0134
  706TIP3    H2 2072   7.752   2.802   1.801 -0.2207 -0.4219  0.0689
  707TIP3   OH2 2073   7.547   2.541   2.251  0.3782  0.6421 -0.1962
  707TIP3    H1 2074   7.522   2.449   2.258  1.8909  0.2242 -0.0002
  707TIP3    H2 2075   7.513   2.581   2.331  1.2259 -0.1394  0.5769
  708TIP3   OH2 2076   6.748   5.146   3.095 -0.2218 -0.0618 -0.7522
  708TIP3    H1 2077   6.682   5.077   3.103  2.2870 -2.4173  0.4396
  708TIP3    H2 2078   6.820   5.117   3.151  1.1879  3.2310 -0.7514
  709TIP3   OH2 2079   5.314   3.690   1.243 -0.0172  0.1033  0.4164
  709TIP3    H1 2080   5.229   3.649   1.229 -0.6208  1.2533  0.6275
  709TIP3    H2 2081   5.322   3.698   1.338  0.2715  0.1178  0.3919
  710TIP3   OH2 2082   7.212   2.566   2.065  0.2494  0.4085 -0.0149
  710TIP3    H1 2083   7.251   2.634   2.010  0.0014  1.2465  0.8329
  710TIP3    H2 2084   7.192   2.495   2.004 -0.2227  1.4071 -1.0411
  711TIP3   OH2 2085   7.629   1.364   2.432 -0.7620  0.1421 -0.6856
  711TIP3    H1 2086   7.605   1.456   2.426 -1.2449  0.1925  1.5384
  711TIP3    H2 2087   7.550   1.321   2.466  0.0374 -0.7958  0.0240
  712TIP3   OH2 2088   0.232   3.312   1.710 -0.1721 -0.5074 -0.3874
  712TIP3    H1 2089   0.248   3.241   1.647 -0.5434 -0.9027 -0.0368
  712TIP3    H2 2090   0.137   3.313   1.722 -0.0205 -1.1224  0.9664
  713TIP3   OH2 2091   1.452   3.925   1.630  0.1929  0.0577 -0.1055
  713TIP3    H1 2092   1.469   4.018   1.642  2.4743 -0.4498  0.8917
  713TIP3    H2 2093   1.517   3.881   1.686  1.0526 -2.1840 -2.7525
  714TIP3   OH2 2094   0.190   6.124   2.537 -0.3166 -0.1138  0.3809
  714TIP3    H1 2095   0.222   6.086   2.618  0.2323 -0.7217 -0.1197
  714TIP3    H2 2096   0.229   6.211   2.535 -0.7562  0.1080  1.0212
  715TIP3   OH2 2097   7.693   5.830   2.431 -0.6358  0.4674  0.2139
  715TIP3    H1 2098   7.607   5.872   2.430 -0.9407 -0.1790 -1.8238
  715TIP3    H2 2099   7.680   5.749   2.480 -1.5296 -0.2885 -1.2375
  716TIP3   OH2 2100   6.301   3.778   2.056 -0.4384  0.3378 -0.0118
  716TIP3    H1 2101   6.259   3.839   2.117 -1.0374 -0.4315  0.3553
  716TIP3    H2 2102   6.228   3.742   2.005 -0.3001 -1.3497  0.9354
  717TIP3   OH2 2103   7.639   3.237   3.165  0.2209  0.4299  0.2571
  717TIP3    H1 2104   7.693   3.216   3.241  1.5714  0.2750 -0.7235
  717TIP3    H2 2105   7.700   3.276   3.102 -0.5215 -0.9903 -1.4066
  718TIP3   OH2 2106   0.776   3.450   1.734  0.4303  0.2831  0.2430
  718TIP3    H1 2107   0.682   3.449   1.716  0.3458  0.2033  0.6904
  718TIP3    H2 2108   0.798   3.358   1.753  0.9590 -0.0178 -1.7107
  719TIP3   OH2 2109   0.696   6.308   3.254 -0.0853 -0.6498 -0.5095
  719TIP3    H1 2110   0.696   6.236   3.191  0.2387 -0.0315 -1.2299
  719TIP3    H2 2111   0.788   6.322   3.275 -0.1290 -0.3223 -0.5233
  720TIP3   OH2 2112   7.817   4.202   2.386  0.1831  0.1243 -0.6215
  720TIP3    H1 2113   7.773   4.117   2.391 -2.6287  1.4793 -1.2139
  720TIP3    H2 2114   7.817   4.235   2.475  0.6167 -0.1557 -0.5142
  721TIP3   OH2 2115   7.076   4.732   4.481 -0.1620  0.0710  0.1127
  721TIP3    H1 2116   7.017   4.657   4.475 -1.3296  0.9117  0.8948
  721TIP3    H2 2117   7.151   4.701   4.532  0.6531 -1.3584 -1.9143
  722TIP3   OH2 2118   6.672   4.407   2.152  0.1459  0.3540  0.4118
  722TIP3    H1 2119   6.662   4.400   2.247  0.7886  0.1128  0.4629
  722TIP3    H2 2120   6.737   4.477   2.139  0.1772  0.2805  0.1593
  723TIP3   OH2 2121   7.331   1.032   1.725 -0.4093 -0.2127 -0.0427
  723TIP3    H1 2122   7.249   1.080   1.737 -0.7716 -0.7500 -0.3747
  723TIP3    H2 2123   7.321   0.987   1.642  0.4843  0.2236 -0.3972
  724TIP3   OH2 2124   6.516   3.240   0.471 -0.1596 -0.0840  0.8343
  724TIP3    H1 2125   6.448   3.179   0.500 -0.2663 -0.2843  0.1572
  724TIP3    H2 2126   6.593   3.185   0.456 -0.0728  0.0345  0.8407
  725TIP3   OH2 2127   7.326   4.400   3.212 -0.3657 -0.3608  0.5860
  725TIP3    H1 2128   7.415   4.415   3.244 -0.3691 -0.1293  0.4867
  725TIP3    H2 2129   7.298   4.484   3.176 -0.6288 -0.4314  0.6221
  726TIP3   OH2 2130   0.335   4.248   2.788  0.9749  0.1108 -0.2625
  726TIP3    H1 2131   0.359   4.229   2.878  0.8210 -0.2020 -0.2861
  726TIP3    H2 2132   0.399   4.313   2.759  2.4909 -1.5509 -0.7022
  727TIP3   OH2 2133   7.362   2.733   1.871 -0.4144 -0.2909 -0.4157
  727TIP3    H1 2134   7.345   2.816   1.825 -1.6418 -1.3813 -1.9799
  727TIP3    H2 2135   7.304   2.670   1.829  0.7217 -2.0321  0.5679
  728TIP3   OH2 2136   5.234   7.009   1.651  0.0420 -0.4528 -0.2607
  728TIP3    H1 2137   5.325   7.011   1.680  0.0334  1.0829 -0.3082
  728TIP3    H2 2138   5.233   7.059   1.570 -1.5607  3.1899  1.9029
  729TIP3   OH2 2139   4.988   1.978   6.449 -0.4647  0.1837 -0.2064
  729TIP3    H1 2140   4.984   2.040   6.376 -0.7249  1.5887  0.9679
  729TIP3    H2 2141   4.934   2.018   6.517 -1.2305 -1.7036  0.3262
  730TIP3   OH2 2142   6.475   4.895   1.396 -0.1998  0.1267 -0.1846
  730TIP3    H1 2143   6.545   4.860   1.341 -1.6314 -0.5075 -1.6800
  730TIP3    H2 2144   6.473   4.838   1.473  0.2797 -0.4617 -0.6064
  731TIP3   OH2 2145   7.627   2.780   2.758  0.0417  0.0130 -0.5583
  731TIP3    H1 2146   7.546   2.770   2.807 -0.4376 -1.2386 -1.5849
  731TIP3    H2 2147   7.642   2.875   2.756 -0.9557  0.1942  0.3325
  732TIP3   OH2 2148   0.029   3.062   2.050  0.3416 -0.4850 -0.5924
  732TIP3    H1 2149   0.112   3.060   2.097  0.3227  0.6953 -0.4971
  732TIP3    H2 2150   0.010   3.155   2.038 -1.5949 -0.7134  0.5147
  733TIP3   OH2 2151   1.850   5.063   0.433 -0.0674 -0.1565  0.4119
  733TIP3    H1 2152   1.762   5.074   0.469 -0.6343  0.2852 -1.0609
  733TIP3    H2 2153   1.857   4.969   0.415 -0.3844 -0.1410  0.1937
  734TIP3   OH2 2154   0.124   1.380   5.723  0.0350  0.1435  0.3465
  734TIP3    H1 2155   0.076   1.395   5.804 -0.8516 -1.4242  0.1064
  734TIP3    H2 2156   0.202   1.332   5.750  1.0339  1.8474  0.6002
  735TIP3   OH2 2157   0.703   1.840   0.977 -0.0407  0.3793 -0.0533
  735TIP3    H1 2158   0.696   1.935   0.986  0.4828  0.5580 -1.4045
  735TIP3    H2 2159   0.792   1.826   0.944 -0.4310 -0.5124 -0.7421
  736TIP3   OH2 2160   3.126   5.220   1.346  0.2506  0.0577 -0.2003
  736TIP3    H1 2161   3.042   5.233   1.390  1.5813  0.7466  2.2380
  736TIP3    H2 2162   3.161   5.309   1.336  1.2157 -0.3127 -0.1405
  737TIP3   OH2 2163   6.333   1.531   5.319  0.0459  0.7339  0.4933
  737TIP3    H1 2164   6.277   1.607   5.335 -1.3816 -0.0400 -0.6988
  737TIP3    H2 2165   6.320   1.511   5.227 -0.4968 -1.6556  1.0489
  738TIP3   OH2 2166   6.737   0.702   1.004 -0.5654 -0.3570  0.4410
  738TIP3    H1 2167   6.757   0.747   0.922 -2.5635  1.2211  0.7787
  738TIP3    H2 2168   6.666   0.642   0.982 -0.1740 -0.9258  0.7242
  739TIP3   OH2 2169   3.176   3.581   1.576  0.6750  0.1232 -0.4209
  739TIP3    H1 2170   3.210   3.670   1.572 -0.8082  0.7875  1.1707
  739TIP3    H2 2171   3.091   3.585   1.533  0.4944 -0.4671 -0.1327
  740TIP3   OH2 2172   7.810   4.280   4.123  0.4621  0.8376  0.4803
  740TIP3    H1 2173   7.857   4.322   4.195  2.7800 -0.1650 -0.3755
  740TIP3    H2 2174   7.814   4.186   4.143 -1.7985  0.7594  0.7146
  741TIP3   OH2 2175   4.408   3.756   1.589 -0.2083 -0.1349  0.1331
  741TIP3    H1 2176   4.439   3.847   1.590 -1.7935  0.4451 -0.6284
  741TIP3    H2 2177   4.344   3.754   1.517  1.5498 -2.4469 -1.4160
  742TIP3   OH2 2178   0.918   2.291   0.879 -0.4347 -0.0476  0.2545
  742TIP3    H1 2179   0.994   2.281   0.822 -0.8091  0.5329 -0.3479
  742TIP3    H2 2180   0.954   2.329   0.960 -0.2286  1.1454 -0.3922
  743TIP3   OH2 2181   2.242   2.510   1.193 -0.1710  0.0394  0.1118
  743TIP3    H1 2182   2.225   2.418   1.215  1.3097 -0.4431 -0.7254
  743TIP3    H2 2183   2.195   2.525   1.111 -2.5609  0.7791  1.5731
  744TIP3   OH2 2184   2.653   2.833   3.085 -0.1627 -0.3799  0.1724
  744TIP3    H1 2185   2.705   2.876   3.152  0.5612  0.6160 -1.0148
  744TIP3    H2 2186   2.590   2.780   3.134  0.5008  0.1544  1.6269
  745TIP3   OH2 2187   1.196   2.570   0.068 -0.1056  0.3755  0.4998
  745TIP3    H1 2188   1.218   2.496   0.012 -1.5916  0.6184 -0.4285
  745TIP3    H2 2189   1.261   2.637   0.046 -0.3518  0.2733 -0.5377
  746TIP3   OH2 2190   3.294   7.098   5.422 -0.3344 -0.0897 -0.0231
  746TIP3    H1 2191   3.212   7.141   5.399 -1.3532 -0.7531  2.2710
  746TIP3    H2 2192   3.285   7.009   5.386 -1.9075 -1.1123  2.8125
  747TIP3   OH2 2193   2.031   3.747   0.696 -0.2844 -0.3480 -0.4863
  747TIP3    H1 2194   2.067   3.836   0.695 -0.2568 -0.3272  1.4253
  747TIP3    H2 2195   2.033   3.720   0.604 -0.7997  1.8306 -1.1692
  748TIP3   OH2 2196   2.168   2.956   4.496  0.0250  0.6824 -0.2772
  748TIP3    H1 2197   2.152   2.865   4.522  0.8905  0.1615 -1.5383
  748TIP3    H2 2198   2.203   2.951   4.407 -0.9173  2.3271 -0.7717
  749TIP3   OH2 2199   3.377   3.929   1.318  0.5712 -0.6207  0.3805
  749TIP3    H1 2200   3.336   3.947   1.234  1.9498 -1.8212 -0.5761
  749TIP3    H2 2201   3.360   4.007   1.370 -3.5553 -1.3446  0.3098
  750TIP3   OH2 2202   1.449   5.403   1.796  0.4661  0.2701 -0.4823
  750TIP3    H1 2203   1.519   5.363   1.847 -0.6785 -1.5567 -0.3234
  750TIP3    H2 2204   1.487   5.413   1.708  0.5460 -1.7574 -0.6869
  751TIP3   OH2 2205   3.663   4.671   1.302 -0.1478  0.3555  0.0555
  751TIP3    H1 2206   3.616   4.639   1.224 -1.2451 -1.4779  1.4132
  751TIP3    H2 2207   3.603   4.652   1.374  2.1497 -0.8100  1.6872
  752TIP3   OH2 2208   7.013   2.263   0.727 -0.0788  0.4471  0.2091
  752TIP3    H1 2209   6.924   2.295   0.742 -0.1292  0.3422  0.1333
  752TIP3    H2 2210   7.068   2.318   0.782 -0.3179 -0.2701  1.1798
  753TIP3   OH2 2211   0.752   4.263   1.890 -0.0339 -0.7166  0.3313
  753TIP3    H1 2212   0.804   4.343   1.897 -0.0538 -0.6900  0.1872
  753TIP3    H2 2213   0.757   4.223   1.976 -2.2239  0.7906  1.2063
  754TIP3   OH2 2214   0.883   4.953   2.513  0.2104  0.3928  0.2333
  754TIP3    H1 2215   0.816   4.928   2.449  0.8441 -1.9642  0.4510
  754TIP3    H2 2216   0.947   5.002   2.463  0.4613 -1.0276 -0.8678
  755TIP3   OH2 2217   2.180   4.081   0.783  0.2950  0.7170 -0.3858
  755TIP3    H1 2218   2.178   4.148   0.851 -0.3066  1.0751 -0.7531
  755TIP3    H2 2219   2.117   4.112   0.718 -0.1299 -0.3129 -0.4590
  756TIP3   OH2 2220   1.960   4.108   0.612 -0.2385 -0.0586  0.1703
  756TIP3    H1 2221   1.865   4.102   0.600 -0.1473 -2.1170  0.4079
  756TIP3    H2 2222   1.996   4.075   0.530  0.2741 -0.9961  0.7673
  757TIP3   OH2 2223   6.210   3.765   1.080 -0.0461 -0.3983  0.0434
  757TIP3    H1 2224   6.168   3.848   1.101 -1.4884 -0.5132 -2.1687
  757TIP3    H2 2225   6.232   3.772   0.987  0.7818 -2.0795  0.0865
  758TIP3   OH2 2226   2.696   1.695   1.211 -0.2571  0.1430  0.3554
  758TIP3    H1 2227   2.686   1.789   1.194 -0.4002 -0.1667 -1.3452
  758TIP3    H2 2228   2.748   1.663   1.137  1.4117 -0.7903  1.8792
  759TIP3   OH2 2229   0.757   3.821   0.574 -0.2560  0.1661 -0.6518
  759TIP3    H1 2230   0.706   3.897   0.602 -0.6695 -0.5186  0.4741
  759TIP3    H2 2231   0.741   3.755   0.641  1.0481 -0.5187 -0.9909
  760TIP3   OH2 2232   7.777   2.861   3.900  0.1874  0.0442  0.0753
  760TIP3    H1 2233   7.726   2.781   3.891 -1.3414  0.9019  0.9629
  760TIP3    H2 2234   7.857   2.834   3.945 -1.2233 -0.6517  2.2185
  761TIP3   OH2 2235   2.692   3.318   1.857 -0.2980  0.1380  0.4631
  761TIP3    H1 2236   2.617   3.266   1.888  1.0545 -0.9042  2.0724
  761TIP3    H2 2237   2.678   3.326   1.763 -2.7808  0.5131  0.8238
  762TIP3   OH2 2238   6.067   2.372   1.343 -1.0307 -0.0531  0.0879
  762TIP3    H1 2239   6.156   2.338   1.335 -0.4274  1.5322 -0.1616
  762TIP3    H2 2240   6.014   2.296   1.367  0.0869 -1.3721 -1.5278
  763TIP3   OH2 2241   0.981   2.748   5.579  0.5009  0.1553 -0.4943
  763TIP3    H1 2242   0.915   2.728   5.644  2.4265 -3.0831  0.5921
  763TIP3    H2 2243   0.938   2.734   5.495 -0.8296  0.3701  0.1433
  764TIP3   OH2 2244   2.762   6.523   6.216  0.3396 -0.5939  0.2196
  764TIP3    H1 2245   2.748   6.430   6.199 -0.0113 -0.1553 -2.0105
  764TIP3    H2 2246   2.857   6.535   6.209  0.3022 -0.6208 -0.2822
  765TIP3   OH2 2247   7.278   5.190   1.830  0.4641 -0.4530  0.2765
  765TIP3    H1 2248   7.215   5.185   1.902 -0.3269  0.3947 -0.3604
  765TIP3    H2 2249   7.319   5.276   1.839  0.6029 -0.4784 -0.0965
  766TIP3   OH2 2250   1.421   3.271   1.789 -0.5804  0.0450  0.4413
  766TIP3    H1 2251   1.416   3.260   1.884 -1.0698 -0.2861  0.3776
  766TIP3    H2 2252   1.515   3.277   1.770 -0.4392 -0.9032  0.8288
  767TIP3   OH2 2253   6.965   4.446   4.200  0.0736 -0.0538  0.2601
  767TIP3    H1 2254   6.905   4.372   4.190  0.2171 -0.5521  2.7419
  767TIP3    H2 2255   6.913   4.514   4.244  0.2882  0.8764 -0.9022
  768TIP3   OH2 2256   3.546   5.020   2.176 -0.5869 -0.0222 -0.0833
  768TIP3    H1 2257   3.576   4.969   2.101 -2.8185 -0.3270 -0.8235
  768TIP3    H2 2258   3.505   4.955   2.234 -2.5853  0.7594 -0.5761
  769TIP3   OH2 2259   2.582   2.519   1.277  0.3126 -0.5088  0.6044
  769TIP3    H1 2260   2.555   2.588   1.338  1.3779  0.1476  0.3471
  769TIP3    H2 2261   2.516   2.451   1.287 -1.0961  0.7995  0.4352
  770TIP3   OH2 2262   1.367   3.980   2.234  0.3906 -0.1383 -0.5608
  770TIP3    H1 2263   1.332   4.068   2.218  0.8530  0.0485 -0.5449
  770TIP3    H2 2264   1.290   3.923   2.232 -0.2625  0.6144  2.0731
  771TIP3   OH2 2265   3.483   5.042   1.312  0.1340  0.5067  1.3248
  771TIP3    H1 2266   3.543   5.016   1.382 -0.1233 -0.4086  1.2151
  771TIP3    H2 2267   3.400   5.060   1.357  0.1483  0.5494  1.3338
  772TIP3   OH2 2268   3.339   3.700   3.565 -0.0966 -0.4153 -0.3068
  772TIP3    H1 2269   3.417   3.730   3.612  0.6186  0.6213 -2.1123
  772TIP3    H2 2270   3.297   3.639   3.626  0.8689  0.7776  1.6250
  773TIP3   OH2 2271   1.915   6.403   6.046  0.1673  0.0452 -0.1424
  773TIP3    H1 2272   1.934   6.493   6.020  0.8939 -0.3037 -0.8579
  773TIP3    H2 2273   1.936   6.400   6.139 -0.9367  0.9034  0.1463
  774TIP3   OH2 2274   7.822   0.523   6.469 -0.4081 -0.4376  0.2414
  774TIP3    H1 2275   7.788   0.447   6.422 -0.4354  0.4807 -1.2741
  774TIP3    H2 2276   7.916   0.520   6.454 -0.5367  0.5087 -0.9320
  775TIP3   OH2 2277   1.028   4.077   1.160  0.5861 -0.0095  0.3032
  775TIP3    H1 2278   1.106   4.077   1.215  0.2579 -0.5719  0.7838
  775TIP3    H2 2279   1.016   3.986   1.135  0.7926  0.2594 -0.8040
  776TIP3   OH2 2280   0.411   6.363   1.712  0.4893 -0.2574 -0.0226
  776TIP3    H1 2281   0.351   6.388   1.782 -0.5153  1.0797 -1.3168
  776TIP3    H2 2282   0.426   6.269   1.726  1.2171  0.2412  2.6120
  777TIP3   OH2 2283   1.571   2.811   0.531 -1.0907  0.1377  0.1490
  777TIP3    H1 2284   1.603   2.788   0.618 -3.1179  0.3375  0.9502
  777TIP3    H2 2285   1.630   2.765   0.471  0.2362 -0.1003  1.6071
  778TIP3   OH2 2286   7.859   3.664   3.024  0.7118  0.3056  1.0410
  778TIP3    H1 2287   7.792   3.731   3.034 -1.5075 -1.8057  0.8393
  778TIP3    H2 2288   7.897   3.680   2.938 -0.7548  0.4853  0.4155
  779TIP3   OH2 2289   3.837   6.239   4.867  0.2281  0.0748 -0.0855
  779TIP3    H1 2290   3.779   6.175   4.827  0.3840 -0.4019  0.4429
  779TIP3    H2 2291   3.780   6.309   4.897  0.0680  0.2376 -0.7604
  780TIP3   OH2 2292   6.688   4.721   0.806 -0.5449  0.2086 -0.5575
  780TIP3    H1 2293   6.774   4.687   0.780 -1.3510 -1.5218 -1.0238
  780TIP3    H2 2294   6.642   4.735   0.724 -0.9544  0.4876 -0.2821
  781TIP3   OH2 2295   5.375   5.601   3.465  0.3026 -0.2507 -0.6773
  781TIP3    H1 2296   5.282   5.619   3.447  0.3890  0.2326 -0.6471
  781TIP3    H2 2297   5.378   5.583   3.559  0.2418 -0.2649 -0.6775
  782TIP3   OH2 2298   1.202   2.820   1.601 -0.1780 -0.8019 -0.3636
  782TIP3    H1 2299   1.265   2.879   1.642  0.9543 -2.3699  0.1912
  782TIP3    H2 2300   1.227   2.818   1.509 -0.3511 -0.2597 -0.4244
  783TIP3   OH2 2301   7.535   2.331   1.848  0.7384  0.0476 -0.1786
  783TIP3    H1 2302   7.506   2.324   1.939  1.4309 -2.4819 -0.0995
  783TIP3    H2 2303   7.630   2.334   1.853  0.7974 -0.5376 -0.8391
  784TIP3   OH2 2304   7.687   3.416   1.092  0.2317 -0.2153 -0.0684
  784TIP3    H1 2305   7.637   3.363   1.155  2.7078 -0.9769  1.3450
  784TIP3    H2 2306   7.684   3.365   1.011  1.5160 -1.9285  0.9328
  785TIP3   OH2 2307   3.414   2.510   3.454  0.1553 -0.0265  0.3753
  785TIP3    H1 2308   3.489   2.485   3.508  0.2600 -0.8957 -0.1649
  785TIP3    H2 2309   3.368   2.428   3.437 -2.8679  0.8978  3.5499
  786TIP3   OH2 2310   1.368   2.362   1.877 -0.0525 -0.6034  0.1996
  786TIP3    H1 2311   1.420   2.386   1.954  1.6092  0.7566 -1.2992
  786TIP3    H2 2312   1.318   2.441   1.856 -0.2921 -0.8815 -0.2903
  787TIP3   OH2 2313   0.888   2.898   1.545  0.2779  0.0657 -0.1119
  787TIP3    H1 2314   0.980   2.921   1.531  0.2814 -0.2696 -0.7068
  787TIP3    H2 2315   0.860   2.862   1.460  0.0255 -1.2336  0.4980
  788TIP3   OH2 2316   1.460   4.971   1.062  0.0023  0.2068  0.1975
  788TIP3    H1 2317   1.497   4.916   1.131  2.0862  0.8251 -0.3804
  788TIP3    H2 2318   1.466   4.918   0.982 -2.9326 -0.7297  0.5400
  789TIP3   OH2 2319   4.934   1.699   6.457  0.9187 -0.5737  1.1304
  789TIP3    H1 2320   4.969   1.788   6.462  1.1381 -0.5828 -0.2228
  789TIP3    H2 2321   4.945   1.673   6.366  0.0639 -1.6718  1.3238
  790TIP3   OH2 2322   2.355   3.749   0.219  0.4321 -0.0633  0.2602
  790TIP3    H1 2323   2.393   3.772   0.134 -0.1462  1.3123  0.3548
  790TIP3    H2 2324   2.324   3.660   0.208 -0.7054  0.5117 -1.3627
  791TIP3   OH2 2325   0.776   4.423   2.351  0.0922 -0.0912 -0.6169
  791TIP3    H1 2326   0.728   4.347   2.385  1.0528  0.8941  3.2055
  791TIP3    H2 2327   0.846   4.385   2.298 -0.5226 -1.7752 -0.2557
  792TIP3   OH2 2328   2.274   3.071   1.621 -0.0210 -0.4118 -0.1960
  792TIP3    H1 2329   2.204   3.033   1.568 -0.3094 -0.1082 -0.0337
  792TIP3    H2 2330   2.312   2.997   1.668 -1.5588 -0.3046  1.2559
  793TIP3   OH2 2331   1.821   4.534   2.077 -0.9094 -0.3008 -0.0251
  793TIP3    H1 2332   1.861   4.473   2.014 -0.4842 -0.4504  0.3881
  793TIP3    H2 2333   1.727   4.519   2.068 -0.9023  0.3291 -1.2851
  794TIP3   OH2 2334   1.599   4.794   0.055  0.0772  0.2077  0.3314
  794TIP3    H1 2335   1.537   4.766   0.122 -1.4297  0.5429 -0.8792
  794TIP3    H2 2336   1.642   4.871   0.093 -2.4619  1.8365  0.0187
  795TIP3   OH2 2337   1.267   4.218   0.744  0.1790  0.0918  0.1473
  795TIP3    H1 2338   1.172   4.209   0.753 -0.2281  3.0742 -0.6046
  795TIP3    H2 2339   1.298   4.131   0.720 -2.7240 -0.3290 -2.3440
  796TIP3   OH2 2340   2.860   4.698   2.519 -0.5488  0.1829 -0.0215
  796TIP3    H1 2341   2.940   4.663   2.558  0.0120 -0.8957 -2.0338
  796TIP3    H2 2342   2.885   4.785   2.488 -0.9081  0.9111  1.6858
  797TIP3   OH2 2343   3.504   3.998   2.799  0.4246  0.2477  0.1110
  797TIP3    H1 2344   3.474   4.045   2.722  1.2622 -0.1628 -0.4701
  797TIP3    H2 2345   3.482   4.055   2.873 -2.4190 -0.3322 -0.2157
  798TIP3   OH2 2346   1.762   4.566   1.096  0.4346  0.0551 -0.3913
  798TIP3    H1 2347   1.754   4.648   1.145 -1.2327 -1.0674  1.3228
  798TIP3    H2 2348   1.812   4.509   1.154  0.0728 -0.6918 -0.8124
  799TIP3   OH2 2349   6.707   3.246   1.260 -0.1783 -0.2433  0.5690
  799TIP3    H1 2350   6.624   3.286   1.234  0.1207  0.2171  0.3267
  799TIP3    H2 2351   6.713   3.167   1.207 -1.3927 -1.3023  1.9703
  800TIP3   OH2 2352   7.747   2.398   1.105 -0.4447 -0.3506 -0.1466
  800TIP3    H1 2353   7.801   2.436   1.174 -1.0816 -0.2210  0.2731
  800TIP3    H2 2354   7.798   2.413   1.025  0.5763 -1.0202  0.3497
  801TIP3   OH2 2355   7.579   4.629   0.725 -0.1139 -0.2224 -0.8737
  801TIP3    H1 2356   7.609   4.592   0.642  0.8394  2.4290 -1.7812
  801TIP3    H2 2357   7.652   4.683   0.755 -1.5825  1.2642  0.1447
  802TIP3   OH2 2358   1.729   3.645   0.687  0.2397 -0.5472 -0.0097
  802TIP3    H1 2359   1.795   3.712   0.702 -1.8506  1.5302  0.2872
  802TIP3    H2 2360   1.703   3.657   0.596 -1.2086  0.0996  0.4629
  803TIP3   OH2 2361   4.863   4.684   1.431 -0.3872  0.4487  0.0588
  803TIP3    H1 2362   4.893   4.728   1.352 -0.8241  2.7214  1.1306
  803TIP3    H2 2363   4.819   4.605   1.399 -0.3153  1.1938 -1.9314
  804TIP3   OH2 2364   5.409   6.306   6.168 -0.0689 -0.8240  0.6170
  804TIP3    H1 2365   5.388   6.371   6.102 -0.3306 -1.0997  0.4289
  804TIP3    H2 2366   5.501   6.322   6.189 -0.3603  0.1430  1.1787
  805TIP3   OH2 2367   4.287   6.098   6.174 -0.4523  0.0335 -0.1245
  805TIP3    H1 2368   4.376   6.118   6.146 -0.4588 -0.2601 -0.3558
  805TIP3    H2 2369   4.296   6.021   6.229 -0.5334  0.1545  0.0567
  806TIP3   OH2 2370   2.494   2.947   1.242  0.2414  0.8470 -0.1201
  806TIP3    H1 2371   2.428   3.008   1.209 -0.0045  0.0635 -1.1060
  806TIP3    H2 2372   2.507   2.885   1.170  0.8180 -0.0021  0.7114
  807TIP3   OH2 2373   7.464   3.002   3.145 -0.0231  0.5065 -0.2881
  807TIP3    H1 2374   7.535   3.066   3.140  2.0404 -1.1808  4.4569
  807TIP3    H2 2375   7.399   3.042   3.203  0.1527 -0.6797  0.7369
  808TIP3   OH2 2376   2.362   2.159   2.512 -0.8216  0.3925 -0.1464
  808TIP3    H1 2377   2.293   2.093   2.515  1.3556 -1.9746  0.1382
  808TIP3    H2 2378   2.409   2.140   2.431 -0.7600  2.2665 -0.5639
  809TIP3   OH2 2379   6.003   0.109   2.134  0.6081 -0.0059  0.1222
  809TIP3    H1 2380   5.962   0.036   2.088 -2.0404  1.1672  0.5433
  809TIP3    H2 2381   6.004   0.180   2.070 -2.2153  1.3367  1.4874
  810TIP3   OH2 2382   5.617   6.268   5.048  0.2201  0.2099  0.2395
  810TIP3    H1 2383   5.655   6.273   5.136 -1.4256 -0.9986  1.0399
  810TIP3    H2 2384   5.527   6.298   5.059 -0.2984 -0.8950 -0.8322
  811TIP3   OH2 2385   1.189   3.697   2.311  0.1986  0.0904  0.5551
  811TIP3    H1 2386   1.257   3.661   2.368 -1.3846  1.0931  3.2027
  811TIP3    H2 2387   1.116   3.635   2.319  0.4855 -0.5322 -1.5686
  812TIP3   OH2 2388   1.516   3.978   0.097  0.0718 -0.1930 -0.3580
  812TIP3    H1 2389   1.540   3.885   0.097  1.1376  0.0753 -1.4713
  812TIP3    H2 2390   1.439   3.983   0.040 -0.9443 -0.6120  0.9382
  813TIP3   OH2 2391   0.088   3.013   0.972  0.6863 -0.3240 -0.3225
  813TIP3    H1 2392   0.167   3.038   1.020  0.2192 -0.4442  0.5143
  813TIP3    H2 2393   0.034   2.968   1.037  0.1645 -0.7259 -1.0296
  814TIP3   OH2 2394   6.462   2.793   0.701 -0.2652 -0.1733  0.2075
  814TIP3    H1 2395   6.511   2.772   0.622  1.6543 -0.0897  1.3249
  814TIP3    H2 2396   6.377   2.824   0.670  1.0689  1.5129 -1.9050
  815TIP3   OH2 2397   0.024   4.498   2.418  0.3521  0.2274 -0.0034
  815TIP3    H1 2398   0.113   4.484   2.385  0.5058  3.4089 -1.0989
  815TIP3    H2 2399  -0.027   4.521   2.341 -0.9132  0.6188  0.9419
  816TIP3   OH2 2400   1.503   3.739   3.399  0.3467  0.2562  0.0267
  816TIP3    H1 2401   1.452   3.760   3.477 -1.2635 -0.4493 -0.8037
  816TIP3    H2 2402   1.439   3.741   3.327  1.4789 -0.6827 -1.0331
  817TIP3   OH2 2403   0.134   2.663   1.052  0.0928  0.2329 -0.3518
  817TIP3    H1 2404   0.228   2.651   1.061 -0.1390 -1.4569 -0.1497
  817TIP3    H2 2405   0.104   2.588   1.001 -0.9652  1.4367 -1.5612
  818TIP3   OH2 2406   1.411   4.815   2.051 -0.3559  0.0112 -0.7178
  818TIP3    H1 2407   1.390   4.747   2.114  0.0810  0.8127  0.3083
  818TIP3    H2 2408   1.404   4.772   1.965 -1.6401 -0.8980 -0.1677
  819TIP3   OH2 2409   3.272   7.028   6.318 -0.2489 -0.1014  0.0156
  819TIP3    H1 2410   3.235   7.047   6.231 -0.4563 -0.3475  0.0505
  819TIP3    H2 2411   3.344   7.091   6.327 -2.4789  2.3886  1.1335
  820TIP3   OH2 2412   3.889   5.851   2.250  0.3066 -0.0874 -0.3461
  820TIP3    H1 2413   3.907   5.771   2.299 -0.8668  1.3034  2.4652
  820TIP3    H2 2414   3.886   5.823   2.158  1.4194 -2.9652  0.4557
  821TIP3   OH2 2415   5.466   5.034   4.346  0.3345 -0.2693 -0.0475
  821TIP3    H1 2416   5.471   4.985   4.428 -0.1794 -0.3387 -0.0545
  821TIP3    H2 2417   5.412   5.111   4.367  0.7973  0.0810 -0.1392
  822TIP3   OH2 2418   1.075   4.186   1.875 -0.2545  0.0577  0.1756
  822TIP3    H1 2419   1.071   4.169   1.781 -2.2653 -1.6510  0.5159
  822TIP3    H2 2420   1.052   4.102   1.915 -0.3113  1.0019  2.1633
  823TIP3   OH2 2421   1.938   6.373   6.314 -0.1856  0.6239  0.3326
  823TIP3    H1 2422   1.854   6.328   6.321  0.0674  0.1157  0.1122
  823TIP3    H2 2423   1.992   6.335   6.384  0.6436 -0.7698 -1.0388
  824TIP3   OH2 2424   5.443   0.546   5.556 -0.4951  0.2432  0.0339
  824TIP3    H1 2425   5.423   0.589   5.639 -0.8691  2.8780 -1.3897
  824TIP3    H2 2426   5.358   0.519   5.521 -0.2737 -1.6156  0.8570
  825TIP3   OH2 2427   7.077   0.982   5.527  0.2801  0.3921  0.8992
  825TIP3    H1 2428   7.168   0.998   5.550 -0.2445  1.3267  2.4048
  825TIP3    H2 2429   7.056   0.897   5.566  0.1993  0.6970  1.5358
  826TIP3   OH2 2430   1.309   3.800   0.946  0.4642 -0.0431  0.4267
  826TIP3    H1 2431   1.348   3.881   0.981 -0.8521 -0.1178  2.1465
  826TIP3    H2 2432   1.248   3.830   0.879 -0.2824  0.4292  1.3070
  827TIP3   OH2 2433   5.269   4.526  -0.034  0.5746  0.1929  0.3346
  827TIP3    H1 2434   5.219   4.593   0.011 -3.9634 -2.3002 -0.6427
  827TIP3    H2 2435   5.272   4.453   0.027 -0.9492 -1.2684 -1.2691
  828TIP3   OH2 2436   0.270   3.700   1.637  0.1765 -0.0835 -0.5172
  828TIP3    H1 2437   0.188   3.690   1.589  0.0832  2.3417 -0.9056
  828TIP3    H2 2438   0.244   3.701   1.729 -0.2574  0.7667 -0.6436
  829TIP3   OH2 2439   7.592   2.550   0.912 -0.6389  0.5659 -0.2202
  829TIP3    H1 2440   7.595   2.455   0.902  2.2309  0.5326  0.6225
  829TIP3    H2 2441   7.609   2.584   0.825  0.9307  0.2949 -0.0266
  830TIP3   OH2 2442   1.116   1.136   1.309 -0.3554  0.1030  0.5427
  830TIP3    H1 2443   1.063   1.165   1.383  1.5011  0.9210  1.5857
  830TIP3    H2 2444   1.190   1.089   1.349  0.4717  0.2210 -0.8000
  831TIP3   OH2 2445   4.456   6.973   6.091 -0.2466 -0.0947  0.5043
  831TIP3    H1 2446   4.450   6.879   6.111  1.4694 -0.1881  0.7017
  831TIP3    H2 2447   4.512   7.009   6.161  1.5172  0.5148 -1.1671
  832TIP3   OH2 2448   1.686   3.286   1.215 -0.5514  1.0061  0.2495
  832TIP3    H1 2449   1.663   3.276   1.123  2.2918  2.4285 -0.6991
  832TIP3    H2 2450   1.762   3.228   1.226 -1.1139  0.5540  1.8103
  833TIP3   OH2 2451   1.815   3.097   1.720  0.5591  0.4087  0.1222
  833TIP3    H1 2452   1.795   3.087   1.813  0.0349 -0.3698 -0.0719
  833TIP3    H2 2453   1.842   3.010   1.692 -0.3344  0.3960 -0.7045
  834TIP3   OH2 2454   1.094   4.322   2.479  0.1468 -0.1664  0.0463
  834TIP3    H1 2455   1.051   4.273   2.549  2.5902  0.2649  1.9468
  834TIP3    H2 2456   1.151   4.258   2.436  0.7477  0.2000  0.2852
  835TIP3   OH2 2457   2.841   6.238   6.259  0.1997 -0.3709 -0.1909
  835TIP3    H1 2458   2.920   6.291   6.261 -0.3296  0.5666 -2.5284
  835TIP3    H2 2459   2.869   6.153   6.227  0.0393  0.4565 -2.6374
  836TIP3   OH2 2460   1.168   7.313   6.068  0.0184 -0.3371 -0.2984
  836TIP3    H1 2461   1.145   7.387   6.011  0.0633  0.7472  1.0679
  836TIP3    H2 2462   1.255   7.287   6.040  0.9733  1.6404  0.7121
  837TIP3   OH2 2463   1.872   2.470   2.377 -0.2765 -0.4547 -0.9018
  837TIP3    H1 2464   1.873   2.391   2.431  1.5628  0.1309 -0.0115
  837TIP3    H2 2465   1.938   2.454   2.309  0.5704  0.5388 -0.3366
  838TIP3   OH2 2466   2.749   6.446   5.376 -0.4408  0.4586  0.1149
  838TIP3    H1 2467   2.719   6.356   5.382  0.8688  0.0815  1.1840
  838TIP3    H2 2468   2.777   6.456   5.285 -1.2529  0.0179 -0.1920
  839TIP3   OH2 2469   2.075   2.907   2.108  0.2870 -0.4358 -0.2105
  839TIP3    H1 2470   2.040   2.953   2.185  0.9442 -0.5209  0.1414
  839TIP3    H2 2471   2.037   2.819   2.114  2.9945 -1.5533  1.9222
  840TIP3   OH2 2472   1.542   5.266   4.960  0.1655  0.1276 -0.2321
  840TIP3    H1 2473   1.538   5.352   4.919  0.5098 -0.5204 -1.6445
  840TIP3    H2 2474   1.622   5.226   4.927 -0.4878 -1.1148 -0.3643
  841TIP3   OH2 2475   1.560   3.959   2.440 -1.1558 -0.1306  0.1367
  841TIP3    H1 2476   1.502   3.953   2.365 -0.8548 -1.8697  0.0075
  841TIP3    H2 2477   1.532   3.888   2.498 -0.5507  0.3740  1.0638
  842TIP3   OH2 2478   2.300   2.974   1.958  0.3019  0.0849  0.0062
  842TIP3    H1 2479   2.224   2.970   2.016  1.0708 -2.2796  0.9103
  842TIP3    H2 2480   2.267   2.938   1.875  0.1069  0.2305  0.0195
  843TIP3   OH2 2481   6.093   0.470   5.533  0.1331  0.2137  0.8479
  843TIP3    H1 2482   6.030   0.501   5.469  1.4091  0.7949 -0.1395
  843TIP3    H2 2483   6.042   0.456   5.613 -1.5421 -0.9329 -0.4017
  844TIP3   OH2 2484   3.218   3.291   2.469 -0.3067 -0.1648 -0.2208
  844TIP3    H1 2485   3.225   3.310   2.563 -0.3892  2.6149 -0.7076
  844TIP3    H2 2486   3.131   3.253   2.459 -0.5897  0.1940  0.7579
  845TIP3   OH2 2487   4.567   5.644   2.281 -0.0882  0.6400  0.5000
  845TIP3    H1 2488   4.619   5.576   2.238  0.0242  1.3796 -0.5430
  845TIP3    H2 2489   4.484   5.601   2.301  0.5262 -0.2428  1.2315
  846TIP3   OH2 2490   1.780   2.762   1.740  0.0221 -0.0542 -0.5095
  846TIP3    H1 2491   1.837   2.685   1.733  0.0627 -0.1762  1.0213
  846TIP3    H2 2492   1.768   2.774   1.834 -1.0043  1.0704 -0.7803
  847TIP3   OH2 2493   2.721   2.337   3.261  0.0170 -0.3763 -0.2836
  847TIP3    H1 2494   2.699   2.330   3.168  2.7570 -2.4567 -0.8513
  847TIP3    H2 2495   2.684   2.258   3.300  0.6740 -0.5646 -0.0245
  848TIP3   OH2 2496   3.918   5.055   5.533  0.1607 -0.8437  0.1008
  848TIP3    H1 2497   3.848   5.021   5.589  0.0292 -0.3089  0.2582
  848TIP3    H2 2498   3.894   5.146   5.517 -0.1271 -1.1643 -1.3380
  849TIP3   OH2 2499   0.636   2.937   0.516  0.4601  0.5902  0.3824
  849TIP3    H1 2500   0.682   3.000   0.571  0.5281  1.4202 -0.6177
  849TIP3    H2 2501   0.544   2.961   0.524  0.4363  0.4968  0.3949
  850TIP3   OH2 2502   0.104   2.051   4.161  0.0588  0.2897 -0.0083
  850TIP3    H1 2503   0.194   2.019   4.156 -0.3077 -0.7353 -0.2126
  850TIP3    H2 2504   0.059   2.008   4.088 -1.2311 -1.3387  1.6856
  851TIP3   OH2 2505   2.207   4.579   2.633 -0.0506  0.3527  0.3437
  851TIP3    H1 2506   2.135   4.601   2.575  1.0629  0.6198 -0.9483
  851TIP3    H2 2507   2.273   4.647   2.618  2.0606 -1.9311 -1.2988
  852TIP3   OH2 2508   1.194   2.138   1.435 -0.0676 -0.0388 -0.3949
  852TIP3    H1 2509   1.139   2.096   1.369  0.1827 -0.6076 -0.2409
  852TIP3    H2 2510   1.195   2.077   1.508  1.3859 -0.3961 -0.6916
  853TIP3   OH2 2511   3.922   4.188   1.383 -0.1562  0.4645  0.0701
  853TIP3    H1 2512   3.960   4.139   1.309 -0.8478 -0.8178  0.5460
  853TIP3    H2 2513   3.858   4.128   1.421 -0.4694  1.4680  1.1527
  854TIP3   OH2 2514   1.218   2.673   3.394 -0.4066  0.4427  0.7542
  854TIP3    H1 2515   1.159   2.690   3.467  0.7282  1.5880  1.4190
  854TIP3    H2 2516   1.261   2.590   3.416 -0.6619  0.3764  0.9980
  855TIP3   OH2 2517   0.286   3.027   2.101 -0.3800 -0.1770  0.1590
  855TIP3    H1 2518   0.354   3.077   2.056 -0.2010  0.1046  0.7418
  855TIP3    H2 2519   0.334   2.974   2.165 -0.4056 -2.3363 -1.5832
  856TIP3   OH2 2520   1.393   4.427   1.231 -0.0822  0.1006 -0.5688
  856TIP3    H1 2521   1.417   4.409   1.140 -0.6404  0.9750 -0.8923
  856TIP3    H2 2522   1.302   4.457   1.226  0.4069  1.7454  0.0967
  857TIP3   OH2 2523   3.286   2.492   1.732  0.4363 -0.6204 -0.5476
  857TIP3    H1 2524   3.340   2.418   1.758  0.1497 -0.5195  0.3425
  857TIP3    H2 2525   3.321   2.567   1.781  0.4941 -0.2435 -1.1633
  858TIP3   OH2 2526   2.028   0.817   0.981 -0.8680  0.0195 -0.1064
  858TIP3    H1 2527   2.046   0.891   1.039  0.1568  0.7349 -1.3017
  858TIP3    H2 2528   2.066   0.741   1.026 -1.8284  0.2364  1.0711
  859TIP3   OH2 2529   0.225   3.707   2.190 -0.0141  0.2130 -0.3164
  859TIP3    H1 2530   0.239   3.780   2.251 -2.1415  0.2111  0.2185
  859TIP3    H2 2531   0.267   3.736   2.109  0.2438  1.4918  0.2543
  860TIP3   OH2 2532   1.234   3.078   2.296  0.1612 -0.1069  0.1151
  860TIP3    H1 2533   1.187   3.117   2.370  0.8303 -1.8899  1.5199
  860TIP3    H2 2534   1.325   3.072   2.326  0.0421 -2.9335  0.0560
  861TIP3   OH2 2535   7.818   2.411   1.895  0.3162 -0.0123  0.3088
  861TIP3    H1 2536   7.908   2.378   1.900  0.4577  0.3353  0.0346
  861TIP3    H2 2537   7.826   2.496   1.853 -0.0768  0.2764  0.8123
  862TIP3   OH2 2538   0.918   2.878   0.974  0.4359  0.2002  0.0159
  862TIP3    H1 2539   0.935   2.885   1.068  0.1129  0.1247  0.0808
  862TIP3    H2 2540   0.996   2.916   0.933  1.8006 -2.2283  0.2630
  863TIP3   OH2 2541   0.457   2.478   1.563 -0.0713 -0.1339  0.1239
  863TIP3    H1 2542   0.493   2.392   1.586 -1.3996 -1.2098 -1.7072
  863TIP3    H2 2543   0.382   2.488   1.621 -0.3968 -0.5646 -0.2256
  864TIP3   OH2 2544   5.240   0.435   0.226 -0.5652  0.2444 -0.3655
  864TIP3    H1 2545   5.190   0.517   0.226 -1.2350 -0.1597  0.4831
  864TIP3    H2 2546   5.317   0.453   0.279 -0.4884  0.4624 -0.5525
  865TIP3   OH2 2547   4.134   5.407   2.697 -0.0081 -0.3519 -0.0506
  865TIP3    H1 2548   4.163   5.334   2.642  0.3363  0.2583 -0.6881
  865TIP3    H2 2549   4.136   5.373   2.786  0.9766 -0.8522 -0.2634
  866TIP3   OH2 2550   0.476   4.965   2.241 -0.2267  0.3146 -0.2684
  866TIP3    H1 2551   0.503   4.953   2.150  0.7632 -1.7627  0.2702
  866TIP3    H2 2552   0.532   5.037   2.273  1.2430 -0.6602 -0.5845
  867TIP3   OH2 2553   2.778   1.752   1.496  0.1630  0.4067  0.1177
  867TIP3    H1 2554   2.850   1.812   1.518 -0.5439  1.5820 -0.6669
  867TIP3    H2 2555   2.797   1.724   1.407  1.3881 -1.9040  1.0714
  868TIP3   OH2 2556   3.592   2.580   1.828  0.0422 -0.0329  0.1351
  868TIP3    H1 2557   3.563   2.669   1.806  0.8772  0.2255  0.0190
  868TIP3    H2 2558   3.648   2.592   1.905  1.0430 -0.3163 -0.5403
  869TIP3   OH2 2559   1.387   2.527   0.501  0.8365 -0.3571  0.2041
  869TIP3    H1 2560   1.409   2.597   0.562  1.7478 -0.3440 -0.1347
  869TIP3    H2 2561   1.291   2.522   0.504  0.7046  1.4996 -0.4364
  870TIP3   OH2 2562   7.398   1.310   6.393 -0.4767  0.1086  0.0367
  870TIP3    H1 2563   7.447   1.228   6.387 -1.6478 -0.4818 -1.8928
  870TIP3    H2 2564   7.466   1.377   6.400  0.5147 -0.9395  0.6204
  871TIP3   OH2 2565   0.347   4.166   2.084 -0.2154  0.4865 -0.3448
  871TIP3    H1 2566   0.252   4.155   2.088 -0.3020  1.3381 -0.0065
  871TIP3    H2 2567   0.381   4.107   2.151 -0.3508 -1.5564 -2.0183
  872TIP3   OH2 2568   3.903   6.813   5.614  0.1749 -0.0382 -0.9678
  872TIP3    H1 2569   3.880   6.760   5.691 -0.4654 -1.3813 -2.0744
  872TIP3    H2 2570   3.981   6.861   5.641 -0.2848 -0.1648  0.6777
  873TIP3   OH2 2571   2.769   4.521   1.212  0.2391 -0.0949 -0.3849
  873TIP3    H1 2572   2.836   4.485   1.154  0.7896 -0.4802  0.4677
  873TIP3    H2 2573   2.772   4.615   1.198  1.6353 -0.0157  0.3316
  874TIP3   OH2 2574   3.916   3.487   3.437  0.0746 -0.5794 -0.2166
  874TIP3    H1 2575   3.867   3.406   3.424  1.3206 -1.2453 -0.8226
  874TIP3    H2 2576   3.953   3.507   3.351 -1.6279  1.5726 -0.4824
  875TIP3   OH2 2577   0.906   3.704   3.377 -0.5396  0.2761 -1.1020
  875TIP3    H1 2578   0.906   3.727   3.284 -1.0360 -0.6115 -1.3243
  875TIP3    H2 2579   0.871   3.615   3.380  2.7370 -1.0818 -0.4216
  876TIP3   OH2 2580   1.000   1.817   1.569  0.0432  0.3271  0.1705
  876TIP3    H1 2581   0.945   1.893   1.551 -1.9274 -1.0524  0.1936
  876TIP3    H2 2582   0.946   1.742   1.544  2.2543 -1.0437 -0.6414
  877TIP3   OH2 2583   4.732   7.423   6.356 -0.2715  0.6055 -0.2377
  877TIP3    H1 2584   4.699   7.340   6.391  1.2838  0.4594  0.9613
  877TIP3    H2 2585   4.661   7.485   6.369 -0.5597  0.0078  1.1265
  878TIP3   OH2 2586   4.385   3.678   2.245 -1.1521 -0.0432  0.1862
  878TIP3    H1 2587   4.421   3.673   2.156  0.3984 -0.2182  0.8030
  878TIP3    H2 2588   4.305   3.730   2.236 -1.4870 -0.8149 -1.4512
  879TIP3   OH2 2589   3.013   3.841   0.982  0.7437  0.1403  0.4197
  879TIP3    H1 2590   3.087   3.901   0.977 -0.0201  1.0635  0.0548
  879TIP3    H2 2591   2.936   3.898   0.982 -0.0192 -0.8721 -0.7826
  880TIP3   OH2 2592   2.579   2.921   0.825  0.0259  0.3223 -0.4168
  880TIP3    H1 2593   2.601   2.840   0.872  0.0426  0.4968 -0.1294
  880TIP3    H2 2594   2.552   2.890   0.738 -2.9044 -0.2337  0.6358
  881TIP3   OH2 2595   0.023   2.102   1.859  0.5193  0.0096 -0.0442
  881TIP3    H1 2596   0.043   2.165   1.790 -0.2762 -0.0320 -0.3222
  881TIP3    H2 2597  -0.062   2.066   1.834 -1.3465  2.3517  2.6306
  882TIP3   OH2 2598   3.231   3.216   0.857  0.3300  0.5222  0.1094
  882TIP3    H1 2599   3.272   3.132   0.834  0.1169  0.7137 -1.0118
  882TIP3    H2 2600   3.245   3.271   0.780  0.4519  1.5217  0.8336
  883TIP3   OH2 2601   3.686   6.666   5.104  0.1436 -0.2102  0.0665
  883TIP3    H1 2602   3.722   6.755   5.102  0.4370 -0.3386 -2.2027
  883TIP3    H2 2603   3.601   6.675   5.147  0.7231  0.9409  1.0117
  884TIP3   OH2 2604   0.311   3.792   2.890 -0.1648 -0.3303  0.0901
  884TIP3    H1 2605   0.356   3.794   2.974  0.4778  0.9218 -0.2706
  884TIP3    H2 2606   0.257   3.872   2.889  1.9059  1.1080 -1.7796
  885TIP3   OH2 2607   0.374   1.278   3.757  0.0597  0.2321 -0.0302
  885TIP3    H1 2608   0.359   1.272   3.663  0.0212 -1.9729  0.0777
  885TIP3    H2 2609   0.450   1.221   3.772 -1.0940 -0.9176  1.5205
  886TIP3   OH2 2610   3.053   1.760   2.754  0.2078 -0.5718 -0.8102
  886TIP3    H1 2611   3.095   1.832   2.706 -0.9949 -0.1501 -1.2660
  886TIP3    H2 2612   2.959   1.777   2.744 -0.0778 -0.7038  1.3485
  887TIP3   OH2 2613   1.720   2.137   2.297 -0.5855 -0.2370  0.1370
  887TIP3    H1 2614   1.690   2.050   2.273 -1.6909 -0.4807  2.2482
  887TIP3    H2 2615   1.696   2.192   2.223  1.9054 -2.0308 -2.0931
  888TIP3   OH2 2616   1.391   2.574   2.211  0.0142  0.3072  0.6633
  888TIP3    H1 2617   1.365   2.625   2.134  0.0955 -0.4166  0.1457
  888TIP3    H2 2618   1.415   2.639   2.276 -0.2358  0.9348  0.1355
  889TIP3   OH2 2619   0.167   2.630   3.263  0.2296 -0.6126 -0.2340
  889TIP3    H1 2620   0.148   2.626   3.357 -1.4542  0.4963 -0.4923
  889TIP3    H2 2621   0.228   2.704   3.255 -2.1498  1.4231 -0.3333
  890TIP3   OH2 2622   1.278   4.590   2.112 -0.2835  0.3428  0.3769
  890TIP3    H1 2623   1.226   4.563   2.188 -0.9805  0.6632  0.0119
  890TIP3    H2 2624   1.244   4.538   2.040  0.1844  0.2516  0.2225
  891TIP3   OH2 2625   1.664   6.340   1.033  0.3067  0.6293  0.0847
  891TIP3    H1 2626   1.628   6.258   1.069  1.1502  0.6539  0.9861
  891TIP3    H2 2627   1.645   6.334   0.939 -1.3071  0.2566  0.4127
  892TIP3   OH2 2628   0.692   3.782   4.512  0.9896  0.6592 -0.3102
  892TIP3    H1 2629   0.637   3.847   4.557 -0.5615  1.1411 -2.8032
  892TIP3    H2 2630   0.743   3.834   4.449 -0.6315 -0.5159 -2.6921
  893TIP3   OH2 2631   0.630   5.643   2.890  0.3675  0.4478 -0.5234
  893TIP3    H1 2632   0.607   5.686   2.972 -0.9044  1.6293 -1.4716
  893TIP3    H2 2633   0.546   5.615   2.853  0.6451  2.2929 -2.6649
  894TIP3   OH2 2634   7.301   4.138   0.253  0.5012  0.1166 -0.2497
  894TIP3    H1 2635   7.346   4.080   0.314  0.5244 -0.2364 -0.5981
  894TIP3    H2 2636   7.279   4.216   0.304  1.9568  0.5121 -0.1968
  895TIP3   OH2 2637   4.103   1.132   6.436 -0.6066 -0.4563 -0.0707
  895TIP3    H1 2638   4.105   1.078   6.357  1.2760 -1.4773  0.6263
  895TIP3    H2 2639   4.151   1.080   6.501 -1.2795  0.7960  1.4594
  896TIP3   OH2 2640   7.131   0.975   6.453  0.5333 -0.4142  0.0652
  896TIP3    H1 2641   7.036   0.990   6.451  0.4948 -0.1634  2.4106
  896TIP3    H2 2642   7.155   0.959   6.362 -1.3611  2.0075 -0.8934
  897TIP3   OH2 2643   3.023   4.003   1.670 -0.3205  0.2923 -0.0400
  897TIP3    H1 2644   3.081   3.927   1.679  1.8523  1.8008 -0.7855
  897TIP3    H2 2645   2.954   3.988   1.734 -0.1164 -2.4666 -0.4142
  898TIP3   OH2 2646   3.396   5.786   2.909 -0.1610 -0.2213 -0.0102
  898TIP3    H1 2647   3.477   5.800   2.859  0.6618 -0.4081  1.2327
  898TIP3    H2 2648   3.425   5.785   3.001 -1.6158 -0.0281  0.4616
  899TIP3   OH2 2649   0.888   7.235   0.401  0.0568  0.4374 -0.2971
  899TIP3    H1 2650   0.834   7.160   0.377 -0.5112  0.4049  1.0530
  899TIP3    H2 2651   0.869   7.250   0.494  1.1220  1.4546 -0.2298
  900TIP3   OH2 2652   1.183   4.849   1.380  0.2252 -0.1705  0.9543
  900TIP3    H1 2653   1.139   4.778   1.425 -0.8757  0.3373  0.6917
  900TIP3    H2 2654   1.272   4.818   1.367  0.2433 -0.7716  2.4608
  901TIP3   OH2 2655   7.162   3.675   2.533  1.1321  0.4694 -0.2271
  901TIP3    H1 2656   7.230   3.644   2.473  0.9825 -0.1780 -0.0708
  901TIP3    H2 2657   7.081   3.641   2.496  0.9172  1.0118 -0.2633
  902TIP3   OH2 2658   7.114   3.598   2.821 -0.1256  0.5101 -0.0049
  902TIP3    H1 2659   7.067   3.663   2.874 -2.6740  0.2676 -1.9195
  902TIP3    H2 2660   7.133   3.644   2.739 -0.0739 -0.5244 -0.5703
  903TIP3   OH2 2661   1.526   1.639   0.613  0.0278  0.1402  0.7465
  903TIP3    H1 2662   1.586   1.587   0.666  0.6371 -0.1498 -0.2259
  903TIP3    H2 2663   1.582   1.697   0.562 -0.5812  0.8045  0.8073
  904TIP3   OH2 2664   0.410   3.859   0.242  0.1466  0.5532  0.1711
  904TIP3    H1 2665   0.422   3.851   0.147 -0.6693 -0.7142  0.1698
  904TIP3    H2 2666   0.482   3.809   0.280 -0.5267 -0.3912  0.2079
  905TIP3   OH2 2667   3.761   3.980   1.478  0.2760 -0.5195  0.7550
  905TIP3    H1 2668   3.735   3.917   1.411 -1.2652  1.0312 -0.1599
  905TIP3    H2 2669   3.708   3.957   1.555 -1.9924  1.0452 -0.2991
  906TIP3   OH2 2670   1.093   1.318   1.106 -0.3908 -0.4381  0.3325
  906TIP3    H1 2671   1.090   1.255   1.177  0.8107  0.6333  1.3610
  906TIP3    H2 2672   1.155   1.385   1.136 -1.7286  1.2815 -0.6776
  907TIP3   OH2 2673   1.017   3.362  -0.019 -0.1839 -0.2579  0.2380
  907TIP3    H1 2674   1.087   3.309   0.019  0.0811 -1.2369 -1.5521
  907TIP3    H2 2675   0.978   3.408   0.055  1.9909 -0.1263  1.3254
  908TIP3   OH2 2676   3.512   4.788   5.203 -0.6099  0.2710 -0.5097
  908TIP3    H1 2677   3.436   4.793   5.260 -0.8689  1.4578 -0.9394
  908TIP3    H2 2678   3.549   4.877   5.205  0.9125 -0.3669 -0.0884
  909TIP3   OH2 2679   5.264   6.191   3.750 -0.0322 -0.1751 -0.6540
  909TIP3    H1 2680   5.326   6.261   3.728  0.2394  0.0998  0.8933
  909TIP3    H2 2681   5.180   6.237   3.764  0.4346  0.0488  1.6534
  910TIP3   OH2 2682   7.795   3.602   2.017 -0.3968 -0.0742 -0.0796
  910TIP3    H1 2683   7.863   3.620   1.952 -0.4728 -0.6234 -0.3133
  910TIP3    H2 2684   7.721   3.657   1.990 -0.3384 -0.1054 -0.3021
  911TIP3   OH2 2685   0.547   4.035   3.083  0.0800  0.1646 -0.0679
  911TIP3    H1 2686   0.600   4.077   3.016  1.1424 -2.8736 -1.2247
  911TIP3    H2 2687   0.457   4.056   3.059  0.5424  0.9517 -1.1697
  912TIP3   OH2 2688   3.666   2.233   3.156 -0.0971  0.2041 -0.4673
  912TIP3    H1 2689   3.757   2.259   3.175  0.2843 -1.5390  0.1712
  912TIP3    H2 2690   3.628   2.216   3.241 -0.6024 -0.4492 -0.8205
  913TIP3   OH2 2691   3.682   3.534   0.059 -0.7688 -0.2035  0.3769
  913TIP3    H1 2692   3.625   3.460   0.039  1.3129 -1.4174 -1.2759
  913TIP3    H2 2693   3.708   3.568  -0.026  2.2114 -0.6911  1.0479
  914TIP3   OH2 2694   0.535   3.948   1.227 -0.1627 -0.0659  0.3152
  914TIP3    H1 2695   0.510   3.900   1.306 -2.6420  0.2833 -0.2368
  914TIP3    H2 2696   0.453   3.972   1.185  1.0934 -0.1870 -2.3734
  915TIP3   OH2 2697   5.408   6.402   6.433 -0.4660  0.5676  0.3657
  915TIP3    H1 2698   5.385   6.393   6.340 -1.2657  0.6653  0.5498
  915TIP3    H2 2699   5.503   6.415   6.433 -0.5673  1.3295 -0.4864
  916TIP3   OH2 2700   2.313   4.399   1.238 -0.3078 -0.3887 -0.1223
  916TIP3    H1 2701   2.301   4.315   1.282  1.0111  0.5020  2.0121
  916TIP3    H2 2702   2.238   4.452   1.267  0.2923  0.0323  0.6811
  917TIP3   OH2 2703   7.475   0.880   6.348 -0.0857 -0.4466 -0.1562
  917TIP3    H1 2704   7.464   0.785   6.344 -1.4982 -0.3517  0.9767
  917TIP3    H2 2705   7.567   0.892   6.371  0.8713 -1.4547 -3.2032
  918TIP3   OH2 2706   5.284   5.226   4.611 -0.8707  0.4291  0.8055
  918TIP3    H1 2707   5.234   5.280   4.550 -0.6689  1.3586  1.4488
  918TIP3    H2 2708   5.238   5.142   4.612 -0.5780  0.2310 -1.0087
  919TIP3   OH2 2709   2.747   4.563   1.466  0.5845 -0.3353  0.1868
  919TIP3    H1 2710   2.777   4.525   1.384  3.1902  2.8838 -0.4786
  919TIP3    H2 2711   2.823   4.557   1.524 -0.4543 -0.3633  1.5719
  920TIP3   OH2 2712   2.379   3.191   0.106  0.1330 -0.1049 -0.1646
  920TIP3    H1 2713   2.326   3.123   0.064  0.7601 -0.1095 -0.9789
  920TIP3    H2 2714   2.450   3.143   0.149  0.6923  0.0408 -0.9140
  921TIP3   OH2 2715   0.989   0.017   4.754 -0.0677  0.6762  0.5253
  921TIP3    H1 2716   0.955   0.052   4.836  0.1955 -1.2688  1.5039
  921TIP3    H2 2717   1.082   0.002   4.772 -0.2956 -1.0216  0.3190
  922TIP3   OH2 2718   7.764   6.919   5.787  0.0691 -0.2797  0.2457
  922TIP3    H1 2719   7.696   6.958   5.843  0.6694  1.2166 -0.0289
  922TIP3    H2 2720   7.715   6.875   5.717 -0.6738  3.5464 -1.8080
  923TIP3   OH2 2721   5.369   4.977   0.045 -0.2112  0.0604  0.2103
  923TIP3    H1 2722   5.342   4.885   0.056 -3.7821  0.6425 -2.7133
  923TIP3    H2 2723   5.436   4.974  -0.023 -1.7273 -0.2121 -1.2941
  924TIP3   OH2 2724   2.833   1.855   0.438  0.1423  0.5917 -0.1669
  924TIP3    H1 2725   2.780   1.794   0.489  0.2451  1.1707  0.6532
  924TIP3    H2 2726   2.770   1.902   0.384 -0.2484  1.5922  1.1341
  925TIP3   OH2 2727   1.274   0.190   4.439 -0.1040  0.3898  0.3070
  925TIP3    H1 2728   1.270   0.228   4.527  3.0415  1.9131 -0.1398
  925TIP3    H2 2729   1.243   0.259   4.381  0.6027  0.4148 -0.0416
  926TIP3   OH2 2730   1.826   4.799   0.392  0.0518 -0.0184  0.2820
  926TIP3    H1 2731   1.745   4.755   0.419 -1.6142  1.0836 -2.7012
  926TIP3    H2 2732   1.877   4.730   0.349  0.0992 -0.4027  0.9471
  927TIP3   OH2 2733   7.105   7.008   5.714  0.3178 -0.3868  0.9969
  927TIP3    H1 2734   7.107   7.027   5.808  0.5755 -0.2243  0.9581
  927TIP3    H2 2735   7.150   6.924   5.705  1.0091 -0.0131  0.9248
  928TIP3   OH2 2736   4.061   2.439   0.648  0.1566  0.5855  0.1220
  928TIP3    H1 2737   4.024   2.474   0.566  1.4759 -0.2553 -0.8498
  928TIP3    H2 2738   3.993   2.457   0.713  0.0901  3.4691 -0.6523
  929TIP3   OH2 2739   0.776   1.614   3.821 -0.2437 -0.3291  0.1901
  929TIP3    H1 2740   0.684   1.639   3.813 -0.5151 -1.2444  0.3666
  929TIP3    H2 2741   0.819   1.691   3.858 -0.6067  0.7461 -1.5571
  930TIP3   OH2 2742   1.988   1.546   0.594  0.5156  0.3248  0.2716
  930TIP3    H1 2743   2.044   1.476   0.627  0.8348  1.6378  2.6200
  930TIP3    H2 2744   2.049   1.611   0.559  0.1803 -1.0805 -3.1077
  931TIP3   OH2 2745   0.497   0.843   6.261  0.0631  0.0750  0.0051
  931TIP3    H1 2746   0.589   0.823   6.242  0.1696 -0.2120  0.7964
  931TIP3    H2 2747   0.496   0.861   6.355 -0.3913  1.8094 -0.3183
  932TIP3   OH2 2748   5.201   7.234   6.046  0.0544 -0.3084 -0.6086
  932TIP3    H1 2749   5.172   7.178   5.974 -1.8338  0.3363 -0.3748
  932TIP3    H2 2750   5.127   7.235   6.107  1.4962 -0.5697  1.1811
  933TIP3   OH2 2751   6.366   1.584   4.975  0.1292  0.1226 -0.5184
  933TIP3    H1 2752   6.323   1.647   4.917  0.9138 -0.0966 -1.3431
  933TIP3    H2 2753   6.306   1.510   4.978 -0.7318  0.8398  0.3432
  934TIP3   OH2 2754   6.647   6.602   5.465  1.0798  0.2936 -0.4837
  934TIP3    H1 2755   6.575   6.617   5.404  0.4933 -1.0125 -0.1351
  934TIP3    H2 2756   6.708   6.546   5.417  0.1590 -1.5317  0.4382
  935TIP3   OH2 2757   5.713   7.313   5.229 -0.2180 -0.4101 -0.1291
  935TIP3    H1 2758   5.747   7.385   5.282 -1.7388 -0.9848  1.7414
  935TIP3    H2 2759   5.741   7.234   5.276  0.9588 -1.0279 -1.8519
  936TIP3   OH2 2760   0.203   1.714   6.100 -0.4274 -0.1187 -0.8509
  936TIP3    H1 2761   0.263   1.760   6.159  0.4296  0.9278 -2.4803
  936TIP3    H2 2762   0.234   1.623   6.102  0.0682  0.0548 -0.2775
  937TIP3   OH2 2763   4.730   6.692   5.447 -0.1066 -0.4434  0.1024
  937TIP3    H1 2764   4.731   6.599   5.424 -0.0013 -0.5242  0.4328
  937TIP3    H2 2765   4.800   6.730   5.395  1.9548 -1.1085  2.2903
  938TIP3   OH2 2766   2.138   2.982   0.379 -0.5116 -0.1524  0.0052
  938TIP3    H1 2767   2.202   3.054   0.375  0.1480 -0.7596 -0.7028
  938TIP3    H2 2768   2.092   2.995   0.462  0.0065  0.7418  0.1646
  939TIP3   OH2 2769   5.883   1.507   0.956 -0.1376  0.4591  0.2245
  939TIP3    H1 2770   5.935   1.524   1.034 -0.7552  0.4480  0.6437
  939TIP3    H2 2771   5.944   1.517   0.883  0.8511 -1.3152  0.8080
  940TIP3   OH2 2772   3.509   2.930  -0.002 -0.1350 -0.2346 -0.3298
  940TIP3    H1 2773   3.522   2.854   0.055 -1.8690 -0.6961 -0.5154
  940TIP3    H2 2774   3.461   2.992   0.052 -0.9422 -0.2875 -0.9755
  941TIP3   OH2 2775   7.743   0.980   6.283 -0.2482  0.3054  0.3104
  941TIP3    H1 2776   7.763   0.902   6.231 -0.2854 -1.5681  2.9696
  941TIP3    H2 2777   7.812   0.984   6.349 -1.7395  0.9401  1.8872
  942TIP3   OH2 2778   3.421   4.393   0.712  0.1728  0.2131  0.1864
  942TIP3    H1 2779   3.483   4.332   0.671 -1.0673 -1.3114  0.5130
  942TIP3    H2 2780   3.430   4.474   0.662 -0.5974 -1.2874 -2.5074
  943TIP3   OH2 2781   0.699   1.061   5.097 -0.0046 -0.2872 -0.8106
  943TIP3    H1 2782   0.696   0.980   5.149  0.5681  0.3005  0.1501
  943TIP3    H2 2783   0.632   1.117   5.136  1.2056  0.5894  0.0408
  944TIP3   OH2 2784   1.272   4.583   0.916 -0.2851 -0.3340  0.5920
  944TIP3    H1 2785   1.292   4.648   0.983 -1.3596  1.9120 -1.1501
  944TIP3    H2 2786   1.335   4.513   0.930 -0.8101 -0.1820  4.2319
  945TIP3   OH2 2787   5.556   7.304   6.217 -0.5272 -0.3217 -0.1600
  945TIP3    H1 2788   5.636   7.351   6.240  0.3181 -1.9424  0.2872
  945TIP3    H2 2789   5.526   7.266   6.299 -1.5700 -0.0171 -0.3966
  946TIP3   OH2 2790   7.537   6.731   4.579 -0.8811  0.0769  0.2231
  946TIP3    H1 2791   7.596   6.720   4.653 -2.3401 -2.0986  1.1126
  946TIP3    H2 2792   7.461   6.677   4.600 -1.7694  0.2179 -2.4079
  947TIP3   OH2 2793   5.938   7.310   5.573 -0.2087  0.0743 -0.1740
  947TIP3    H1 2794   5.976   7.242   5.517 -0.0140  0.5456 -0.6199
  947TIP3    H2 2795   5.884   7.262   5.636  0.2453 -0.5201 -0.2339
  948TIP3   OH2 2796   4.102   5.261   2.099  0.0245 -0.3479  0.8711
  948TIP3    H1 2797   4.085   5.259   2.005 -1.4366 -2.6238  1.1562
  948TIP3    H2 2798   4.184   5.212   2.110  0.0689 -0.2882  0.8098
  949TIP3   OH2 2799   2.727   2.558   0.380  0.2808 -0.2662  0.0779
  949TIP3    H1 2800   2.750   2.508   0.302 -1.0511  0.1070 -0.5732
  949TIP3    H2 2801   2.752   2.501   0.453  0.7194 -0.9873 -0.6288
  950TIP3   OH2 2802   5.207   6.982   6.290 -0.1140  0.3689  0.3027
  950TIP3    H1 2803   5.121   6.950   6.266  1.2316 -2.5962 -0.7987
  950TIP3    H2 2804   5.250   7.003   6.207  0.3953  1.3942  0.8065
  951TIP3   OH2 2805   3.065   3.608   0.835  0.2364  0.0998  0.1721
  951TIP3    H1 2806   3.115   3.645   0.763  0.7285 -1.7051 -0.4355
  951TIP3    H2 2807   3.058   3.680   0.899 -0.0966  1.6695 -1.5812
  952TIP3   OH2 2808   3.096   0.448   4.546  0.1057 -0.0113  0.1610
  952TIP3    H1 2809   3.098   0.466   4.640 -0.0911  0.0239  0.1593
  952TIP3    H2 2810   3.029   0.381   4.536 -0.3563  0.4767 -0.0340
  953TIP3   OH2 2811   2.367   4.708   1.180  0.4268  0.3647 -0.0368
  953TIP3    H1 2812   2.349   4.752   1.097 -3.1865 -1.4244 -0.3125
  953TIP3    H2 2813   2.355   4.615   1.161 -1.9469  0.0171  2.7928
  954TIP3   OH2 2814   5.046   5.228   4.791  0.6116 -0.8761 -0.2408
  954TIP3    H1 2815   5.067   5.139   4.763 -1.5203 -1.3424 -0.3959
  954TIP3    H2 2816   4.972   5.253   4.737  0.4331  0.5544  0.6561
  955TIP3   OH2 2817   3.969   2.944   1.865  0.2427  0.3028 -0.5618
  955TIP3    H1 2818   3.952   3.017   1.925 -0.8565 -1.9527  1.9977
  955TIP3    H2 2819   3.912   2.960   1.790  0.1033  2.1219 -0.0857
  956TIP3   OH2 2820   0.257   0.157   5.135  0.0345 -0.1133  0.3150
  956TIP3    H1 2821   0.338   0.208   5.128 -0.0006 -0.3643 -2.3844
  956TIP3    H2 2822   0.252   0.108   5.053 -3.1327  0.2842  0.1943
  957TIP3   OH2 2823   2.898   4.342   1.040 -0.3533  0.6027  0.4047
  957TIP3    H1 2824   2.840   4.266   1.033 -0.3188  0.5052  1.1793
  957TIP3    H2 2825   2.925   4.360   0.949  1.5711 -1.8059  0.4569
  958TIP3   OH2 2826   5.500   1.296   0.235  0.1914 -0.1465 -0.2047
  958TIP3    H1 2827   5.414   1.254   0.235 -0.4070  1.0348 -1.8115
  958TIP3    H2 2828   5.561   1.226   0.258 -1.0840 -1.2527 -0.1628
  959TIP3   OH2 2829   5.873   7.032   6.272  0.6452 -0.4790 -0.1757
  959TIP3    H1 2830   5.906   6.951   6.231  0.5368  0.5408 -2.3770
  959TIP3    H2 2831   5.787   7.044   6.233  0.4361  0.4190  0.5578
  960TIP3   OH2 2832   0.698   3.745   1.775 -0.1545 -0.4125 -0.0346
  960TIP3    H1 2833   0.787   3.709   1.771 -0.4097 -0.9700 -0.9853
  960TIP3    H2 2834   0.672   3.734   1.866  1.0534  0.5043  0.4238
  961TIP3   OH2 2835   1.315   0.466   5.679 -0.1422 -0.1096 -0.2647
  961TIP3    H1 2836   1.341   0.374   5.689  0.0733 -0.0393 -0.1746
  961TIP3    H2 2837   1.296   0.495   5.768 -0.9759 -0.2908 -0.3786
  962TIP3   OH2 2838   6.427   7.306   6.033  0.0764  0.1483  0.0398
  962TIP3    H1 2839   6.474   7.327   6.113  0.6275 -0.6927 -0.0649
  962TIP3    H2 2840   6.380   7.225   6.052 -1.3415  0.9716  0.1435
  963TIP3   OH2 2841   2.152   1.237   5.138 -0.0526 -0.0956 -0.1992
  963TIP3    H1 2842   2.063   1.244   5.173  0.2710  1.3010  0.3659
  963TIP3    H2 2843   2.152   1.298   5.063  0.9658  1.3452  0.9448
  964TIP3   OH2 2844   3.572   6.410   5.491 -0.1806  0.6906 -0.0669
  964TIP3    H1 2845   3.477   6.418   5.504 -0.5807 -2.5918 -0.5263
  964TIP3    H2 2846   3.589   6.456   5.409 -1.2268  2.0110  0.4324
  965TIP3   OH2 2847   3.001   4.561   2.120  0.6193  0.0380  0.1281
  965TIP3    H1 2848   2.920   4.530   2.161  1.8893 -2.9016  0.5276
  965TIP3    H2 2849   2.987   4.545   2.026 -0.1409  1.6935 -0.0586
  966TIP3   OH2 2850   5.436   6.910   5.776  0.3742 -0.0832  0.0263
  966TIP3    H1 2851   5.415   6.823   5.742  0.0684 -0.1145  0.2992
  966TIP3    H2 2852   5.473   6.957   5.701  0.0755 -0.2868 -0.2482
  967TIP3   OH2 2853   4.303   4.501   0.675  0.1835  0.1622 -0.1112
  967TIP3    H1 2854   4.316   4.595   0.691 -0.7687  0.5106 -1.2615
  967TIP3    H2 2855   4.356   4.482   0.598 -0.2297 -0.0633 -0.3451
  968TIP3   OH2 2856   1.477   3.105   3.730  0.0016  0.1918  0.1327
  968TIP3    H1 2857   1.479   3.080   3.823 -0.2544  1.7800  0.5704
  968TIP3    H2 2858   1.399   3.061   3.695 -0.8706  0.9829  1.0678
  969TIP3   OH2 2859   6.298   4.988   5.505  0.0880 -0.5073  0.2202
  969TIP3    H1 2860   6.240   4.951   5.439  0.3892  1.9639 -1.4681
  969TIP3    H2 2861   6.375   4.931   5.503 -0.8896 -1.8813  0.2125
  970TIP3   OH2 2862   3.437   3.008   1.509 -0.1886  0.0410  0.7931
  970TIP3    H1 2863   3.394   3.091   1.490  0.8971  1.0073  2.4732
  970TIP3    H2 2864   3.401   2.981   1.594  1.7068  0.3448  1.7146
  971TIP3   OH2 2865   5.584   6.747   4.912  1.2186 -0.6807 -0.6000
  971TIP3    H1 2866   5.559   6.803   4.839  0.6794 -0.1648 -0.0185
  971TIP3    H2 2867   5.563   6.797   4.991  0.6828 -1.7127 -0.0666
  972TIP3   OH2 2868   3.274   3.320   0.427  0.0274 -0.0098 -0.1288
  972TIP3    H1 2869   3.279   3.229   0.458 -1.5105 -0.1690 -0.3053
  972TIP3    H2 2870   3.314   3.371   0.498 -0.0135 -0.7251  0.4241
  973TIP3   OH2 2871   6.075   6.554   5.886 -0.1266 -0.0485 -0.0551
  973TIP3    H1 2872   6.126   6.522   5.960  1.1861 -0.1247 -0.9730
  973TIP3    H2 2873   6.099   6.646   5.878  1.0466 -0.4534 -1.4192
  974TIP3   OH2 2874   3.588   4.911   1.923  0.2512  0.0930 -0.1580
  974TIP3    H1 2875   3.502   4.879   1.897 -0.0006 -0.0317  0.7966
  974TIP3    H2 2876   3.602   4.990   1.871 -0.8533  0.6365  0.3536
  975TIP3   OH2 2877   4.840   7.101   5.236 -0.7090 -0.5538 -0.1680
  975TIP3    H1 2878   4.866   7.173   5.293  0.9513 -0.2234 -1.3237
  975TIP3    H2 2879   4.812   7.143   5.155  2.1048 -1.2520 -1.5620
  976TIP3   OH2 2880   5.351   5.114   0.948  0.5687  0.2270  0.2470
  976TIP3    H1 2881   5.399   5.042   0.907  0.4477  0.7701 -0.8842
  976TIP3    H2 2882   5.278   5.131   0.888 -0.2649  0.3000  1.2699
  977TIP3   OH2 2883   5.231   6.819   4.738 -0.6750  0.5759 -0.0168
  977TIP3    H1 2884   5.265   6.909   4.742  0.0257  0.3947 -1.5957
  977TIP3    H2 2885   5.233   6.789   4.829 -1.0032  2.1897  0.5343
  978TIP3   OH2 2886   1.939   2.859   1.504 -0.4946 -0.0788  0.2152
  978TIP3    H1 2887   1.907   2.818   1.584 -1.5349 -1.1053 -0.7011
  978TIP3    H2 2888   2.031   2.833   1.499 -0.0674  1.1266  1.7786
  979TIP3   OH2 2889   2.050   3.191   0.899 -0.4028 -0.2806 -0.4677
  979TIP3    H1 2890   2.031   3.271   0.850 -0.8628 -0.2005 -0.1626
  979TIP3    H2 2891   2.146   3.189   0.907 -0.4598  0.9912  0.7673
  980TIP3   OH2 2892   6.750   7.092   5.800  0.4238 -0.4711  0.0850
  980TIP3    H1 2893   6.783   7.142   5.874  0.7006 -2.8316  1.6088
  980TIP3    H2 2894   6.809   7.114   5.728 -0.0744  2.1220  0.4451
  981TIP3   OH2 2895  -0.006   0.175   6.144  0.1273  0.0220 -0.3075
  981TIP3    H1 2896   0.014   0.109   6.077  0.3194 -0.4776  0.2324
  981TIP3    H2 2897   0.052   0.249   6.123 -0.9199  0.4838 -1.5992
  982TIP3   OH2 2898   2.999   1.491   3.499  0.3870  0.1767 -0.0330
  982TIP3    H1 2899   2.914   1.536   3.491  1.3602  2.5841  2.5003
  982TIP3    H2 2900   3.052   1.530   3.430  0.5039  1.2819  0.6632
  983TIP3   OH2 2901   3.696   2.792   0.826  0.0246  0.5230  0.2770
  983TIP3    H1 2902   3.748   2.716   0.800  0.0068  0.8923 -0.8720
  983TIP3    H2 2903   3.668   2.773   0.916  0.3723 -0.6302  0.1442
  984TIP3   OH2 2904   5.650   6.019   4.689 -0.2004 -0.0441  0.3542
  984TIP3    H1 2905   5.744   6.006   4.683 -0.1351  0.6426 -0.1760
  984TIP3    H2 2906   5.628   6.074   4.613 -0.7479  1.3090  1.4710
  985TIP3   OH2 2907   1.307   1.879   2.308 -0.1522  0.0153 -0.3536
  985TIP3    H1 2908   1.221   1.841   2.288 -0.3611 -0.2703  0.9852
  985TIP3    H2 2909   1.305   1.892   2.403  1.4836 -0.4811 -0.2387
  986TIP3   OH2 2910   5.134   2.467   0.984 -0.2721  0.3717 -0.3886
  986TIP3    H1 2911   5.174   2.464   0.896  0.1129 -0.2295 -0.1916
  986TIP3    H2 2912   5.204   2.499   1.040 -0.1459 -0.4220 -0.0889
  987TIP3   OH2 2913   5.527   5.833   5.688  0.1429 -0.3501 -0.5770
  987TIP3    H1 2914   5.550   5.823   5.595  1.0637 -0.4548 -0.3398
  987TIP3    H2 2915   5.490   5.748   5.712 -1.0132 -0.0098 -1.0965
  988TIP3   OH2 2916   4.573   1.847   2.956  0.2643  0.4265 -0.2367
  988TIP3    H1 2917   4.483   1.880   2.963 -0.0920 -0.5771 -0.0960
  988TIP3    H2 2918   4.612   1.900   2.886 -0.6496  0.3797 -0.7932
  989TIP3   OH2 2919   3.380   5.043   1.752  0.7530 -0.2306  0.2391
  989TIP3    H1 2920   3.291   5.008   1.757  0.6649 -0.2340 -1.2286
  989TIP3    H2 2921   3.385   5.108   1.822 -0.6990  0.4342 -0.2680
  990TIP3   OH2 2922   0.035   7.286   4.918 -0.8848 -0.4327  0.0082
  990TIP3    H1 2923   0.044   7.380   4.908  0.1516 -0.5495 -0.1920
  990TIP3    H2 2924  -0.023   7.275   4.994 -1.9105  0.3671 -0.6494
  991TIP3   OH2 2925   1.972   3.972   1.307  0.3698 -0.2130 -0.6843
  991TIP3    H1 2926   1.955   3.879   1.318  0.1597 -0.0966 -0.0208
  991TIP3    H2 2927   1.951   3.990   1.215 -2.1686 -0.2734 -0.1639
  992TIP3   OH2 2928   6.044   6.855   6.072 -0.2712  0.2404  0.0404
  992TIP3    H1 2929   5.955   6.840   6.040 -0.3282 -2.1702  1.1928
  992TIP3    H2 2930   6.101   6.830   5.999 -0.5210 -0.1312 -0.0285
  993TIP3   OH2 2931   3.273   4.461   2.120  0.2022  0.0267  0.1974
  993TIP3    H1 2932   3.184   4.481   2.150 -0.1841  0.4185 -1.1699
  993TIP3    H2 2933   3.263   4.442   2.027  1.5905  0.2993 -0.0166
  994TIP3   OH2 2934   7.675   6.335   5.016 -0.4926  0.1638  0.3561
  994TIP3    H1 2935   7.628   6.409   5.054  1.2166  1.0652  0.7766
  994TIP3    H2 2936   7.667   6.348   4.921  1.1032  1.7924  0.4058
  995TIP3   OH2 2937   3.887   6.007   4.395 -0.3648  0.1126  0.1751
  995TIP3    H1 2938   3.907   5.986   4.486  2.7732 -0.7305 -0.6520
  995TIP3    H2 2939   3.837   5.931   4.363 -1.4975  0.4254  1.1551
  996TIP3   OH2 2940   4.751   4.488   0.206  0.5659  0.4426  0.2596
  996TIP3    H1 2941   4.690   4.561   0.193  2.4888  2.5228  2.3974
  996TIP3    H2 2942   4.836   4.530   0.218  1.8196 -2.2169  0.9935
  997TIP3   OH2 2943   1.414   0.553   5.382  0.0100  0.1331 -0.0062
  997TIP3    H1 2944   1.441   0.475   5.431 -0.7214  0.5712  1.1272
  997TIP3    H2 2945   1.489   0.574   5.326 -0.3850 -2.2958 -1.4736
  998TIP3   OH2 2946   1.410   6.749   2.619 -0.4204  0.0227 -0.2615
  998TIP3    H1 2947   1.456   6.833   2.622  0.6531 -0.5932  1.0488
  998TIP3    H2 2948   1.449   6.704   2.543 -1.2833  0.8464 -1.2147
  999TIP3   OH2 2949   3.458   6.194   4.647  0.5261 -0.2293 -0.2488
  999TIP3    H1 2950   3.366   6.188   4.625  0.4295  1.1060 -0.2586
  999TIP3    H2 2951   3.459   6.211   4.742  0.7616 -0.4401 -0.2127
 1000TIP3   OH2 2952   1.964   2.316   1.269  0.0409  0.3885  0.0180
 1000TIP3    H1 2953   1.945   2.365   1.348 -1.6199  1.5887 -1.1079
 1000TIP3    H2 2954   1.943   2.225   1.291 -0.4990  0.7286  0.9086
 1001TIP3   OH2 2955   0.477   4.222   1.856  0.4229 -0.5661 -0.6400
 1001TIP3    H1 2956   0.567   4.253   1.865  0.0715  1.8572 -4.3290
 1001TIP3    H2 2957   0.456   4.183   1.941  3.8051  1.8762  1.4226
 1002TIP3   OH2 2958   0.415   6.053   4.560  0.3190  0.3163  0.2862
 1002TIP3    H1 2959   0.480   5.991   4.593  0.7932  0.1481 -0.9567
 1002TIP3    H2 2960   0.337   6.037   4.613  0.4800 -1.2307  0.0555
 1003TIP3   OH2 2961   2.682   4.049   0.352 -0.2277  0.3813  0.2445
 1003TIP3    H1 2962   2.697   4.001   0.270 -0.3605 -1.0882  1.0729
 1003TIP3    H2 2963   2.587   4.047   0.364 -0.5101  3.3506 -1.1937
 1004TIP3   OH2 2964   3.677   3.055   1.786 -0.1252  0.6823  0.0758
 1004TIP3    H1 2965   3.593   3.095   1.764 -1.0102 -1.8556 -1.3686
 1004TIP3    H2 2966   3.734   3.076   1.712 -0.6105 -0.7230 -0.7161
 1005TIP3   OH2 2967   7.123   7.443   5.321  0.7228 -0.2403  1.0639
 1005TIP3    H1 2968   7.100   7.352   5.304  1.0194 -0.1860  0.3728
 1005TIP3    H2 2969   7.188   7.437   5.392 -1.2942 -0.3903  2.9371
 1006TIP3   OH2 2970   3.081   2.965   0.949  0.5799  0.0070 -0.1410
 1006TIP3    H1 2971   3.117   3.001   1.030  0.3768  0.6594 -0.3341
 1006TIP3    H2 2972   3.123   3.016   0.879  1.5704 -1.2740 -0.5040
 1007TIP3   OH2 2973   4.818   6.214   6.106  0.4348 -0.0309  0.2610
 1007TIP3    H1 2974   4.756   6.281   6.133  1.4693 -0.0574  2.7921
 1007TIP3    H2 2975   4.903   6.245   6.136  1.1144 -1.8311  0.2842
 1008TIP3   OH2 2976   6.639   7.315   5.409 -0.0195 -0.1436 -0.5300
 1008TIP3    H1 2977   6.605   7.289   5.495 -0.5030 -0.7531 -0.9023
 1008TIP3    H2 2978   6.708   7.378   5.429 -1.6735  1.4872  0.2325
 1009TIP3   OH2 2979   3.648   3.836   1.681 -0.1285 -0.1476 -0.2222
 1009TIP3    H1 2980   3.716   3.824   1.748  0.7504  1.3092 -0.8336
 1009TIP3    H2 2981   3.572   3.868   1.729  0.1058 -0.3144  0.2614
 1010TIP3   OH2 2982   2.047   0.366   5.894 -0.0818  0.5963  0.0999
 1010TIP3    H1 2983   1.962   0.363   5.938 -0.0913 -0.1157  0.0477
 1010TIP3    H2 2984   2.028   0.343   5.803  0.3650 -1.0723  0.4175
 1011TIP3   OH2 2985   2.036   6.370   1.052  0.0872  0.8905 -0.0816
 1011TIP3    H1 2986   2.124   6.345   1.024 -0.1718 -1.6169  1.1589
 1011TIP3    H2 2987   2.039   6.465   1.060  2.5397  0.8801 -0.5734
 1012TIP3   OH2 2988   2.746   3.631   1.227 -0.7170  0.5809  0.1127
 1012TIP3    H1 2989   2.773   3.704   1.173 -0.1686  1.0180  0.9575
 1012TIP3    H2 2990   2.827   3.583   1.245 -0.8636  0.5209  0.6469
 1013TIP3   OH2 2991   2.341   1.916   0.767  0.3290 -0.3905  0.2470
 1013TIP3    H1 2992   2.403   1.844   0.757  0.4136 -0.3069  0.1805
 1013TIP3    H2 2993   2.256   1.877   0.744  0.4299 -0.3676 -0.1511
 1014TIP3   OH2 2994   3.462   3.777   0.458 -0.3183  0.0573  0.0721
 1014TIP3    H1 2995   3.415   3.846   0.410 -0.9923 -0.0616  0.5466
 1014TIP3    H2 2996   3.531   3.749   0.398  1.2408  2.5484  0.6508
 1015TIP3   OH2 2997   5.028   7.430   5.559  0.5571 -0.2731  0.0315
 1015TIP3    H1 2998   5.066   7.355   5.604  0.6416 -0.0003  0.4158
 1015TIP3    H2 2999   4.962   7.465   5.620  1.1417  0.4998  0.2352
 1016TIP3   OH2 3000   4.440   7.361   6.107  0.4143  0.0149 -0.0146
 1016TIP3    H1 3001   4.503   7.313   6.054 -1.2130 -0.4518 -1.5513
 1016TIP3    H2 3002   4.381   7.294   6.141 -0.3580  0.6573 -0.0857
 1017TIP3   OH2 3003   6.786   0.425   5.761  0.3016  0.5431  0.4127
 1017TIP3    H1 3004   6.878   0.401   5.773  0.5901  1.6617  0.4155
 1017TIP3    H2 3005   6.743   0.342   5.741  1.4601  0.1426 -0.4793
 1018TIP3   OH2 3006   6.686   6.617   6.025 -0.3613 -0.3815 -0.1436
 1018TIP3    H1 3007   6.610   6.592   5.973  0.2881 -0.5381 -1.0355
 1018TIP3    H2 3008   6.691   6.712   6.016 -0.1291 -0.4279 -0.5592
 1019TIP3   OH2 3009   6.586   4.711   6.386 -0.6999  0.0628 -0.0673
 1019TIP3    H1 3010   6.640   4.711   6.307  2.1814  0.6092  1.8263
 1019TIP3    H2 3011   6.581   4.803   6.412 -1.9012 -0.0699  0.2215
 1020TIP3   OH2 3012   4.391   4.901   1.416  0.5085  0.3146 -0.5210
 1020TIP3    H1 3013   4.463   4.925   1.358  0.3285  0.7587 -0.5608
 1020TIP3    H2 3014   4.330   4.975   1.411  0.2633  0.1392 -0.1418
 1021TIP3   OH2 3015   6.547   7.205   5.643  0.0366 -0.0074  0.2513
 1021TIP3    H1 3016   6.628   7.185   5.690  0.5426  0.7500 -0.2945
 1021TIP3    H2 3017   6.498   7.122   5.643  0.1527 -0.0852  1.8695
 1022TIP3   OH2 3018   1.121   0.235   6.288 -0.3385 -0.0699  0.2774
 1022TIP3    H1 3019   1.103   0.267   6.200 -1.3417 -1.4782 -0.0385
 1022TIP3    H2 3020   1.035   0.222   6.327  0.0397 -2.3899  0.3826
 1023TIP3   OH2 3021   5.244   7.214   5.324 -0.2560  0.4756 -0.7269
 1023TIP3    H1 3022   5.297   7.214   5.403 -1.9404  0.7888  0.4221
 1023TIP3    H2 3023   5.303   7.246   5.255  1.6059 -1.0917  0.1126
 1024TIP3   OH2 3024   2.444   1.601   6.333  0.1501 -0.2024 -0.2816
 1024TIP3    H1 3025   2.459   1.620   6.426 -0.3944  2.1525 -0.6353
 1024TIP3    H2 3026   2.532   1.594   6.296  0.3951  1.6688 -0.0997
 1025TIP3   OH2 3027   2.700   3.408   0.247  0.2416  0.0222  0.5051
 1025TIP3    H1 3028   2.637   3.469   0.285  0.3286  0.0284  0.6406
 1025TIP3    H2 3029   2.762   3.390   0.318 -0.1962 -0.7852  0.6987
 1026TIP3   OH2 3030   4.584   2.319   2.496  0.3563 -0.5618  0.5551
 1026TIP3    H1 3031   4.508   2.261   2.501 -0.9256  1.1063  0.9304
 1026TIP3    H2 3032   4.613   2.329   2.587  0.3891 -0.3710  0.5240
 1027TIP3   OH2 3033   5.055   4.635   0.548  0.5018 -0.4024 -0.2271
 1027TIP3    H1 3034   5.092   4.721   0.528 -0.9261  1.0920  3.0533
 1027TIP3    H2 3035   4.971   4.633   0.501  0.1754  0.3653  0.3086
 1028TIP3   OH2 3036   0.128   1.255   3.868 -0.3793 -0.7134  0.2523
 1028TIP3    H1 3037   0.222   1.254   3.850 -0.0601  0.1062  1.7604
 1028TIP3    H2 3038   0.111   1.173   3.914 -0.6718 -1.5137 -1.2730
 1029TIP3   OH2 3039   4.694   6.404   5.725 -0.3030  0.4641 -0.1510
 1029TIP3    H1 3040   4.708   6.313   5.699 -1.4619 -0.0583  0.9963
 1029TIP3    H2 3041   4.603   6.421   5.705 -0.4723  0.9147  0.9664
 1030TIP3   OH2 3042   2.290   1.716   5.963  0.0701  0.4965 -0.5193
 1030TIP3    H1 3043   2.270   1.732   6.055  0.1825 -1.3501 -0.1462
 1030TIP3    H2 3044   2.221   1.759   5.914  0.6864  2.5400  0.3815
 1031TIP3   OH2 3045   5.402   6.082   4.382  0.1495  0.3148  0.5852
 1031TIP3    H1 3046   5.469   6.144   4.414 -0.5928  1.0022  0.8346
 1031TIP3    H2 3047   5.328   6.138   4.359 -0.0752 -0.3776 -0.3949
 1032TIP3   OH2 3048   2.882   3.212   1.125  0.4293  0.0210  0.1867
 1032TIP3    H1 3049   2.804   3.249   1.084  0.9973 -0.3503 -1.2679
 1032TIP3    H2 3050   2.955   3.261   1.086  1.0920 -1.5784 -0.6263
 1033TIP3   OH2 3051   4.186   3.781   1.400  0.9677  0.5761 -0.2739
 1033TIP3    H1 3052   4.197   3.798   1.307  2.0840 -0.9282 -0.4272
 1033TIP3    H2 3053   4.133   3.701   1.404  1.2140  0.4363  0.3678
 1034TIP3   OH2 3054   3.196   3.748   1.327  0.6330 -0.0522  0.4737
 1034TIP3    H1 3055   3.288   3.774   1.327  0.6030  0.0466 -0.5036
 1034TIP3    H2 3056   3.148   3.832   1.328  0.5521 -0.0994  0.5583
 1035TIP3   OH2 3057   2.084   3.764   1.996  0.4393 -0.5166 -0.0684
 1035TIP3    H1 3058   2.114   3.695   1.937 -0.3306 -1.1112  0.2192
 1035TIP3    H2 3059   2.145   3.762   2.070  1.5323  0.3735 -0.9283
 1036TIP3   OH2 3060   2.886   4.285   2.020 -0.7405  0.7021  0.4956
 1036TIP3    H1 3061   2.822   4.232   1.974 -0.6244 -0.0077  1.1434
 1036TIP3    H2 3062   2.871   4.374   1.988 -1.3653  0.3819 -0.1117
 1037TIP3   OH2 3063   6.795   1.806   3.972  0.3728  0.1723  0.2382
 1037TIP3    H1 3064   6.805   1.827   3.879 -0.2414 -1.5261 -0.2329
 1037TIP3    H2 3065   6.877   1.762   3.995  0.5449  0.6403  0.5103
 1038TIP3   OH2 3066   4.234   4.729   0.833 -0.1387  0.5706 -0.5812
 1038TIP3    H1 3067   4.197   4.643   0.853 -1.2878  1.4920  1.3310
 1038TIP3    H2 3068   4.169   4.770   0.776 -0.0572  0.5472 -0.6901
 1039TIP3   OH2 3069   1.562   0.630   4.763  0.1104  0.0243 -0.4359
 1039TIP3    H1 3070   1.640   0.676   4.796  0.1569  0.3545 -0.9935
 1039TIP3    H2 3071   1.565   0.545   4.805  0.7257  0.0691 -0.3768
 1040TIP3   OH2 3072   0.589   4.280   3.652  0.1701 -0.3016  0.3986
 1040TIP3    H1 3073   0.560   4.221   3.582  0.1688 -0.7573  0.7802
 1040TIP3    H2 3074   0.681   4.298   3.632 -0.3778  1.1972 -0.8486
 1041TIP3   OH2 3075   1.318   0.962   5.392 -0.5349  0.2763  0.8458
 1041TIP3    H1 3076   1.283   0.915   5.316  1.6396 -1.9321  1.1332
 1041TIP3    H2 3077   1.308   0.901   5.465 -0.8045  1.6146  1.9460
 1042TIP3   OH2 3078   2.893   2.940   0.716  0.1672  0.0056  0.0576
 1042TIP3    H1 3079   2.844   2.880   0.659 -1.7192  1.1681  0.4165
 1042TIP3    H2 3080   2.860   2.921   0.804  1.9326 -0.6803  0.5928
 1043TIP3   OH2 3081   5.117   6.255   4.960  0.0271 -0.2425 -0.0376
 1043TIP3    H1 3082   5.054   6.183   4.959 -0.8976  0.5305  1.4104
 1043TIP3    H2 3083   5.069   6.329   4.997  1.4197  0.6953 -0.0585
 1044TIP3   OH2 3084   6.270   6.474   6.074 -0.4825  0.1697 -0.3370
 1044TIP3    H1 3085   6.350   6.498   6.028  0.7843  2.2033  2.7920
 1044TIP3    H2 3086   6.252   6.548   6.131 -3.7990 -0.8983  0.0889
 1045TIP3   OH2 3087   3.318   2.221   1.690  0.3004 -0.1239  0.2795
 1045TIP3    H1 3088   3.223   2.222   1.677  0.2943 -2.2682  0.1037
 1045TIP3    H2 3089   3.332   2.161   1.764  1.4773  0.6372  0.6978
 1046TIP3   OH2 3090   4.649   4.820   2.692  0.3020 -0.0919  0.2109
 1046TIP3    H1 3091   4.642   4.776   2.608  0.6567 -0.8691  0.5871
 1046TIP3    H2 3092   4.558   4.832   2.720  0.1351  1.3830 -0.8953
 1047TIP3   OH2 3093   4.724   4.081   0.559  0.1132  0.0734  0.0710
 1047TIP3    H1 3094   4.816   4.081   0.535 -0.1447  0.8845 -0.9438
 1047TIP3    H2 3095   4.709   4.169   0.594 -0.2100 -0.1579  0.5232
 1048TIP3   OH2 3096   7.385   7.121   6.083 -0.2172  0.0819 -0.1254
 1048TIP3    H1 3097   7.408   7.211   6.105 -1.2543  0.5440 -0.9520
 1048TIP3    H2 3098   7.340   7.088   6.161  0.3874  0.1839  0.2747
 1049TIP3   OH2 3099   0.511   0.333   5.058  0.1867  0.0863 -0.5802
 1049TIP3    H1 3100   0.525   0.294   4.972  0.4555  0.2388 -0.6079
 1049TIP3    H2 3101   0.440   0.396   5.045 -0.3146 -0.4658 -0.5117
 1050TIP3   OH2 3102   7.788   1.029   5.219 -0.0108 -0.2606 -0.1437
 1050TIP3    H1 3103   7.760   0.951   5.170  2.0565 -1.5131  0.5717
 1050TIP3    H2 3104   7.879   1.010   5.243  0.7462  2.6810 -0.5101
 1051TIP3   OH2 3105   2.550   2.754   1.421 -0.7762  0.0200 -0.1583
 1051TIP3    H1 3106   2.561   2.808   1.499  1.9822 -0.5493 -0.0870
 1051TIP3    H2 3107   2.563   2.816   1.348 -0.8516  0.0790 -0.1216
 1052TIP3   OH2 3108   6.894   6.121   5.848  0.2102  0.0486 -0.1125
 1052TIP3    H1 3109   6.986   6.098   5.859  0.2212 -0.1282 -0.6013
 1052TIP3    H2 3110   6.893   6.184   5.776 -0.2931 -1.5249 -1.5004
 1053TIP3   OH2 3111   3.808   2.235   1.404  0.4652  0.3424 -0.3962
 1053TIP3    H1 3112   3.740   2.229   1.471  2.5495  0.2225  1.7718
 1053TIP3    H2 3113   3.760   2.242   1.321 -2.1674  0.9891  1.1389
 1054TIP3   OH2 3114   6.119   1.096   0.996 -0.5552 -0.1883  0.0268
 1054TIP3    H1 3115   6.052   1.063   0.936 -0.4884  0.4913 -0.4341
 1054TIP3    H2 3116   6.071   1.156   1.053 -0.7051 -1.1816  0.9507
 1055TIP3   OH2 3117   4.245   3.232   0.476 -0.4693  0.0265  0.0869
 1055TIP3    H1 3118   4.256   3.139   0.495 -3.8854 -0.6456 -0.8779
 1055TIP3    H2 3119   4.222   3.234   0.383 -0.3041  1.8785  0.0721
 1056TIP3   OH2 3120   4.796   1.825   2.751  0.2490 -0.2297  0.5328
 1056TIP3    H1 3121   4.860   1.829   2.679 -0.2327  1.2545  0.1623
 1056TIP3    H2 3122   4.724   1.881   2.721 -0.2747 -0.1834  1.8723
 1057TIP3   OH2 3123   6.107   1.865   2.839 -0.0275  0.6861  0.1954
 1057TIP3    H1 3124   6.143   1.864   2.928  1.1107  0.2346 -0.2586
 1057TIP3    H2 3125   6.088   1.773   2.820 -1.6359  0.9479  0.5073
 1058TIP3   OH2 3126   7.012   6.735   6.352 -0.1590 -0.2310 -0.3659
 1058TIP3    H1 3127   7.099   6.771   6.367 -0.1914 -0.4515  0.3596
 1058TIP3    H2 3128   6.971   6.734   6.439 -1.2103  0.7152 -0.8376
 1059TIP3   OH2 3129   5.428   7.271   4.092 -0.2640 -0.4392 -0.3250
 1059TIP3    H1 3130   5.392   7.266   4.180 -1.0124 -0.1993 -0.6154
 1059TIP3    H2 3131   5.352   7.280   4.035  0.3135  1.7585 -0.8217
 1060TIP3   OH2 3132   1.239   6.225   2.907 -0.3304 -0.2758  0.2534
 1060TIP3    H1 3133   1.296   6.294   2.874  0.7032 -0.1000  2.3731
 1060TIP3    H2 3134   1.193   6.264   2.981 -0.3278 -1.6010  0.9806
 1061TIP3   OH2 3135   0.447   0.975   5.847 -0.0213 -0.1141  0.3250
 1061TIP3    H1 3136   0.522   1.009   5.798 -1.0067  0.6920 -0.6441
 1061TIP3    H2 3137   0.390   0.937   5.781  0.3825 -2.4410  1.2395
 1062TIP3   OH2 3138   6.987   0.725   5.607  0.4252  0.1164 -0.4481
 1062TIP3    H1 3139   6.910   0.724   5.664  0.2018  0.7333 -0.7428
 1062TIP3    H2 3140   7.059   0.700   5.665  0.3419  1.5778  0.3123
 1063TIP3   OH2 3141   2.146   0.406   6.154 -0.1805  0.1130 -0.1671
 1063TIP3    H1 3142   2.104   0.423   6.070  1.1323  0.1230 -0.8267
 1063TIP3    H2 3143   2.123   0.481   6.208 -0.3767  0.4907 -0.7718
 1064TIP3   OH2 3144   0.735   6.120   0.750  0.3131 -0.7133 -0.0517
 1064TIP3    H1 3145   0.724   6.195   0.692  1.4302 -1.3850 -1.1599
 1064TIP3    H2 3146   0.671   6.056   0.719 -1.2789  0.1380  1.4866
 1065TIP3   OH2 3147   5.441   6.042   5.868 -0.1326 -0.2738  0.1306
 1065TIP3    H1 3148   5.492   6.048   5.949 -0.3230 -2.5275  0.4557
 1065TIP3    H2 3149   5.467   5.958   5.830  0.4214  1.0457 -2.4774
 1066TIP3   OH2 3150   1.729   1.341   5.983  0.6364 -0.4004 -0.0493
 1066TIP3    H1 3151   1.793   1.280   5.947  0.0902  0.2070 -2.1649
 1066TIP3    H2 3152   1.772   1.426   5.979  0.0551 -0.1257 -0.6216
 1067TIP3   OH2 3153   5.884   7.004   3.908  0.0354 -0.2784  0.2429
 1067TIP3    H1 3154   5.901   7.023   4.000  0.3101  2.3023 -0.3113
 1067TIP3    H2 3155   5.926   7.075   3.860 -0.7737 -1.1603 -1.8549
 1068TIP3   OH2 3156   7.064   6.317   5.966 -0.4566 -0.0846 -0.3126
 1068TIP3    H1 3157   7.043   6.327   5.873  1.2203  0.7251 -0.6234
 1068TIP3    H2 3158   7.072   6.407   5.998  0.4296 -0.3686  0.2695
 1069TIP3   OH2 3159   5.018   3.955   2.351 -0.3039  0.5194 -0.7750
 1069TIP3    H1 3160   5.006   3.944   2.257 -0.3591 -0.0529 -0.7058
 1069TIP3    H2 3161   5.098   3.906   2.370  0.9708  2.5046 -0.8891
 1070TIP3   OH2 3162   5.859   4.596   0.495  0.0298 -0.0762  0.4130
 1070TIP3    H1 3163   5.786   4.616   0.554 -0.7920  1.2087 -1.0051
 1070TIP3    H2 3164   5.925   4.662   0.516  0.3894 -0.6150  0.9967
 1071TIP3   OH2 3165   4.818   2.035   1.324 -0.0939  0.1399 -0.2437
 1071TIP3    H1 3166   4.805   1.971   1.254  0.7837  0.1699 -0.4443
 1071TIP3    H2 3167   4.907   2.018   1.356 -1.3665 -1.4443  2.5134
 1072TIP3   OH2 3168   0.973   0.295   4.517  0.5319  0.1850 -0.6746
 1072TIP3    H1 3169   0.896   0.286   4.573  0.0836 -0.6315 -1.4092
 1072TIP3    H2 3170   1.047   0.284   4.576  0.0653 -0.5909 -0.2275
 1073TIP3   OH2 3171   6.638   5.755   6.001  0.2768 -0.2187 -0.1680
 1073TIP3    H1 3172   6.589   5.708   6.069 -0.1503  0.3843 -0.0527
 1073TIP3    H2 3173   6.710   5.797   6.047 -0.8057  1.3339  0.1577
 1074TIP3   OH2 3174   3.934   2.889   0.176  0.2675  0.0470 -0.3075
 1074TIP3    H1 3175   3.889   2.970   0.199  0.3974  0.4595 -1.4748
 1074TIP3    H2 3176   3.898   2.865   0.090  1.5455 -0.1361 -0.8082
 1075TIP3   OH2 3177   5.871   4.121   0.586 -0.0036 -0.1338 -0.8716
 1075TIP3    H1 3178   5.779   4.147   0.599  0.2786  1.4344 -1.8033
 1075TIP3    H2 3179   5.917   4.204   0.576  1.4264 -0.9410 -1.0132
 1076TIP3   OH2 3180   3.037   2.755  -0.006 -0.0028 -0.0824 -0.1399
 1076TIP3    H1 3181   3.048   2.760   0.089  1.3772 -2.2805 -0.1553
 1076TIP3    H2 3182   3.041   2.846  -0.036 -2.4291  0.8184  2.0841
 1077TIP3   OH2 3183   5.493   2.604   2.993  0.7869 -0.3992 -0.4318
 1077TIP3    H1 3184   5.427   2.610   2.925  1.0291 -0.6966 -0.6929
 1077TIP3    H2 3185   5.498   2.692   3.029 -0.2455 -0.5334  0.0599
 1078TIP3   OH2 3186   6.472   6.542   6.387  0.7012  0.0481  0.0691
 1078TIP3    H1 3187   6.390   6.497   6.407  0.1026  0.6292 -1.0004
 1078TIP3    H2 3188   6.505   6.498   6.308  1.5690 -0.3630  0.6475
 1079TIP3   OH2 3189   5.357   0.467   1.089  0.0130  0.1748  0.4961
 1079TIP3    H1 3190   5.273   0.512   1.080 -0.7850 -1.4220 -0.1979
 1079TIP3    H2 3191   5.336   0.374   1.078  1.8462 -0.2576  0.4702
 1080TIP3   OH2 3192   1.216   2.892   1.916 -0.4622  0.0972  0.2227
 1080TIP3    H1 3193   1.130   2.887   1.958 -0.9833  1.1795 -0.6839
 1080TIP3    H2 3194   1.211   2.971   1.861  1.2111  0.3433  0.4047
 1081TIP3   OH2 3195   4.985   3.894   0.163  0.1149  0.2481  1.0918
 1081TIP3    H1 3196   5.000   3.800   0.157  0.8825  0.3223  1.7680
 1081TIP3    H2 3197   4.893   3.905   0.139  0.0965 -0.6403  0.7310
 1082TIP3   OH2 3198   0.983   4.892   4.816 -0.2024  0.8137 -0.0235
 1082TIP3    H1 3199   0.978   4.811   4.867 -1.4494  1.2107  0.5202
 1082TIP3    H2 3200   0.979   4.863   4.725 -0.3935  0.2496  0.1610
 1083TIP3   OH2 3201   5.189   7.374   6.454 -0.4568  0.0276 -0.0352
 1083TIP3    H1 3202   5.260   7.320   6.421 -0.9836 -1.0666  0.5885
 1083TIP3    H2 3203   5.126   7.378   6.382 -0.3608 -0.1039 -0.1253
 1084TIP3   OH2 3204   1.036   0.971   5.680 -0.4576  0.1173  0.5995
 1084TIP3    H1 3205   0.944   0.995   5.694 -1.3095 -1.7468 -1.4827
 1084TIP3    H2 3206   1.067   1.032   5.613 -0.6448 -0.2427  0.1816
 1085TIP3   OH2 3207   1.323   5.022   1.767  0.8305 -0.6455  0.2386
 1085TIP3    H1 3208   1.284   5.084   1.705 -1.6273  0.2298  2.5586
 1085TIP3    H2 3209   1.415   5.050   1.774  0.4642  0.9460 -0.9320
 1086TIP3   OH2 3210   6.761   7.204   6.054 -0.4741 -0.1545  0.2007
 1086TIP3    H1 3211   6.797   7.288   6.083 -0.3319 -0.1077 -0.1069
 1086TIP3    H2 3212   6.709   7.173   6.128 -0.0165 -0.0952  0.5456
 1087TIP3   OH2 3213   1.177   0.885   6.014  0.2417 -0.1281  0.3094
 1087TIP3    H1 3214   1.183   0.974   5.979 -2.1839  0.5436  1.4723
 1087TIP3    H2 3215   1.139   0.834   5.942  0.1773  0.1040  0.1779
 1088TIP3   OH2 3216   2.349   5.547   0.385  0.0429 -0.4685  0.5469
 1088TIP3    H1 3217   2.365   5.483   0.455  1.7204  0.5839  1.1670
 1088TIP3    H2 3218   2.274   5.513   0.337  0.3460 -2.4184  1.4329
 1089TIP3   OH2 3219   1.499   2.036   6.268  0.2616  0.2136  0.1959
 1089TIP3    H1 3220   1.578   2.018   6.318  1.8101  1.4306 -1.7700
 1089TIP3    H2 3221   1.512   1.992   6.184  0.0839  2.6241 -1.1625
 1090TIP3   OH2 3222   0.744   6.218   5.847 -0.0749 -0.4676 -0.0694
 1090TIP3    H1 3223   0.747   6.220   5.752  0.9955  1.2807 -0.0282
 1090TIP3    H2 3224   0.676   6.154   5.868  0.1433 -1.3516 -1.9851
 1091TIP3   OH2 3225   3.255   4.628   1.020  0.2615  0.1343 -0.5721
 1091TIP3    H1 3226   3.230   4.593   0.934 -0.3592 -0.6911 -0.0711
 1091TIP3    H2 3227   3.187   4.692   1.041 -2.4027 -3.1836  1.4580
 1092TIP3   OH2 3228   5.398   7.411   6.016  0.1455  0.0632  0.8446
 1092TIP3    H1 3229   5.326   7.349   6.022  0.8328 -0.7793  0.4307
 1092TIP3    H2 3230   5.455   7.388   6.090  0.4064  0.1955  0.6823
 1093TIP3   OH2 3231   7.295   0.906   5.928  0.6259  0.1649 -0.2854
 1093TIP3    H1 3232   7.272   0.958   6.005 -0.0201  1.1935 -1.1597
 1093TIP3    H2 3233   7.335   0.968   5.867  1.4861 -0.7110 -0.6507
 1094TIP3   OH2 3234   3.198   4.618   0.739  0.0337 -0.3687  0.8501
 1094TIP3    H1 3235   3.292   4.637   0.730 -0.3978  0.5346 -2.4266
 1094TIP3    H2 3236   3.155   4.703   0.730 -1.2181 -1.0874 -0.1791
 1095TIP3   OH2 3237   7.519   7.290   6.435 -0.2298  0.1175 -0.1238
 1095TIP3    H1 3238   7.453   7.242   6.385 -0.4792  1.5775 -1.2213
 1095TIP3    H2 3239   7.476   7.311   6.518 -0.6120 -0.2862 -0.2181
 1096TIP3   OH2 3240   5.724   7.186   6.465  0.1819 -0.1202 -0.1379
 1096TIP3    H1 3241   5.785   7.218   6.398  0.1764  1.9162  0.7764
 1096TIP3    H2 3242   5.747   7.094   6.478  0.6776 -0.3446 -2.3863
 1097TIP3   OH2 3243   2.860   5.543   1.900 -0.5349 -0.3596  0.1491
 1097TIP3    H1 3244   2.858   5.575   1.809  2.8357 -1.3395 -0.3513
 1097TIP3    H2 3245   2.788   5.481   1.905 -1.0595  0.0494 -1.7294
 1098TIP3   OH2 3246   4.303   6.186   4.770 -0.3782 -0.2270 -0.0854
 1098TIP3    H1 3247   4.223   6.152   4.811  1.2272 -0.8785  2.6349
 1098TIP3    H2 3248   4.318   6.270   4.812  1.0234 -0.6545  0.2852
 1099TIP3   OH2 3249   4.177   5.843   5.726  0.1997 -0.8409 -0.0580
 1099TIP3    H1 3250   4.246   5.909   5.740 -0.4880  0.0071 -0.5919
 1099TIP3    H2 3251   4.202   5.770   5.782  0.7574  0.0467  0.8745
 1100TIP3   OH2 3252   5.418   2.521   1.856  0.2366 -0.4152 -0.1613
 1100TIP3    H1 3253   5.510   2.545   1.867 -0.0234  0.0085  1.1545
 1100TIP3    H2 3254   5.389   2.568   1.777  1.1683 -0.6471 -0.6467
 1101TIP3   OH2 3255   4.926   6.697   6.394 -0.4821 -0.2407 -0.5081
 1101TIP3    H1 3256   4.841   6.655   6.386  0.3020 -1.6212 -1.7970
 1101TIP3    H2 3257   4.988   6.635   6.357  1.1569  0.5842  0.7568
 1102TIP3   OH2 3258   2.058   4.029   0.130 -0.3387  0.0524  0.3589
 1102TIP3    H1 3259   2.023   3.991   0.049  1.9417 -0.7504 -0.3002
 1102TIP3    H2 3260   2.132   4.082   0.101 -1.1142  1.8815  1.6904
 1103TIP3   OH2 3261   2.146   2.594   1.898 -0.2766 -0.3034  0.4548
 1103TIP3    H1 3262   2.240   2.600   1.909 -0.4431 -0.7422  2.2555
 1103TIP3    H2 3263   2.110   2.626   1.980 -1.6831 -0.7595  0.0329
 1104TIP3   OH2 3264   6.469   6.071   3.352 -0.3035  0.0707 -0.6083
 1104TIP3    H1 3265   6.414   6.138   3.392 -2.7868  0.1048 -3.8239
 1104TIP3    H2 3266   6.521   6.118   3.287  0.4095 -0.6100 -0.5353
 1105TIP3   OH2 3267   5.700   6.856   5.658 -0.2827 -0.5429  0.0904
 1105TIP3    H1 3268   5.617   6.809   5.650 -0.5222  0.1341 -1.5900
 1105TIP3    H2 3269   5.765   6.787   5.672 -0.9815 -1.1567  0.3481
 1106TIP3   OH2 3270   4.012   7.443   5.335  0.3047  0.0818 -0.2198
 1106TIP3    H1 3271   4.092   7.393   5.318 -1.1495 -2.2540 -0.2981
 1106TIP3    H2 3272   3.988   7.420   5.424 -0.1532  0.9972 -0.1020
 1107TIP3   OH2 3273   1.135   1.116   5.896 -0.5266 -0.1678 -0.2611
 1107TIP3    H1 3274   1.199   1.172   5.852  1.2291 -2.9991 -1.4187
 1107TIP3    H2 3275   1.061   1.111   5.836 -0.3919  0.3027 -0.4690
 1108TIP3   OH2 3276   3.781   5.524   5.902  0.4463 -0.6374 -0.8295
 1108TIP3    H1 3277   3.832   5.459   5.950 -0.0421 -0.1856  0.3252
 1108TIP3    H2 3278   3.721   5.473   5.848  0.4749 -1.1500 -0.3795
 1109TIP3   OH2 3279   0.666   0.093   5.765 -0.1684 -0.9686 -0.1151
 1109TIP3    H1 3280   0.652   0.026   5.832  0.7576 -2.1253 -1.0378
 1109TIP3    H2 3281   0.644   0.050   5.683 -1.4361  0.4817 -0.5673
 1110TIP3   OH2 3282   7.766   2.426   0.208 -0.3969  0.0311 -0.1970
 1110TIP3    H1 3283   7.823   2.495   0.173 -1.6595  0.3524 -1.6635
 1110TIP3    H2 3284   7.742   2.373   0.132 -1.0070 -0.8719  0.6098
 1111TIP3   OH2 3285   0.836   0.041   5.038 -0.6865 -0.3025 -0.6917
 1111TIP3    H1 3286   0.803  -0.041   5.075 -2.0460  0.5041 -0.0605
 1111TIP3    H2 3287   0.809   0.108   5.101  1.6954  0.4850 -0.4245
 1112TIP3   OH2 3288   6.160   4.612   0.573  0.1027  0.6767 -0.6829
 1112TIP3    H1 3289   6.190   4.576   0.490  0.6757 -0.9092  0.1861
 1112TIP3    H2 3290   6.233   4.597   0.633 -0.3074  1.7978  0.1098
 1113TIP3   OH2 3291   5.180   2.266   1.308  0.0246  0.1271 -0.3718
 1113TIP3    H1 3292   5.093   2.265   1.349 -0.1386  0.2878 -0.7198
 1113TIP3    H2 3293   5.188   2.353   1.270  0.2105  0.0008 -0.6214
 1114TIP3   OH2 3294   7.459   6.313   5.543 -0.3607 -0.1835  0.4734
 1114TIP3    H1 3295   7.420   6.307   5.456 -0.0241  1.8246  0.1784
 1114TIP3    H2 3296   7.421   6.239   5.591 -2.4316  0.1427 -0.6282
 1115TIP3   OH2 3297   0.066   6.370   6.041  0.1700  0.5471  0.1244
 1115TIP3    H1 3298   0.086   6.459   6.012  0.8598  0.6647  0.9316
 1115TIP3    H2 3299   0.124   6.315   5.988 -0.7633  0.5139 -0.8776
 1116TIP3   OH2 3300   6.151   4.213   4.149 -0.2278  0.4329  0.1453
 1116TIP3    H1 3301   6.134   4.155   4.075 -1.6375  0.5157  0.3856
 1116TIP3    H2 3302   6.135   4.159   4.227  1.2771  0.3351  0.4092
 1117TIP3   OH2 3303   2.188   0.369   2.446 -0.1313  0.5547 -0.7726
 1117TIP3    H1 3304   2.195   0.417   2.529 -1.0482  1.0514 -0.9690
 1117TIP3    H2 3305   2.198   0.436   2.379  3.5943 -0.2760 -1.1305
 1118TIP3   OH2 3306   4.224   4.959   1.116  0.1859  0.0261  0.0994
 1118TIP3    H1 3307   4.210   5.026   1.050  0.2244 -0.5130 -0.4575
 1118TIP3    H2 3308   4.286   4.897   1.076 -0.6982 -0.9332  0.1849
 1119TIP3   OH2 3309   7.684   6.362   5.671 -0.1495 -0.2450  0.3522
 1119TIP3    H1 3310   7.598   6.377   5.631 -0.3599  1.0818  1.2542
 1119TIP3    H2 3311   7.667   6.302   5.744 -0.2211 -0.4513  0.1637
 1120TIP3   OH2 3312   7.587   6.592   6.344  0.1034  0.3032  0.6654
 1120TIP3    H1 3313   7.681   6.583   6.331 -0.1434  0.3355 -1.2574
 1120TIP3    H2 3314   7.571   6.686   6.338 -0.3836  0.1045 -1.5975
 1121TIP3   OH2 3315   4.635   4.038   0.320  0.5569 -0.0778 -0.0611
 1121TIP3    H1 3316   4.655   4.046   0.413  2.5292 -0.2908 -0.4378
 1121TIP3    H2 3317   4.599   3.950   0.311 -0.6174  0.3138  0.6444
 1122TIP3   OH2 3318   0.689   5.456   6.411  0.5901  0.7684 -0.3347
 1122TIP3    H1 3319   0.779   5.472   6.439  0.5592 -1.1227  0.8814
 1122TIP3    H2 3320   0.638   5.456   6.491 -0.3380  0.7415 -0.9169
 1123TIP3   OH2 3321   6.321   6.832   4.565  0.3763 -0.5136 -0.3296
 1123TIP3    H1 3322   6.362   6.917   4.549  0.7535 -0.6836 -0.2789
 1123TIP3    H2 3323   6.357   6.803   4.649  0.2242 -0.7078 -0.3303
 1124TIP3   OH2 3324   0.763   1.064   5.994 -0.0739  0.0525  0.4503
 1124TIP3    H1 3325   0.815   0.992   6.029 -0.8682 -0.5701  0.3730
 1124TIP3    H2 3326   0.784   1.138   6.050 -0.4948 -0.6588  1.5773
 1125TIP3   OH2 3327   2.014   1.788   0.131  0.4012 -0.2287  0.0267
 1125TIP3    H1 3328   1.964   1.768   0.052  0.0309  0.6253  0.0359
 1125TIP3    H2 3329   2.096   1.740   0.121  0.4382  0.0278 -0.9752
 1126TIP3   OH2 3330   5.891   5.516   1.412  0.1337 -0.0820  0.1085
 1126TIP3    H1 3331   5.978   5.515   1.373  0.1327  2.0845 -0.0338
 1126TIP3    H2 3332   5.896   5.584   1.479 -1.0949 -0.8095  0.9628
 1127TIP3   OH2 3333   7.489   6.545   5.966 -0.0418  0.2440 -0.2025
 1127TIP3    H1 3334   7.561   6.592   5.925 -0.2197 -0.1950 -1.0295
 1127TIP3    H2 3335   7.445   6.611   6.021  0.6619  0.6395 -0.1150
 1128TIP3   OH2 3336   2.311   0.489   3.567  0.5206 -0.6710 -0.0212
 1128TIP3    H1 3337   2.397   0.518   3.535  0.0143 -0.5609 -1.2831
 1128TIP3    H2 3338   2.328   0.403   3.606  1.7112  0.5295  2.2028
 1129TIP3   OH2 3339   4.658   3.969   0.849 -0.4625  0.0425 -0.4901
 1129TIP3    H1 3340   4.672   4.045   0.905 -0.7448 -0.4325  0.2392
 1129TIP3    H2 3341   4.672   4.001   0.760 -0.4624  0.9150 -0.1775
 1130TIP3   OH2 3342   4.195   3.244   0.216 -0.1280 -0.1306 -0.1281
 1130TIP3    H1 3343   4.129   3.298   0.171  0.3578  0.3511 -0.2724
 1130TIP3    H2 3344   4.186   3.158   0.176 -0.7045 -0.0775 -0.1173
 1131TIP3   OH2 3345   5.834   6.648   5.768  0.6514  0.6698  0.0288
 1131TIP3    H1 3346   5.858   6.563   5.730  0.7363  0.7638 -0.1305
 1131TIP3    H2 3347   5.871   6.647   5.856  0.0876  0.2755  0.2639
 1132TIP3   OH2 3348   5.167   3.659   0.106 -0.1642  0.0644 -0.2495
 1132TIP3    H1 3349   5.183   3.575   0.149  0.4946 -0.0329 -0.6806
 1132TIP3    H2 3350   5.117   3.637   0.027  0.4125  0.0240 -0.6071
 1133TIP3   OH2 3351   5.619   3.162   0.589 -0.1280  0.1499 -0.5595
 1133TIP3    H1 3352   5.651   3.165   0.499  0.2058  1.0047 -0.4183
 1133TIP3    H2 3353   5.540   3.215   0.589 -1.2747 -1.5278 -0.7885
 1134TIP3   OH2 3354   5.684   2.618   0.093 -0.3146 -0.3745 -0.4595
 1134TIP3    H1 3355   5.690   2.533   0.048  0.0055  0.1753 -1.4743
 1134TIP3    H2 3356   5.770   2.632   0.130 -0.7542 -1.1149  0.8716
 1135TIP3   OH2 3357   5.262   4.339   0.464  0.6170 -0.6267  0.3514
 1135TIP3    H1 3358   5.212   4.267   0.503  1.1339 -0.4203  1.4081
 1135TIP3    H2 3359   5.297   4.303   0.383 -1.5941 -0.6465 -0.6357
 1136TIP3   OH2 3360   6.687   6.558   2.085 -0.2296  0.0040 -0.4833
 1136TIP3    H1 3361   6.671   6.510   2.166  0.5665  1.0715  0.3129
 1136TIP3    H2 3362   6.766   6.609   2.102 -1.3705  2.0271 -1.1178
 1137TIP3   OH2 3363   0.968   5.208   4.001  0.1473 -0.5946  0.0971
 1137TIP3    H1 3364   1.009   5.137   3.952  0.1920 -0.2728 -0.3402
 1137TIP3    H2 3365   0.877   5.207   3.972 -0.0575 -1.0523  0.7666
 1138TIP3   OH2 3366   5.101   5.882   0.684  0.0307 -0.2330  0.6146
 1138TIP3    H1 3367   5.045   5.829   0.741  1.3836 -0.7925  1.4547
 1138TIP3    H2 3368   5.155   5.818   0.638 -0.6284  0.2526 -0.8833
 1139TIP3   OH2 3369   7.278   6.817   6.379 -0.1344  0.2405 -0.0695
 1139TIP3    H1 3370   7.371   6.835   6.365  0.0597 -0.4598  0.3039
 1139TIP3    H2 3371   7.255   6.869   6.456  0.4038 -1.0242  0.9583
 1140TIP3   OH2 3372   7.243   7.194   5.524 -0.0738  0.6175 -0.7702
 1140TIP3    H1 3373   7.194   7.170   5.603  0.7418  1.2071 -0.0695
 1140TIP3    H2 3374   7.199   7.148   5.453  1.4371 -2.9247  0.4943
 1141TIP3   OH2 3375   7.216   5.623   4.088  0.1262  0.0964 -0.0410
 1141TIP3    H1 3376   7.181   5.712   4.094 -2.3781 -0.8123 -0.3610
 1141TIP3    H2 3377   7.253   5.606   4.175  1.0345  1.5839 -0.1156
 1142TIP3   OH2 3378   4.850   4.031   1.663  0.2423  0.3412 -0.3352
 1142TIP3    H1 3379   4.889   3.999   1.581  0.5140 -1.2123  0.3878
 1142TIP3    H2 3380   4.911   4.097   1.695  0.0611  1.0797 -1.4507
 1143TIP3   OH2 3381   7.645   6.587   3.979  0.0215  0.1641  0.1249
 1143TIP3    H1 3382   7.681   6.541   4.055  0.3874  1.6163  0.8443
 1143TIP3    H2 3383   7.553   6.560   3.976 -0.5399  1.6911  2.3465
 1144TIP3   OH2 3384   0.158   5.275   5.087 -0.3339 -0.1905 -0.1612
 1144TIP3    H1 3385   0.088   5.321   5.040  0.3724 -1.5704 -2.6930
 1144TIP3    H2 3386   0.112   5.223   5.152 -1.3603  1.7874  0.7556
 1145TIP3   OH2 3387   0.258   5.783   4.450 -0.0521  0.3426 -0.0086
 1145TIP3    H1 3388   0.263   5.820   4.539  1.0371 -0.0993  0.1164
 1145TIP3    H2 3389   0.167   5.755   4.441 -0.4828  1.5270  0.5107
 1146TIP3   OH2 3390   0.617   6.306   6.279 -0.0488  0.4277 -0.2553
 1146TIP3    H1 3391   0.528   6.341   6.290 -0.1815 -0.2299  0.8813
 1146TIP3    H2 3392   0.605   6.211   6.277  0.7893  0.2643  1.6109
 1147TIP3   OH2 3393   0.286   0.085   4.651  0.1861 -0.2633 -0.3852
 1147TIP3    H1 3394   0.362   0.141   4.636 -0.2255  0.0188 -1.4528
 1147TIP3    H2 3395   0.223   0.142   4.696  0.4180 -0.3665  0.0785
 1148TIP3   OH2 3396   2.515   0.018   5.082 -0.0195  0.2960  0.2886
 1148TIP3    H1 3397   2.513   0.111   5.059 -2.2154  0.5202  1.2799
 1148TIP3    H2 3398   2.430   0.001   5.122  0.5459 -2.0354  0.5854
 1149TIP3   OH2 3399   5.341   4.920   1.866 -0.0720  0.2016 -0.3305
 1149TIP3    H1 3400   5.298   4.873   1.938  0.2879 -0.3328 -0.4552
 1149TIP3    H2 3401   5.389   4.851   1.819  0.6523  0.7375 -0.3786
 1150TIP3   OH2 3402   0.296   6.338   4.613  0.0261 -0.0524 -0.0307
 1150TIP3    H1 3403   0.352   6.414   4.596 -0.0899 -0.2257 -1.2778
 1150TIP3    H2 3404   0.346   6.283   4.673  0.7260  0.3260 -0.2694
 1151TIP3   OH2 3405   7.732   6.684   5.982  0.5596 -0.9203 -0.0062
 1151TIP3    H1 3406   7.744   6.704   6.075 -0.8096 -1.4821  0.3064
 1151TIP3    H2 3407   7.691   6.763   5.946 -0.6116 -1.3862  0.2689
 1152TIP3   OH2 3408   6.474   6.521   5.879  0.4312  0.1388  0.0574
 1152TIP3    H1 3409   6.427   6.584   5.824  1.7158  0.8872 -0.2160
 1152TIP3    H2 3410   6.466   6.438   5.832 -0.0101  0.4075 -0.3495
 1153TIP3   OH2 3411   7.560   2.876   0.487 -0.2945 -0.5213  0.2133
 1153TIP3    H1 3412   7.632   2.921   0.442  1.0935 -1.3197  1.5601
 1153TIP3    H2 3413   7.487   2.938   0.484  1.0820  1.1479  0.6175
 1154TIP3   OH2 3414   6.701   5.353   5.922  0.0035 -0.7199  0.1895
 1154TIP3    H1 3415   6.606   5.343   5.921 -0.3403  2.2720 -0.8515
 1154TIP3    H2 3416   6.734   5.263   5.931 -2.8914 -1.7222  1.4924
 1155TIP3   OH2 3417   1.581   1.409   4.724 -0.8195 -0.3188 -0.0134
 1155TIP3    H1 3418   1.516   1.410   4.795 -2.3551  0.7472 -1.3943
 1155TIP3    H2 3419   1.617   1.498   4.723 -1.3350 -0.1234 -1.0496
 1156TIP3   OH2 3420   5.387   6.680   4.496  0.1729 -0.5993  0.2555
 1156TIP3    H1 3421   5.304   6.644   4.528  1.0110 -2.6143  0.2055
 1156TIP3    H2 3422   5.391   6.654   4.404  0.8744 -0.5549  0.2691
 1157TIP3   OH2 3423   1.031   5.111   5.833 -0.2291 -0.2486 -0.0179
 1157TIP3    H1 3424   1.112   5.120   5.884 -0.6006  2.1142  0.2539
 1157TIP3    H2 3425   1.051   5.045   5.767  2.1649  0.7546 -0.3656
 1158TIP3   OH2 3426   7.610   6.236   5.912  0.4673  0.0796  0.1136
 1158TIP3    H1 3427   7.639   6.278   5.993  0.5159 -2.2546  1.3484
 1158TIP3    H2 3428   7.518   6.262   5.903  0.7084  1.0616  0.4208
 1159TIP3   OH2 3429   4.733   4.757   1.783 -0.0269 -0.0607  0.0658
 1159TIP3    H1 3430   4.805   4.704   1.749 -0.6779 -0.5630 -0.5317
 1159TIP3    H2 3431   4.765   4.847   1.778  0.0474 -0.1625 -1.4816
 1160TIP3   OH2 3432   4.425   2.403   0.259 -0.6808 -0.1845  0.3928
 1160TIP3    H1 3433   4.445   2.380   0.168  0.4138 -0.5022  0.7027
 1160TIP3    H2 3434   4.386   2.490   0.255 -0.5867 -0.1807 -0.3752
 1161TIP3   OH2 3435   7.061   6.633   4.972 -0.1806 -0.1321 -0.1530
 1161TIP3    H1 3436   6.999   6.702   4.996 -0.3250 -0.6888  1.1782
 1161TIP3    H2 3437   7.061   6.575   5.048  2.2988  0.0740  0.0354
 1162TIP3   OH2 3438   0.323   6.069   3.990  0.1859  0.4614 -0.1357
 1162TIP3    H1 3439   0.294   5.980   4.004  0.0435  0.3594 -1.0587
 1162TIP3    H2 3440   0.319   6.110   4.077  1.5317 -0.7955  0.5514
 1163TIP3   OH2 3441   6.586   2.700   0.487  0.3885 -0.1549 -0.2985
 1163TIP3    H1 3442   6.614   2.737   0.403  0.3313  0.1046 -0.2037
 1163TIP3    H2 3443   6.554   2.613   0.465 -1.6547  0.7085 -0.8823
 1164TIP3   OH2 3444   0.254   7.358   5.717 -0.4728 -0.0902  0.5855
 1164TIP3    H1 3445   0.297   7.344   5.802 -0.8037  2.6414  1.2514
 1164TIP3    H2 3446   0.162   7.337   5.733 -0.7203  1.4399  1.1847
 1165TIP3   OH2 3447   4.351   5.323   0.354 -0.2356  0.9212 -0.0018
 1165TIP3    H1 3448   4.431   5.280   0.325  0.6272  1.3767  1.6508
 1165TIP3    H2 3449   4.350   5.407   0.308  1.0963  1.6211  1.1973
 1166TIP3   OH2 3450   4.678   4.183   1.033  0.3785 -0.4417 -0.0303
 1166TIP3    H1 3451   4.685   4.207   1.125 -2.4693 -0.4484  0.2221
 1166TIP3    H2 3452   4.754   4.225   0.992  1.9596 -0.8436  2.3550
 1167TIP3   OH2 3453   5.939   5.406   2.221 -0.3358  0.2459 -0.4845
 1167TIP3    H1 3454   5.935   5.456   2.140  2.0371 -0.9984 -1.3997
 1167TIP3    H2 3455   5.894   5.325   2.202  0.6872 -0.2709 -0.7500
 1168TIP3   OH2 3456   6.216   6.494   1.700 -0.5709 -0.0035 -0.3409
 1168TIP3    H1 3457   6.260   6.569   1.738 -0.8869 -0.4993  1.0209
 1168TIP3    H2 3458   6.284   6.427   1.692  0.0364  0.8302 -2.8159
 1169TIP3   OH2 3459   5.268   1.120   1.008 -0.2023 -0.0058 -0.4359
 1169TIP3    H1 3460   5.192   1.172   1.032  0.6928  2.6410 -3.1519
 1169TIP3    H2 3461   5.343   1.166   1.047  0.4700  0.0686 -1.7828
 1170TIP3   OH2 3462   5.815   3.901   0.840  0.0124  0.3987 -0.0567
 1170TIP3    H1 3463   5.815   3.994   0.863  0.3500  0.1016  1.1669
 1170TIP3    H2 3464   5.722   3.879   0.829 -0.1066  0.7477  0.2375
 1171TIP3   OH2 3465   6.388   4.968   0.205 -0.4130  0.4337  0.2948
 1171TIP3    H1 3466   6.378   5.007   0.292  1.3922 -0.6260  1.0255
 1171TIP3    H2 3467   6.362   4.876   0.216 -1.1737  0.5422 -0.5369
 1172TIP3   OH2 3468   4.801   5.795   0.538  0.6727 -0.5310 -0.1319
 1172TIP3    H1 3469   4.740   5.723   0.521 -0.0258  0.2860 -1.1210
 1172TIP3    H2 3470   4.773   5.830   0.623 -0.8076  0.3977 -0.9848
 1173TIP3   OH2 3471   6.284   2.813   0.066 -0.6347 -0.1219 -0.0977
 1173TIP3    H1 3472   6.337   2.810  -0.014  1.0743 -0.8276  1.0442
 1173TIP3    H2 3473   6.215   2.748   0.051 -0.5482  0.0252 -1.1588
 1174TIP3   OH2 3474   3.053   0.175   5.837  0.0263 -0.1927 -0.2189
 1174TIP3    H1 3475   2.962   0.180   5.865  0.0397 -0.7479 -0.0661
 1174TIP3    H2 3476   3.049   0.185   5.742 -0.3499 -1.7735 -0.3911
 1175TIP3   OH2 3477   7.125   7.116   5.973  0.0178 -0.6575 -0.1684
 1175TIP3    H1 3478   7.141   7.202   6.011 -0.7258  0.3236 -1.9974
 1175TIP3    H2 3479   7.210   7.072   5.976  0.2567 -0.1033  1.3510
 1176TIP3   OH2 3480   4.955   2.984   1.270 -0.4765 -0.4968 -0.3581
 1176TIP3    H1 3481   5.049   2.991   1.289 -0.9361  1.5643  1.2362
 1176TIP3    H2 3482   4.922   2.926   1.338 -0.1787 -2.2306 -1.6523
 1177TIP3   OH2 3483   6.855   2.558   2.021  0.5751  0.1779 -0.6243
 1177TIP3    H1 3484   6.795   2.524   2.087  1.0747 -0.7473 -0.6329
 1177TIP3    H2 3485   6.912   2.484   2.000  0.1056  0.3164 -2.4587
 1178TIP3   OH2 3486   6.796   6.501   5.243 -0.3303  0.3758  0.2389
 1178TIP3    H1 3487   6.848   6.448   5.182 -0.4530  0.7075 -0.1598
 1178TIP3    H2 3488   6.774   6.579   5.193 -0.6227  0.5522  0.6424
 1179TIP3   OH2 3489   2.225   1.623   5.665  0.1992 -0.3815  0.1049
 1179TIP3    H1 3490   2.259   1.707   5.697 -2.9985  0.9323  0.2021
 1179TIP3    H2 3491   2.207   1.638   5.572 -3.1624  0.0009  0.7778
 1180TIP3   OH2 3492   5.400   3.303   0.572 -0.2126  0.5990 -0.0719
 1180TIP3    H1 3493   5.315   3.341   0.593 -0.5416 -0.8389  1.2892
 1180TIP3    H2 3494   5.379   3.230   0.513  0.0105 -0.1895  0.8230
 1181TIP3   OH2 3495   5.816   2.542   1.272 -0.3658  0.3347 -0.4730
 1181TIP3    H1 3496   5.840   2.619   1.322 -0.3180  0.5343 -0.7988
 1181TIP3    H2 3497   5.894   2.487   1.274  0.1422  0.9903 -1.5446
 1182TIP3   OH2 3498   5.710   2.399   3.987  0.2834 -0.0906 -0.2674
 1182TIP3    H1 3499   5.791   2.356   3.958  0.0689 -0.5845 -0.1437
 1182TIP3    H2 3500   5.685   2.351   4.066  0.2613  0.5299  0.0970
 1183TIP3   OH2 3501   6.687   6.078   6.391  0.2501 -0.3145 -0.6555
 1183TIP3    H1 3502   6.698   6.173   6.391 -0.8494 -0.1625  0.6780
 1183TIP3    H2 3503   6.700   6.051   6.300  0.0504  1.1789 -1.1315
 1184TIP3   OH2 3504   4.720   3.295   0.804  0.3857 -0.7295 -0.9602
 1184TIP3    H1 3505   4.778   3.241   0.751  0.4204 -0.5084 -1.1441
 1184TIP3    H2 3506   4.632   3.272   0.775  0.4723  0.8321 -2.4834
 1185TIP3   OH2 3507   7.364   7.200   4.526  0.7347  0.1091  0.9777
 1185TIP3    H1 3508   7.324   7.286   4.535 -1.2207 -0.7740  1.0751
 1185TIP3    H2 3509   7.393   7.177   4.615 -0.9063 -0.3321  1.4129
 1186TIP3   OH2 3510   5.022   2.854   0.639 -0.2666  0.7821 -0.8511
 1186TIP3    H1 3511   5.012   2.790   0.709 -2.1542  2.7609  0.7500
 1186TIP3    H2 3512   5.083   2.813   0.577  0.0209 -1.7383  1.0429
 1187TIP3   OH2 3513   1.336   1.740   4.231  0.1602 -0.1608  0.0314
 1187TIP3    H1 3514   1.407   1.741   4.167  0.4935  1.7289  0.4026
 1187TIP3    H2 3515   1.376   1.767   4.313 -0.1705 -3.0614  1.1947
 1188TIP3   OH2 3516   6.700   1.939   2.699  0.2133  0.0205  0.0211
 1188TIP3    H1 3517   6.627   1.987   2.739  0.3153 -0.4962  0.8341
 1188TIP3    H2 3518   6.673   1.928   2.608 -0.7425 -0.1892  0.3150
 1189TIP3   OH2 3519   3.681   3.507   2.287 -0.4957 -0.6511  0.0504
 1189TIP3    H1 3520   3.636   3.479   2.367  1.0482 -1.0830  0.7733
 1189TIP3    H2 3521   3.774   3.500   2.307 -0.0802  0.5512 -1.3326
 1190TIP3   OH2 3522   7.124   3.273   0.415 -0.3350 -0.5315  0.6889
 1190TIP3    H1 3523   7.160   3.328   0.484  0.3970 -0.5089  0.3021
 1190TIP3    H2 3524   7.103   3.334   0.344 -3.0039 -0.2994  1.6490
 1191TIP3   OH2 3525   5.535   2.489   1.373 -0.0393  0.1695  0.2386
 1191TIP3    H1 3526   5.612   2.512   1.321 -1.0398  0.4244 -1.1814
 1191TIP3    H2 3527   5.492   2.420   1.321 -0.2346 -0.6734  1.5075
 1192TIP3   OH2 3528   4.521   1.502   0.884  0.0994 -0.1255  0.3492
 1192TIP3    H1 3529   4.474   1.421   0.863  2.5744 -1.7709  0.9935
 1192TIP3    H2 3530   4.609   1.473   0.909  0.2879  2.5769  3.0151
 1193TIP3   OH2 3531   4.523   2.631   0.577 -0.0908  0.1970 -0.0457
 1193TIP3    H1 3532   4.548   2.547   0.541  0.4453  0.1640  0.3967
 1193TIP3    H2 3533   4.467   2.671   0.510 -0.8802 -0.7821  0.0188
 1194TIP3   OH2 3534   7.012   4.866   6.149  0.0485  0.8004  0.4980
 1194TIP3    H1 3535   7.100   4.887   6.118  0.7160 -2.5404 -0.0197
 1194TIP3    H2 3536   6.999   4.923   6.225  2.4252  1.7104  0.2533
 1195TIP3   OH2 3537   5.254   3.093   2.104 -0.1253 -0.4111  0.2541
 1195TIP3    H1 3538   5.171   3.046   2.114 -0.2076 -0.7566 -1.7892
 1195TIP3    H2 3539   5.321   3.029   2.129 -0.3951 -0.7020  0.2437
 1196TIP3   OH2 3540   3.415   2.561   1.216 -0.0567  0.1071 -0.3562
 1196TIP3    H1 3541   3.332   2.544   1.172 -0.4206  0.1791  0.2956
 1196TIP3    H2 3542   3.392   2.614   1.292  0.2373 -2.0902  1.3200
 1197TIP3   OH2 3543   3.242   1.564   0.730 -0.0787 -0.4070  0.0155
 1197TIP3    H1 3544   3.230   1.603   0.643 -0.8202  2.8672  1.5159
 1197TIP3    H2 3545   3.334   1.579   0.751  0.2101 -1.5967 -0.3623
 1198TIP3   OH2 3546   1.872   1.786   5.049 -0.1302 -0.5569  0.1180
 1198TIP3    H1 3547   1.957   1.780   5.092 -0.3393 -0.0813  0.6167
 1198TIP3    H2 3548   1.811   1.746   5.112 -0.4217  0.0253  0.2065
 1199TIP3   OH2 3549   1.775   0.371   5.994 -0.2377 -0.8269 -0.3549
 1199TIP3    H1 3550   1.775   0.314   6.071  1.2726 -1.8330 -1.0552
 1199TIP3    H2 3551   1.685   0.372   5.963 -1.4273  1.7869  2.9866
 1200TIP3   OH2 3552   5.390   4.166   2.003  0.3067 -0.2239 -0.2451
 1200TIP3    H1 3553   5.395   4.225   1.928  1.3260  0.2101  0.1508
 1200TIP3    H2 3554   5.450   4.204   2.068  0.1819 -1.1191  0.4145
 1201TIP3   OH2 3555   3.328   0.480   5.498  0.2978  0.0834  0.3044
 1201TIP3    H1 3556   3.261   0.414   5.482  1.5904 -1.2496  0.2470
 1201TIP3    H2 3557   3.304   0.553   5.441  0.1109 -1.2427 -1.3602
 1202TIP3   OH2 3558   7.142   3.057   0.983 -0.0189 -0.0264 -0.2345
 1202TIP3    H1 3559   7.067   3.005   0.956 -1.2052  2.3997 -1.7024
 1202TIP3    H2 3560   7.189   3.076   0.902  0.0779  1.6525  0.1986
 1203TIP3   OH2 3561   7.521   6.861   6.302 -0.8274  0.9799 -0.7761
 1203TIP3    H1 3562   7.566   6.917   6.239  0.0208 -0.2024 -1.2362
 1203TIP3    H2 3563   7.534   6.904   6.386  0.1167  1.2901 -1.0835
 1204TIP3   OH2 3564   4.110   5.351   0.457  0.0177 -0.8765 -0.0495
 1204TIP3    H1 3565   4.068   5.276   0.414  0.6135 -1.4824  0.4117
 1204TIP3    H2 3566   4.199   5.352   0.422 -0.1982  0.0494 -0.5874
 1205TIP3   OH2 3567   3.975   3.885   1.009 -0.5553  0.3672  0.4950
 1205TIP3    H1 3568   4.035   3.942   0.961  1.4006 -1.6197  0.5503
 1205TIP3    H2 3569   3.905   3.867   0.947  0.3650  0.3717 -0.5573
 1206TIP3   OH2 3570   4.157   3.496   1.129  0.3800 -0.1005  0.2750
 1206TIP3    H1 3571   4.166   3.591   1.128 -0.6105  0.0095  1.0875
 1206TIP3    H2 3572   4.109   3.475   1.049  0.5180  0.0982  0.1408
 1207TIP3   OH2 3573   5.912   4.415   0.803 -0.1630 -0.2584 -1.0776
 1207TIP3    H1 3574   5.951   4.401   0.717  1.6719  0.1763 -0.3272
 1207TIP3    H2 3575   5.831   4.463   0.785  1.3273  1.8333 -2.4027
 1208TIP3   OH2 3576   4.997   5.162   5.549 -0.2978 -0.5575 -0.0500
 1208TIP3    H1 3577   4.963   5.089   5.600  0.5803  0.0173  1.4138
 1208TIP3    H2 3578   5.052   5.121   5.482 -1.5676 -1.3343 -0.6297
 1209TIP3   OH2 3579   4.285   3.058   1.400 -0.1276  0.8624  0.4934
 1209TIP3    H1 3580   4.197   3.095   1.400  0.1408  1.4971 -0.0219
 1209TIP3    H2 3581   4.271   2.963   1.399 -0.8039  0.9509  0.9431
 1210TIP3   OH2 3582   7.045   6.102   6.163 -0.4475  0.3425  0.1194
 1210TIP3    H1 3583   7.041   6.193   6.135  0.7893  0.0308 -1.1653
 1210TIP3    H2 3584   7.096   6.058   6.095 -0.7898 -1.2591  0.8543
 1211TIP3   OH2 3585   4.535   4.646   1.928  0.0555  0.7348  0.6197
 1211TIP3    H1 3586   4.598   4.689   1.871 -0.1100 -0.7522 -0.7075
 1211TIP3    H2 3587   4.498   4.575   1.875  1.0639 -1.7152  3.0640
 1212TIP3   OH2 3588   2.501   1.479   1.173  0.0929  0.0114  0.6179
 1212TIP3    H1 3589   2.562   1.552   1.180 -0.1308 -0.0009  3.0874
 1212TIP3    H2 3590   2.415   1.519   1.179 -0.0430 -0.3877  1.3528
 1213TIP3   OH2 3591   6.549   2.289   2.284 -0.1598  0.3312 -0.3970
 1213TIP3    H1 3592   6.510   2.237   2.214 -1.5652  0.1170  0.5251
 1213TIP3    H2 3593   6.478   2.302   2.347  0.7737  1.5051  0.4333
 1214TIP3   OH2 3594   4.609   0.977   6.218 -0.2916 -0.8160  0.4696
 1214TIP3    H1 3595   4.694   0.968   6.175 -0.7630 -1.3095 -0.3580
 1214TIP3    H2 3596   4.585   1.069   6.206  0.5043 -0.4741  1.4241
 1215TIP3   OH2 3597   6.851   1.768   0.600  0.5297 -0.2310  0.0341
 1215TIP3    H1 3598   6.807   1.709   0.661 -1.2975  1.8707  0.8267
 1215TIP3    H2 3599   6.882   1.711   0.529 -0.6866 -2.1970  1.0428
 1216TIP3   OH2 3600   7.639   5.909   6.187 -0.0010 -0.0109  0.2977
 1216TIP3    H1 3601   7.571   5.850   6.217 -0.0880  0.7302  1.6082
 1216TIP3    H2 3602   7.600   5.996   6.192  1.0117  0.4178  1.0318
 1217TIP3   OH2 3603   0.075   4.057   0.708  0.2703  0.1242  0.2613
 1217TIP3    H1 3604   0.086   4.134   0.763  0.6256  0.5083 -0.3462
 1217TIP3    H2 3605   0.156   4.052   0.657 -0.1993 -0.0297 -0.4744
 1218TIP3   OH2 3606   4.843   3.096   1.740 -0.1666  0.0406 -0.3795
 1218TIP3    H1 3607   4.787   3.130   1.810  0.5453  0.6425 -0.0840
 1218TIP3    H2 3608   4.859   3.172   1.683 -1.0730 -0.5464 -1.4202
 1219TIP3   OH2 3609   5.459   3.227   0.150 -0.2969 -0.5619  0.2088
 1219TIP3    H1 3610   5.522   3.297   0.132 -0.6710 -0.5853 -1.3055
 1219TIP3    H2 3611   5.488   3.188   0.232 -0.7823  2.1888  1.7701
 1220TIP3   OH2 3612  -0.015   6.756   6.196  0.0707 -0.1035 -0.0437
 1220TIP3    H1 3613   0.002   6.790   6.283 -0.2286  1.3720 -0.5499
 1220TIP3    H2 3614   0.044   6.681   6.188  2.7901  1.9009  0.0977
 1221TIP3   OH2 3615   6.362   2.128   1.825 -0.0671  0.4873 -0.1861
 1221TIP3    H1 3616   6.312   2.060   1.779  1.9276  0.0594 -1.8331
 1221TIP3    H2 3617   6.451   2.121   1.788  0.8798  2.0882  1.6887
 1222TIP3   OH2 3618   0.349   2.909   2.345 -0.0815 -0.3072  0.8224
 1222TIP3    H1 3619   0.256   2.930   2.340  0.3270  1.5225  0.5324
 1222TIP3    H2 3620   0.376   2.940   2.431 -0.1533 -2.6688  1.7268
 1223TIP3   OH2 3621   6.577   3.776   2.108  0.4240  0.3678 -0.1898
 1223TIP3    H1 3622   6.488   3.791   2.076  1.1541  0.2003 -2.3803
 1223TIP3    H2 3623   6.571   3.792   2.202 -1.5328  2.1258 -0.5548
 1224TIP3   OH2 3624   6.627   1.647   1.529  0.1086 -0.5156 -0.3735
 1224TIP3    H1 3625   6.654   1.702   1.602  2.4060 -0.0748 -1.5118
 1224TIP3    H2 3626   6.582   1.706   1.469 -0.0170 -0.4836 -0.2496
 1225TIP3   OH2 3627   5.759   6.910   0.858 -0.4534 -0.1404 -0.2744
 1225TIP3    H1 3628   5.845   6.889   0.893 -1.7163 -1.4664  2.1809
 1225TIP3    H2 3629   5.755   6.863   0.775  0.6914 -1.1980  0.2440
 1226TIP3   OH2 3630   5.009   1.310   5.304 -0.0552  0.7417  0.2904
 1226TIP3    H1 3631   4.986   1.329   5.395  2.6733 -0.6027  1.2969
 1226TIP3    H2 3632   5.011   1.214   5.299 -3.2303  0.6965 -2.0298
 1227TIP3   OH2 3633   7.872   3.797   0.752  0.1849  0.1265 -0.4406
 1227TIP3    H1 3634   7.911   3.884   0.754 -1.2588  0.7789  0.9900
 1227TIP3    H2 3635   7.788   3.810   0.707 -0.9064 -0.1148  1.4642
 1228TIP3   OH2 3636   0.246   6.561   2.054  0.3463  0.0060  0.6985
 1228TIP3    H1 3637   0.258   6.561   1.959  0.9607  0.0785  0.7742
 1228TIP3    H2 3638   0.196   6.640   2.072  0.6946  0.2777  0.4912
 1229TIP3   OH2 3639   0.702   5.901   0.377  0.5613 -0.0115 -0.6563
 1229TIP3    H1 3640   0.683   5.925   0.467 -1.5093 -2.8392 -0.2602
 1229TIP3    H2 3641   0.767   5.831   0.383 -0.7857 -1.3484 -1.2284
 1230TIP3   OH2 3642   0.197   4.453   1.954 -0.3398 -0.2778 -0.3113
 1230TIP3    H1 3643   0.176   4.411   1.871  1.2230 -0.3476 -0.6919
 1230TIP3    H2 3644   0.257   4.392   1.997  0.2910  0.5981  0.0584
 1231TIP3   OH2 3645   0.913   6.792   2.649  0.9902  0.0024 -0.4451
 1231TIP3    H1 3646   0.992   6.739   2.634  1.4198  0.9272 -1.6212
 1231TIP3    H2 3647   0.861   6.779   2.570  0.2759 -0.0742  0.0409
 1232TIP3   OH2 3648   0.228   5.268   2.679  0.2919  0.4974  0.1182
 1232TIP3    H1 3649   0.167   5.341   2.671 -1.0332 -0.2257  3.0625
 1232TIP3    H2 3650   0.315   5.310   2.679 -0.2962  1.7741 -1.2119
 1233TIP3   OH2 3651   7.743   3.466   0.434 -0.4488 -0.4057 -0.1751
 1233TIP3    H1 3652   7.781   3.550   0.460 -1.3613  0.0794 -0.4161
 1233TIP3    H2 3653   7.663   3.489   0.387 -0.7041 -1.4124 -0.2340
 1234TIP3   OH2 3654   1.211   5.714   2.726  0.0903  0.5454 -0.0892
 1234TIP3    H1 3655   1.225   5.791   2.671 -0.0714 -0.5605 -1.6983
 1234TIP3    H2 3656   1.123   5.725   2.761 -0.7332  0.1008 -1.9618
 1235TIP3   OH2 3657   6.741   3.872   0.889 -0.3733  0.9476 -0.5852
 1235TIP3    H1 3658   6.685   3.945   0.914 -1.3775 -0.1901  0.5717
 1235TIP3    H2 3659   6.701   3.796   0.931  0.2603 -0.3770 -2.3260
 1236TIP3   OH2 3660   5.940   4.684   1.858 -0.2767 -0.9582  0.5855
 1236TIP3    H1 3661   5.927   4.779   1.863  2.8778 -0.4917  0.7251
 1236TIP3    H2 3662   5.932   4.654   1.948 -0.0230 -0.6382  0.7164
 1237TIP3   OH2 3663   2.912   3.264   0.410 -0.6615 -0.1592 -0.4085
 1237TIP3    H1 3664   2.935   3.355   0.392  0.0257 -0.5060 -1.3274
 1237TIP3    H2 3665   2.909   3.258   0.505 -0.4317  0.7530 -0.3415
 1238TIP3   OH2 3666   3.338   1.077   5.967 -0.2686  0.2294  0.0682
 1238TIP3    H1 3667   3.410   1.017   5.986 -1.1276 -0.4686  1.2251
 1238TIP3    H2 3668   3.269   1.022   5.931 -0.1908  0.9196 -1.1759
 1239TIP3   OH2 3669   0.582   2.677   1.451 -0.6463 -0.2277  0.0627
 1239TIP3    H1 3670   0.536   2.602   1.489 -0.7139 -0.7819 -1.1123
 1239TIP3    H2 3671   0.673   2.665   1.476 -1.0356  0.6805  2.0912
 1240TIP3   OH2 3672   6.835   0.568   6.150  0.3094 -0.4204 -0.0967
 1240TIP3    H1 3673   6.822   0.567   6.244  1.5808  0.2062  0.0911
 1240TIP3    H2 3674   6.787   0.645   6.120  1.3093  0.3592  0.2634
 1241TIP3   OH2 3675   7.435   4.604   2.013 -0.3034  0.2520 -0.6368
 1241TIP3    H1 3676   7.408   4.675   2.071 -0.6242 -0.1824 -0.2545
 1241TIP3    H2 3677   7.479   4.649   1.940 -0.1981  0.8189 -0.2304
 1242TIP3   OH2 3678   7.291   5.417   0.639  0.1849  0.3444 -0.4182
 1242TIP3    H1 3679   7.286   5.325   0.617 -2.9080 -0.0461  1.5251
 1242TIP3    H2 3680   7.357   5.422   0.708 -0.0767 -0.5267 -0.0987
 1243TIP3   OH2 3681   0.428   5.087   1.338 -0.3178  0.4456 -0.1545
 1243TIP3    H1 3682   0.503   5.146   1.351  1.4362 -1.6258 -0.5912
 1243TIP3    H2 3683   0.352   5.140   1.360  1.3114  2.4654  0.7998
 1244TIP3   OH2 3684   6.103   0.395   1.281 -0.5765  0.4425  0.1390
 1244TIP3    H1 3685   6.066   0.401   1.369 -0.2802  1.8830  0.1669
 1244TIP3    H2 3686   6.191   0.359   1.294 -1.0583 -0.7070  0.2905
 1245TIP3   OH2 3687   7.539   2.786   2.073  0.2967 -0.3658 -0.4945
 1245TIP3    H1 3688   7.522   2.718   2.137 -0.1397  0.4607  0.2690
 1245TIP3    H2 3689   7.488   2.760   1.996 -0.7408 -0.3210  0.1746
 1246TIP3   OH2 3690   4.267   1.964   6.202 -0.0344 -0.1111 -0.0125
 1246TIP3    H1 3691   4.324   1.988   6.275 -0.8311  0.2605  0.4895
 1246TIP3    H2 3692   4.179   1.988   6.230 -0.6172 -1.8696 -0.2563
 1247TIP3   OH2 3693   7.392   3.006   2.150  0.2898  0.6816  0.1165
 1247TIP3    H1 3694   7.438   2.923   2.156 -1.3606 -0.4902 -2.6776
 1247TIP3    H2 3695   7.453   3.065   2.106  1.3062  0.8604  1.7323
 1248TIP3   OH2 3696   7.425   2.793   3.481 -0.0331  0.0696 -0.2440
 1248TIP3    H1 3697   7.502   2.764   3.430 -0.4309 -1.5932  0.0694
 1248TIP3    H2 3698   7.350   2.762   3.430 -0.4449 -1.1463  1.0871
 1249TIP3   OH2 3699   7.518   3.649   2.724 -0.3458 -0.3399  0.0832
 1249TIP3    H1 3700   7.461   3.581   2.762 -0.9963  0.5745  0.7881
 1249TIP3    H2 3701   7.566   3.683   2.799 -0.4901  0.4126 -0.1657
 1250TIP3   OH2 3702   2.666   5.917   0.530  0.0946  0.1051  0.3710
 1250TIP3    H1 3703   2.687   5.902   0.622  1.0714 -0.3477  0.0887
 1250TIP3    H2 3704   2.619   5.838   0.502  2.3413 -1.0650 -0.2549
 1251TIP3   OH2 3705   6.562   5.205   0.026  0.0773 -0.4200 -0.5053
 1251TIP3    H1 3706   6.575   5.147   0.101 -0.5074  0.2308  0.1114
 1251TIP3    H2 3707   6.627   5.274   0.038 -0.6830  0.2188 -0.0560
 1252TIP3   OH2 3708   1.978   4.815   1.708 -0.2751 -0.0396 -0.0965
 1252TIP3    H1 3709   1.942   4.891   1.661  0.2900  1.9031  2.4941
 1252TIP3    H2 3710   2.073   4.824   1.698 -0.0582  1.3782  2.7842
 1253TIP3   OH2 3711   7.755   5.213   2.002  0.2443  0.2912 -0.7232
 1253TIP3    H1 3712   7.725   5.141   2.058 -0.8136  0.2322 -1.3613
 1253TIP3    H2 3713   7.848   5.222   2.022  0.1050 -0.4411  0.2622
 1254TIP3   OH2 3714   1.687   7.038   1.529 -0.3418  0.4091  0.5739
 1254TIP3    H1 3715   1.656   6.948   1.538 -1.2519  0.6649  0.0764
 1254TIP3    H2 3716   1.626   7.078   1.467  1.7492  0.5761 -1.4536
 1255TIP3   OH2 3717   1.584   3.439   2.562  0.5273  0.8876  0.3310
 1255TIP3    H1 3718   1.528   3.393   2.623  0.2375  1.0198  0.1670
 1255TIP3    H2 3719   1.673   3.422   2.593  0.4134  0.3603  0.3672
 1256TIP3   OH2 3720   0.433   4.577   1.263  0.2123 -0.2599 -0.0993
 1256TIP3    H1 3721   0.526   4.585   1.244  0.1552 -0.1964 -0.3562
 1256TIP3    H2 3722   0.421   4.485   1.286  0.1065 -0.5828 -1.3819
 1257TIP3   OH2 3723   0.576   4.397   2.739 -0.0132  0.4872 -0.1708
 1257TIP3    H1 3724   0.589   4.476   2.792  2.1720 -0.1122  0.2765
 1257TIP3    H2 3725   0.600   4.423   2.651 -0.7509  0.7083 -0.3081
 1258TIP3   OH2 3726   6.800   3.999   1.239  0.1109 -0.2684  0.1904
 1258TIP3    H1 3727   6.774   4.006   1.147  2.1463  1.7484 -0.2935
 1258TIP3    H2 3728   6.852   3.919   1.243  1.0680  0.2868 -0.7218
 1259TIP3   OH2 3729   0.306   3.859   2.409 -0.0426 -0.1002  0.1237
 1259TIP3    H1 3730   0.236   3.925   2.406 -0.2220 -0.3061 -0.1977
 1259TIP3    H2 3731   0.328   3.852   2.502  0.1704  0.6169  0.1290
 1260TIP3   OH2 3732   0.964   3.529   1.193  0.1677 -0.3514 -0.1703
 1260TIP3    H1 3733   1.032   3.463   1.180 -1.7885 -2.1986 -1.1272
 1260TIP3    H2 3734   0.941   3.521   1.285  1.3845  0.4577  0.2252
 1261TIP3   OH2 3735   3.211   4.304   1.124  0.0275  0.2109 -0.7102
 1261TIP3    H1 3736   3.184   4.395   1.123  1.4655  0.7176  2.1157
 1261TIP3    H2 3737   3.299   4.304   1.085  0.6699  0.2901  0.7089
 1262TIP3   OH2 3738   5.236   1.261   4.528  0.4500  0.0653  0.4192
 1262TIP3    H1 3739   5.199   1.248   4.616  0.2487 -2.4710  0.0126
 1262TIP3    H2 3740   5.322   1.218   4.533  0.1447 -0.6947 -0.8165
 1263TIP3   OH2 3741   5.419   1.144   5.200 -0.0735  0.6496  0.0905
 1263TIP3    H1 3742   5.492   1.095   5.238  0.4513  1.5325  0.2433
 1263TIP3    H2 3743   5.380   1.189   5.275  0.2954  1.5391 -0.2438
 1264TIP3   OH2 3744   0.774   3.766   1.369  0.2546 -0.1962 -0.8472
 1264TIP3    H1 3745   0.762   3.747   1.276 -1.1130 -1.6087 -0.3970
 1264TIP3    H2 3746   0.688   3.752   1.408  0.3424  2.3147  0.3315
 1265TIP3   OH2 3747   0.030   6.192   1.782  0.2656 -0.2684 -0.0445
 1265TIP3    H1 3748   0.102   6.207   1.844 -0.6774 -1.4787  1.3864
 1265TIP3    H2 3749  -0.044   6.241   1.819 -1.2102 -3.5153  1.6045
 1266TIP3   OH2 3750   5.249   0.980   5.005 -0.5282  0.5479 -0.2343
 1266TIP3    H1 3751   5.294   1.043   5.062 -0.8953 -0.7365  1.5299
 1266TIP3    H2 3752   5.159   0.979   5.038 -0.3225 -1.5350  0.3540
 1267TIP3   OH2 3753   3.066   4.362   0.719 -0.6781  0.5114 -0.5016
 1267TIP3    H1 3754   3.103   4.274   0.726 -1.2702  0.4562  3.4818
 1267TIP3    H2 3755   3.142   4.420   0.731 -0.7626  0.4757  0.2505
 1268TIP3   OH2 3756   0.904   2.169   1.447 -0.2021  0.3104  0.2195
 1268TIP3    H1 3757   0.861   2.102   1.499 -0.0513  0.1626  0.1531
 1268TIP3    H2 3758   0.833   2.227   1.419 -0.3759 -0.0168 -0.0142
 1269TIP3   OH2 3759   0.332   2.292   0.468 -0.1553 -0.1117 -0.6816
 1269TIP3    H1 3760   0.292   2.323   0.387  1.6311  0.5190 -1.3296
 1269TIP3    H2 3761   0.337   2.197   0.458 -0.1547 -0.0548 -1.1973
 1270TIP3   OH2 3762   6.525   0.249   6.409 -0.3663 -0.4975  0.4491
 1270TIP3    H1 3763   6.556   0.267   6.321 -0.3290  1.0180  0.7538
 1270TIP3    H2 3764   6.457   0.314   6.424 -2.6699 -2.8381  0.3460
 1271TIP3   OH2 3765   1.130   5.800   0.286 -0.2226  0.8659  0.2384
 1271TIP3    H1 3766   1.152   5.721   0.236 -3.7235 -1.1519  1.6692
 1271TIP3    H2 3767   1.209   5.820   0.335  0.9780 -1.3385 -0.7111
 1272TIP3   OH2 3768   1.663   3.645   0.414  0.4466  0.3576 -0.2955
 1272TIP3    H1 3769   1.699   3.570   0.366  0.0889  0.5520 -0.8641
 1272TIP3    H2 3770   1.579   3.662   0.373 -0.9308 -0.9407  1.8894
 1273TIP3   OH2 3771   1.474   5.838   1.385  0.4556 -0.3460  0.6802
 1273TIP3    H1 3772   1.449   5.920   1.428  1.8457  0.4967 -0.0456
 1273TIP3    H2 3773   1.550   5.807   1.434  0.4172 -0.7656  0.4719
 1274TIP3   OH2 3774   0.393   4.315   1.279  0.0007 -0.4951 -0.0979
 1274TIP3    H1 3775   0.339   4.332   1.356 -1.2624 -0.2538 -1.0327
 1274TIP3    H2 3776   0.339   4.259   1.223  0.8755 -0.6067 -0.8508
 1275TIP3   OH2 3777   1.989   4.219   1.459 -0.2853 -0.4906 -0.2134
 1275TIP3    H1 3778   1.993   4.148   1.395  0.6111  0.2286 -0.9599
 1275TIP3    H2 3779   2.024   4.295   1.413  1.2482 -0.1838  1.4197
 1276TIP3   OH2 3780   0.915   5.311   1.374  0.5755 -0.3858  0.3984
 1276TIP3    H1 3781   0.948   5.364   1.447  1.1127 -0.9678  0.5884
 1276TIP3    H2 3782   0.991   5.302   1.315  0.6604 -1.4313  0.6546
 1277TIP3   OH2 3783   0.842   5.079   1.541 -0.3425  0.4299  0.0219
 1277TIP3    H1 3784   0.836   4.991   1.503 -1.6375 -0.0836  1.3553
 1277TIP3    H2 3785   0.929   5.082   1.580  0.3855  0.3859 -1.5536
 1278TIP3   OH2 3786   0.655   4.216   2.492  0.3341  0.5070 -0.0990
 1278TIP3    H1 3787   0.567   4.189   2.520  0.3401 -0.3922 -0.9076
 1278TIP3    H2 3788   0.702   4.133   2.480  0.5920  0.9029 -1.9026
 1279TIP3   OH2 3789   0.248   5.388   0.944 -0.2797  0.2068 -0.5590
 1279TIP3    H1 3790   0.159   5.412   0.971  0.1064 -1.1080  2.0402
 1279TIP3    H2 3791   0.242   5.296   0.920  0.4044  0.0916 -0.2893
 1280TIP3   OH2 3792   2.937   3.728   0.207  0.2764 -0.4854 -0.3559
 1280TIP3    H1 3793   2.963   3.678   0.285 -1.9473  0.0724  0.7989
 1280TIP3    H2 3794   3.020   3.760   0.170  1.4487 -1.7696  1.0878
 1281TIP3   OH2 3795   2.808   4.041   0.929 -0.1269  0.7484 -0.1924
 1281TIP3    H1 3796   2.738   4.007   0.984  1.6105  0.6872  2.0740
 1281TIP3    H2 3797   2.779   4.025   0.839 -1.8295 -1.6364  0.7399
 1282TIP3   OH2 3798   1.474   5.801   1.731 -0.3474 -0.2716 -0.0384
 1282TIP3    H1 3799   1.412   5.772   1.798 -2.3743 -1.5602 -2.3536
 1282TIP3    H2 3800   1.533   5.726   1.720 -1.5459 -1.0392 -1.4011
 1283TIP3   OH2 3801   3.469   6.026   1.748  0.6913  0.4531  0.3921
 1283TIP3    H1 3802   3.378   6.010   1.769  0.4130  1.4291 -0.0356
 1283TIP3    H2 3803   3.479   6.121   1.754  1.2411  0.5146 -1.2378
 1284TIP3   OH2 3804   5.859   0.915   5.614  0.2086  0.8502 -0.1891
 1284TIP3    H1 3805   5.875   0.929   5.707 -0.8612  1.6000 -0.1034
 1284TIP3    H2 3806   5.847   1.003   5.578 -0.3671  0.5145 -0.8424
 1285TIP3   OH2 3807   1.494   4.953   2.970  0.3403 -0.0106 -0.0675
 1285TIP3    H1 3808   1.583   4.988   2.975  0.5161 -0.3929 -0.5565
 1285TIP3    H2 3809   1.454   4.979   3.053  0.5308  1.1965 -0.3424
 1286TIP3   OH2 3810   7.549   5.164   1.307 -0.1553  0.1024  0.3066
 1286TIP3    H1 3811   7.512   5.138   1.223 -0.8017 -1.4934  1.0557
 1286TIP3    H2 3812   7.603   5.240   1.287  1.2283 -1.3796 -1.8955
 1287TIP3   OH2 3813   1.445   3.584   1.743  0.0584  0.1203  0.3051
 1287TIP3    H1 3814   1.479   3.673   1.746  0.5792 -0.1017  1.5670
 1287TIP3    H2 3815   1.350   3.595   1.742  0.0955  0.6911  1.5136
 1288TIP3   OH2 3816   0.747   5.364   1.097  0.5310 -1.0628  0.8500
 1288TIP3    H1 3817   0.826   5.317   1.126  0.6060 -0.5349  1.5338
 1288TIP3    H2 3818   0.716   5.409   1.176  0.1903 -0.3568  0.3201
 1289TIP3   OH2 3819   7.883   4.494   1.329  0.4028 -0.2539 -0.5502
 1289TIP3    H1 3820   7.911   4.477   1.239  0.5670 -1.1853 -0.3252
 1289TIP3    H2 3821   7.876   4.589   1.334 -0.8484 -0.2630 -1.9146
 1290TIP3   OH2 3822   0.421   4.514  -0.010 -0.2651  0.2662  0.5919
 1290TIP3    H1 3823   0.402   4.603   0.021  0.1912  0.0322  1.5790
 1290TIP3    H2 3824   0.514   4.502   0.007 -0.1879 -0.1793 -0.1215
 1291TIP3   OH2 3825   1.953   1.937   0.660  0.0188  0.0112  0.6565
 1291TIP3    H1 3826   1.984   1.888   0.584  0.9168  0.7557  0.5328
 1291TIP3    H2 3827   1.919   2.019   0.623 -2.8899 -1.1438  0.7062
 1292TIP3   OH2 3828   5.770   4.449   5.582  0.1737  0.1894  0.4545
 1292TIP3    H1 3829   5.769   4.544   5.586 -1.9340  0.2187 -0.5099
 1292TIP3    H2 3830   5.843   4.428   5.523 -0.7606  1.2893 -1.1192
 1293TIP3   OH2 3831   2.250   5.365   2.142  0.5668 -0.1971  0.2263
 1293TIP3    H1 3832   2.250   5.392   2.234  1.3577 -1.3584  0.5777
 1293TIP3    H2 3833   2.161   5.334   2.126 -0.1093  1.7949  0.0536
 1294TIP3   OH2 3834   1.146   7.134   0.132  0.3523 -0.3210 -0.5877
 1294TIP3    H1 3835   1.167   7.173   0.048 -0.6170  1.9781  0.2121
 1294TIP3    H2 3836   1.158   7.204   0.196  0.5163 -1.8648  1.1395
 1295TIP3   OH2 3837   1.707   5.203   2.130 -0.1831 -0.3798 -0.0287
 1295TIP3    H1 3838   1.641   5.137   2.150  1.0911 -1.7424 -0.2400
 1295TIP3    H2 3839   1.781   5.181   2.186  0.7996 -0.0170 -1.1739
 1296TIP3   OH2 3840   2.670   5.437   0.510 -0.4546  0.1822 -0.2566
 1296TIP3    H1 3841   2.673   5.524   0.471  1.7083  0.7228  0.9956
 1296TIP3    H2 3842   2.703   5.379   0.441  2.0606  0.9508  0.2110
 1297TIP3   OH2 3843   1.039   5.371   2.841  0.2239  0.3354  0.0463
 1297TIP3    H1 3844   1.080   5.428   2.776  0.6691  2.0829  1.8185
 1297TIP3    H2 3845   1.112   5.336   2.891 -0.2092  0.1543  0.5536
 1298TIP3   OH2 3846   2.419   3.637   2.424 -0.6932 -0.1425 -0.1905
 1298TIP3    H1 3847   2.432   3.709   2.486 -1.4297 -1.8368  2.0330
 1298TIP3    H2 3848   2.443   3.558   2.474 -0.4998 -1.4848 -2.3592
 1299TIP3   OH2 3849   7.187   1.546   6.045  0.2619  0.0249 -0.0172
 1299TIP3    H1 3850   7.110   1.601   6.030  0.9869  0.5355 -1.9877
 1299TIP3    H2 3851   7.162   1.488   6.117 -1.4003  1.2462  0.4081
 1300TIP3   OH2 3852   7.438   0.381   4.864  0.2887  0.1227  0.0069
 1300TIP3    H1 3853   7.463   0.404   4.774  1.0373  0.4713  0.2968
 1300TIP3    H2 3854   7.381   0.305   4.854 -0.3779  0.7199 -0.8205
 1301TIP3   OH2 3855   0.369   4.720   0.902 -0.6246 -0.2165 -0.0239
 1301TIP3    H1 3856   0.287   4.670   0.904 -1.2827  0.8379 -0.2041
 1301TIP3    H2 3857   0.345   4.806   0.935  0.4694  0.0288  0.1391
 1302TIP3   OH2 3858   6.594   5.691   0.166 -0.3193  0.3561  0.4292
 1302TIP3    H1 3859   6.504   5.668   0.144 -0.0992 -1.1423  1.1036
 1302TIP3    H2 3860   6.588   5.737   0.250 -0.1726 -2.2184  1.8702
 1303TIP3   OH2 3861   7.841   3.224   0.612  0.0899  0.1605  0.4163
 1303TIP3    H1 3862   7.928   3.190   0.633 -0.1255  0.7215  2.2706
 1303TIP3    H2 3863   7.850   3.319   0.621 -0.6617  0.2336  0.3813
 1304TIP3   OH2 3864   2.291   4.120   2.119  0.0420  0.2040  0.1016
 1304TIP3    H1 3865   2.247   4.195   2.080  0.4278  0.4516  0.1458
 1304TIP3    H2 3866   2.219   4.066   2.154 -0.5998 -1.7402 -3.9305
 1305TIP3   OH2 3867   6.442   0.059   5.163 -0.1327  0.4209  0.2316
 1305TIP3    H1 3868   6.489   0.108   5.096  0.9838 -1.0164 -0.0737
 1305TIP3    H2 3869   6.510   0.024   5.220 -0.9089 -0.6022  0.5475
 1306TIP3   OH2 3870   3.243   5.976   0.251  0.1404 -0.3348  0.1437
 1306TIP3    H1 3871   3.226   6.012   0.165  2.8322 -1.3506 -0.8725
 1306TIP3    H2 3872   3.258   6.052   0.307  1.2828  0.2776 -0.9633
 1307TIP3   OH2 3873   0.941   3.853   2.873  0.9048 -0.0783 -0.0291
 1307TIP3    H1 3874   0.959   3.907   2.795  2.4905 -1.5210 -0.6908
 1307TIP3    H2 3875   1.016   3.869   2.930  1.0086 -1.0081  0.0907
 1308TIP3   OH2 3876   6.457   0.925   5.850  0.0616 -0.2124 -0.7018
 1308TIP3    H1 3877   6.511   0.875   5.789  0.4340 -0.0215 -0.5355
 1308TIP3    H2 3878   6.439   1.007   5.803  2.5862  1.0614  0.4492
 1309TIP3   OH2 3879   0.397   4.611   1.841 -0.0329  0.4833 -0.4210
 1309TIP3    H1 3880   0.318   4.561   1.862 -0.5352  0.3715 -2.4146
 1309TIP3    H2 3881   0.436   4.565   1.767  2.2433  0.2217  0.8977
 1310TIP3   OH2 3882   6.221  -0.009   6.376  0.1249 -0.0309  0.5503
 1310TIP3    H1 3883   6.230   0.062   6.439  0.5738  0.8722 -0.5319
 1310TIP3    H2 3884   6.229   0.032   6.290  0.7719 -1.4390 -0.0899
 1311TIP3   OH2 3885   6.025   5.977   0.642  0.0961  0.0353 -0.0535
 1311TIP3    H1 3886   5.934   5.983   0.668  0.3660  0.9059  0.7477
 1311TIP3    H2 3887   6.037   6.048   0.579  0.8391  1.6577  1.8313
 1312TIP3   OH2 3888   0.742   5.203   1.781  0.1101 -0.0072 -0.2750
 1312TIP3    H1 3889   0.819   5.259   1.793  0.6663 -0.7368 -0.3560
 1312TIP3    H2 3890   0.754   5.164   1.695  0.1688 -0.8920  0.1169
 1313TIP3   OH2 3891   6.213   0.070   6.100 -0.4284 -0.0306 -0.2947
 1313TIP3    H1 3892   6.276   0.036   6.037 -0.3014 -0.8666  0.2651
 1313TIP3    H2 3893   6.210   0.164   6.083 -0.1885 -0.2036 -1.3524
 1314TIP3   OH2 3894   0.198   5.658   0.701 -0.2053  0.5389 -0.3422
 1314TIP3    H1 3895   0.124   5.679   0.758  0.1644  0.3686  0.2050
 1314TIP3    H2 3896   0.180   5.569   0.671 -0.6828  0.8387 -0.9352
 1315TIP3   OH2 3897   6.008   3.978   1.090 -0.2983  0.0237 -0.0661
 1315TIP3    H1 3898   5.955   4.022   1.024  0.3231 -0.3535 -0.8265
 1315TIP3    H2 3899   5.952   3.907   1.122 -1.6608  1.8874  1.8291
 1316TIP3   OH2 3900   2.083   3.387   1.140 -0.2191 -0.2008  0.2977
 1316TIP3    H1 3901   2.014   3.361   1.079  0.9823 -0.2424 -1.0793
 1316TIP3    H2 3902   2.149   3.428   1.085  0.5319  0.5124  1.6962
 1317TIP3   OH2 3903   6.210  -0.021   5.324  0.7145  0.1931 -0.0599
 1317TIP3    H1 3904   6.302   0.003   5.313  0.7559 -1.1996 -3.4535
 1317TIP3    H2 3905   6.164   0.029   5.257 -0.6327 -0.9650 -0.0350
 1318TIP3   OH2 3906   1.066   2.970   0.783 -0.0054  0.5246 -0.6091
 1318TIP3    H1 3907   1.023   3.054   0.771  2.4508  1.7417 -1.1641
 1318TIP3    H2 3908   1.036   2.916   0.710 -0.7196  1.2801 -0.8744
 1319TIP3   OH2 3909   1.929   6.800   0.879  0.0360  0.5258 -0.1105
 1319TIP3    H1 3910   1.912   6.709   0.854 -2.1321  0.4830  1.3906
 1319TIP3    H2 3911   2.005   6.794   0.937 -1.0875 -0.5679  1.3102
 1320TIP3   OH2 3912   2.121   5.936   3.323  0.3649  0.4033  0.1204
 1320TIP3    H1 3913   2.070   5.855   3.324 -0.1512  0.7134 -1.0655
 1320TIP3    H2 3914   2.133   5.957   3.416  0.3139 -0.9089  0.4371
 1321TIP3   OH2 3915   0.704   3.786   1.095 -0.3104  0.6919  0.6258
 1321TIP3    H1 3916   0.786   3.822   1.060 -0.1732 -0.3318 -0.1189
 1321TIP3    H2 3917   0.661   3.861   1.136  0.6947  1.3776  0.4528
 1322TIP3   OH2 3918   6.963   0.772   4.861  0.0545  0.1954 -0.1341
 1322TIP3    H1 3919   6.942   0.700   4.800 -1.6307  0.2857  0.3321
 1322TIP3    H2 3920   6.899   0.840   4.840 -1.3275 -0.2402  2.5555
 1323TIP3   OH2 3921   2.229   6.036   0.873  0.1049 -0.0156 -0.0489
 1323TIP3    H1 3922   2.207   6.041   0.966 -0.7004  0.2616 -0.2452
 1323TIP3    H2 3923   2.152   6.073   0.828  1.0605  1.1711 -0.7590
 1324TIP3   OH2 3924   7.431   0.264   5.899  0.3229 -0.6690 -0.1100
 1324TIP3    H1 3925   7.520   0.281   5.931  0.6127 -0.7238 -0.8892
 1324TIP3    H2 3926   7.396   0.198   5.960  1.3172 -1.6856 -0.6211
 1325TIP3   OH2 3927   2.608   3.465   2.153  0.3245 -0.1479  0.5719
 1325TIP3    H1 3928   2.564   3.414   2.085 -1.3849  1.1869  0.6297
 1325TIP3    H2 3929   2.578   3.427   2.236  0.4761 -0.2271  0.5887
 1326TIP3   OH2 3930   0.919   7.313   2.873  0.4092 -0.0312 -0.1139
 1326TIP3    H1 3931   1.012   7.328   2.861  0.3561  0.3530 -0.0510
 1326TIP3    H2 3932   0.888   7.282   2.787  0.5699 -0.0407 -0.1674
 1327TIP3   OH2 3933   6.522   0.383   5.340 -0.1277 -0.6701  0.1975
 1327TIP3    H1 3934   6.454   0.322   5.366  0.4351 -2.2726 -1.8979
 1327TIP3    H2 3935   6.486   0.429   5.264 -0.2458  1.0755  1.2803
 1328TIP3   OH2 3936   5.969   2.526   6.219 -0.3400  0.6567  0.1352
 1328TIP3    H1 3937   6.040   2.518   6.283  0.7841  1.4007 -1.0157
 1328TIP3    H2 3938   5.899   2.570   6.267  0.7430  1.8093  0.6822
 1329TIP3   OH2 3939   1.516   4.045   2.019 -0.6027  0.2696  0.0296
 1329TIP3    H1 3940   1.472   4.022   2.100 -0.7817 -1.0480 -0.4211
 1329TIP3    H2 3941   1.582   3.976   2.007 -0.4914  0.5200 -0.8732
 1330TIP3   OH2 3942   2.433   4.133   1.050 -0.4194  0.6605  0.0451
 1330TIP3    H1 3943   2.504   4.195   1.066 -1.1323  1.8802 -1.4548
 1330TIP3    H2 3944   2.371   4.148   1.121  0.1646  0.5381  0.5876
 1331TIP3   OH2 3945   0.519   4.320   1.569 -0.5023 -0.3636 -0.0019
 1331TIP3    H1 3946   0.518   4.230   1.536  1.5624 -0.8171  1.0670
 1331TIP3    H2 3947   0.491   4.313   1.660  1.4832 -0.2075  0.6462
 1332TIP3   OH2 3948   1.424   3.874   0.427  0.2466 -0.0651 -0.0109
 1332TIP3    H1 3949   1.365   3.866   0.352  1.5819 -0.2570 -1.0549
 1332TIP3    H2 3950   1.483   3.946   0.404  0.4129  0.1532  1.0392
 1333TIP3   OH2 3951   1.085   6.957   1.450  0.2659 -0.3557 -0.0396
 1333TIP3    H1 3952   1.176   6.966   1.477  0.0144  0.1874  0.6660
 1333TIP3    H2 3953   1.082   6.876   1.400  1.2608 -0.0437 -0.6081
 1334TIP3   OH2 3954   1.737   4.641   0.699  0.6548 -0.3425 -0.0482
 1334TIP3    H1 3955   1.669   4.600   0.752  1.2004 -0.3316  0.6560
 1334TIP3    H2 3956   1.699   4.645   0.611 -0.9770  1.3094  0.7024
 1335TIP3   OH2 3957   1.593   4.681   0.471  0.2235  0.5083  0.5426
 1335TIP3    H1 3958   1.513   4.733   0.473  0.7326  1.3411 -0.1353
 1335TIP3    H2 3959   1.564   4.594   0.444 -0.0024  1.7711 -3.7317
 1336TIP3   OH2 3960   0.484   5.374   2.664 -0.2061 -0.0146 -0.7983
 1336TIP3    H1 3961   0.570   5.335   2.682 -1.5598 -3.7488 -2.0796
 1336TIP3    H2 3962   0.497   5.424   2.583  0.7697 -0.5316 -0.9740
 1337TIP3   OH2 3963   2.181   4.769   1.395 -0.8828  0.5460 -0.2956
 1337TIP3    H1 3964   2.268   4.752   1.358 -0.9455  1.3602 -0.8372
 1337TIP3    H2 3965   2.150   4.683   1.424 -0.1805  0.1423 -0.7199
 1338TIP3   OH2 3966   7.248   3.980   1.708 -0.1256 -0.1998 -0.1080
 1338TIP3    H1 3967   7.278   4.062   1.747 -0.6254  0.9814 -2.1290
 1338TIP3    H2 3968   7.155   3.975   1.732 -0.2211  0.1101 -0.3924
 1339TIP3   OH2 3969   5.120   0.562   0.583 -0.1525  0.0149  0.4570
 1339TIP3    H1 3970   5.200   0.577   0.634 -0.2273 -1.1248  0.9315
 1339TIP3    H2 3971   5.052   0.608   0.631  0.2273  1.1021 -0.0164
 1340TIP3   OH2 3972   1.668   5.314   0.712  0.2363 -0.3461  0.1402
 1340TIP3    H1 3973   1.752   5.340   0.674  0.1201  0.2522  0.2908
 1340TIP3    H2 3974   1.690   5.241   0.771  0.8196  0.5702  1.0657
 1341TIP3   OH2 3975   0.399   4.661   2.124 -0.1508 -0.8975  0.4837
 1341TIP3    H1 3976   0.485   4.682   2.161 -0.4611  1.1608  0.0879
 1341TIP3    H2 3977   0.413   4.666   2.029 -0.9845  0.7001  0.4289
 1342TIP3   OH2 3978   1.206   5.770   1.547 -0.3815 -0.6248  0.2103
 1342TIP3    H1 3979   1.300   5.788   1.543 -0.8758  2.1307 -0.2265
 1342TIP3    H2 3980   1.170   5.818   1.472 -1.9406 -3.1490 -0.7244
 1343TIP3   OH2 3981   0.150   5.168   1.305  0.2940 -0.5887 -0.4571
 1343TIP3    H1 3982   0.104   5.166   1.389 -1.6713  0.8118 -1.4520
 1343TIP3    H2 3983   0.126   5.086   1.262  0.1859 -0.6825 -0.2188
 1344TIP3   OH2 3984   4.770   0.373   2.739  0.2763 -0.4659 -0.2083
 1344TIP3    H1 3985   4.689   0.421   2.723 -0.3834 -0.9938  1.4134
 1344TIP3    H2 3986   4.826   0.394   2.665 -0.7340  1.2294 -0.5072
 1345TIP3   OH2 3987   1.858   5.848   0.578  0.4698 -0.3146 -0.2137
 1345TIP3    H1 3988   1.921   5.807   0.637 -0.7696 -1.3295  0.4114
 1345TIP3    H2 3989   1.856   5.790   0.501  1.9651  0.9200 -1.2243
 1346TIP3   OH2 3990   1.764   3.118   2.720  0.3344  0.0667 -0.0183
 1346TIP3    H1 3991   1.732   3.048   2.777  2.2690  1.3646  2.7888
 1346TIP3    H2 3992   1.688   3.143   2.667 -2.3743  0.7115  3.9513
 1347TIP3   OH2 3993   4.623   5.286   2.531 -0.3315  0.2491 -0.1719
 1347TIP3    H1 3994   4.546   5.285   2.473 -1.2728 -0.2485  1.0487
 1347TIP3    H2 3995   4.678   5.355   2.495 -1.1581  0.3419 -1.3229
 1348TIP3   OH2 3996   0.069   1.137   6.088 -0.7155 -0.1812  0.4941
 1348TIP3    H1 3997   0.135   1.078   6.052 -0.8573 -1.0372  1.6372
 1348TIP3    H2 3998  -0.009   1.122   6.033  0.1018  1.0888 -1.0818
 1349TIP3   OH2 3999   1.103   3.168   1.829 -0.4650 -0.1099 -0.3618
 1349TIP3    H1 4000   1.062   3.250   1.803 -0.9276 -0.6747 -1.4120
 1349TIP3    H2 4001   1.135   3.185   1.918 -1.5602  0.8376 -0.1340
 1350TIP3   OH2 4002   7.307   3.997   1.126  0.0950 -0.2384  0.4470
 1350TIP3    H1 4003   7.398   4.004   1.154  0.7730  1.1519 -2.0001
 1350TIP3    H2 4004   7.267   4.080   1.155 -0.4289 -0.8552  1.5372
 1351TIP3   OH2 4005   1.765   2.757   2.327 -0.1917  0.4756 -0.0161
 1351TIP3    H1 4006   1.749   2.784   2.236 -0.9987 -0.1087 -0.0552
 1351TIP3    H2 4007   1.782   2.663   2.321  0.8206  0.6298  0.3218
 1352TIP3   OH2 4008   7.034   0.736   6.035  0.2409  0.4523 -0.2678
 1352TIP3    H1 4009   6.978   0.663   6.064  0.6830  0.1449 -0.1782
 1352TIP3    H2 4010   7.100   0.694   5.980 -0.8896  1.0946 -2.1444
 1353TIP3   OH2 4011   0.760   6.244   1.857 -0.2084  0.3212 -0.0187
 1353TIP3    H1 4012   0.784   6.154   1.879 -1.8691  0.2484  1.6384
 1353TIP3    H2 4013   0.778   6.251   1.763  1.3269 -1.2687  0.1294
 1354TIP3   OH2 4014   4.293   7.161   6.235  0.0116  0.2260 -0.5882
 1354TIP3    H1 4015   4.286   7.084   6.178 -0.8900 -0.6082  0.6443
 1354TIP3    H2 4016   4.205   7.172   6.272  0.5558  0.8667  0.5304
 1355TIP3   OH2 4017   2.673   3.084   2.296 -0.0762 -0.4436 -0.4587
 1355TIP3    H1 4018   2.611   3.088   2.223  0.2310 -0.5129 -0.7261
 1355TIP3    H2 4019   2.672   2.992   2.323 -0.4404 -0.3528 -0.1551
 1356TIP3   OH2 4020   1.152   3.830   2.582 -0.6461 -0.0018  0.4079
 1356TIP3    H1 4021   1.155   3.921   2.611 -0.9692  0.2436 -0.3310
 1356TIP3    H2 4022   1.089   3.829   2.509 -1.1263 -0.9280  0.8223
 1357TIP3   OH2 4023   1.097   4.624   3.656  0.3064 -0.5694 -0.1903
 1357TIP3    H1 4024   1.082   4.588   3.568 -1.0549 -0.0259 -0.1754
 1357TIP3    H2 4025   1.129   4.549   3.707 -1.6013 -1.5582 -0.4171
 1358TIP3   OH2 4026   1.886   6.932   2.833  0.1573  0.5269  0.1406
 1358TIP3    H1 4027   1.877   6.996   2.762 -0.7317  1.7819  1.3617
 1358TIP3    H2 4028   1.877   6.847   2.789  1.1375  1.2196 -1.4681
 1359TIP3   OH2 4029   2.303   3.678   2.181 -0.7495 -0.1919 -0.2209
 1359TIP3    H1 4030   2.358   3.748   2.147 -1.7606  0.6433 -0.1395
 1359TIP3    H2 4031   2.344   3.655   2.265 -0.0537 -0.1445 -0.5373
 1360TIP3   OH2 4032   0.373   4.010   1.716 -0.2662  0.5067 -0.0650
 1360TIP3    H1 4033   0.398   4.098   1.746  0.3040  0.2493  0.2398
 1360TIP3    H2 4034   0.439   3.987   1.651  0.4600 -0.2854  0.9292
 1361TIP3   OH2 4035   4.651   6.175   0.618 -0.9038  0.6125  0.5214
 1361TIP3    H1 4036   4.591   6.240   0.655 -0.8162  1.7891 -1.2927
 1361TIP3    H2 4037   4.596   6.120   0.562 -0.5562  0.7892 -0.0058
 1362TIP3   OH2 4038   2.881   0.729   1.820 -0.2052 -0.2388 -0.1576
 1362TIP3    H1 4039   2.919   0.737   1.908 -0.4220 -3.2303  0.2380
 1362TIP3    H2 4040   2.927   0.796   1.769 -0.1622  1.6353  2.2224
 1363TIP3   OH2 4041   1.300   1.390   6.312 -0.1922 -0.2895  0.2613
 1363TIP3    H1 4042   1.246   1.456   6.355 -0.7714 -0.0739 -0.8013
 1363TIP3    H2 4043   1.297   1.315   6.372  0.7259  0.7295  1.6357
 1364TIP3   OH2 4044   2.832   5.825   2.107 -0.3220 -0.1493 -0.3015
 1364TIP3    H1 4045   2.882   5.752   2.072  0.9779 -0.2327  1.6748
 1364TIP3    H2 4046   2.897   5.881   2.150 -2.0728 -1.3620  4.2554
 1365TIP3   OH2 4047   4.499   1.272   2.875 -0.3453  0.3654  0.2040
 1365TIP3    H1 4048   4.557   1.195   2.879  0.5376  0.9916 -0.3152
 1365TIP3    H2 4049   4.521   1.322   2.953 -0.5626  0.3307  0.2855
 1366TIP3   OH2 4050   2.272   4.823   0.948 -0.1905 -0.3509 -0.0733
 1366TIP3    H1 4051   2.221   4.898   0.918 -1.5070 -1.5115 -0.8182
 1366TIP3    H2 4052   2.206   4.757   0.972  0.9346 -1.2237  0.6757
 1367TIP3   OH2 4053   4.156   4.770   4.700  0.0606  0.2810 -0.4400
 1367TIP3    H1 4054   4.084   4.733   4.750  0.2513  1.5710  0.8313
 1367TIP3    H2 4055   4.150   4.728   4.614 -0.3853 -1.8234  0.5987
 1368TIP3   OH2 4056   4.324   5.218   4.262 -0.3309 -0.0950 -0.1130
 1368TIP3    H1 4057   4.297   5.297   4.308  4.7006  1.6064  0.2073
 1368TIP3    H2 4058   4.326   5.243   4.170 -1.2191 -0.6337 -0.2814
 1369TIP3   OH2 4059   1.528   4.120   0.336 -0.0824 -0.2737 -0.3500
 1369TIP3    H1 4060   1.605   4.171   0.362  1.9529 -3.1759 -0.4072
 1369TIP3    H2 4061   1.547   4.093   0.246 -0.6546 -1.8804  0.0014
 1370TIP3   OH2 4062   2.173   4.235   0.436 -0.0624  0.5226  0.1946
 1370TIP3    H1 4063   2.137   4.147   0.446  0.0842  0.6072  1.5603
 1370TIP3    H2 4064   2.112   4.280   0.377 -1.1299  0.0616  0.9374
 1371TIP3   OH2 4065   7.118   1.031   5.169  0.0674 -0.9778 -0.2288
 1371TIP3    H1 4066   7.022   1.035   5.177 -0.3187  0.7785 -4.2303
 1371TIP3    H2 4067   7.148   1.116   5.198  0.2301 -0.8772 -0.6877
 1372TIP3   OH2 4068   5.599   0.673   4.815 -0.4802 -0.3235  0.2611
 1372TIP3    H1 4069   5.643   0.651   4.733 -1.3907  0.7195 -0.5120
 1372TIP3    H2 4070   5.533   0.605   4.826  0.5876 -1.2894  0.8866
 1373TIP3   OH2 4071   4.994   7.291   6.289  0.8483 -0.4673 -0.0065
 1373TIP3    H1 4072   4.913   7.341   6.289  0.9664 -0.2721  0.9992
 1373TIP3    H2 4073   4.970   7.204   6.258  0.3379 -0.2911 -0.0993
 1374TIP3   OH2 4074   6.751   0.688   6.413  0.0354 -0.4294 -0.0036
 1374TIP3    H1 4075   6.681   0.634   6.450 -0.3964  0.9608  1.2432
 1374TIP3    H2 4076   6.704   0.757   6.365  0.5811 -1.1244 -1.5702
 1375TIP3   OH2 4077   1.141   2.305   1.133 -0.6660  0.0841 -0.4910
 1375TIP3    H1 4078   1.217   2.279   1.081 -1.2470 -0.8149 -0.9071
 1375TIP3    H2 4079   1.133   2.237   1.200 -0.8594  0.4009 -0.1912
 1376TIP3   OH2 4080   0.699   2.215   4.287  0.1761  0.3869 -0.1527
 1376TIP3    H1 4081   0.727   2.123   4.282  0.8471  0.6229 -0.8978
 1376TIP3    H2 4082   0.780   2.265   4.291 -0.2066  0.9042  1.2862
 1377TIP3   OH2 4083   7.104   5.753   0.245 -0.1129 -0.1333 -0.0429
 1377TIP3    H1 4084   7.070   5.801   0.321  0.9949  1.6918 -0.6759
 1377TIP3    H2 4085   7.183   5.708   0.278  0.7396  1.1848 -0.2565
 1378TIP3   OH2 4086   7.535   3.748   2.463  0.1847 -0.2385 -0.8345
 1378TIP3    H1 4087   7.528   3.699   2.545  1.9099 -1.7012 -1.5360
 1378TIP3    H2 4088   7.447   3.746   2.425 -0.5260  0.0805  0.7420
 1379TIP3   OH2 4089   1.156   4.996   0.961 -0.2048 -0.0365  0.3162
 1379TIP3    H1 4090   1.108   4.998   1.044  0.3168 -2.7356  0.7089
 1379TIP3    H2 4091   1.246   4.976   0.986 -0.0578 -0.9171 -0.9133
 1380TIP3   OH2 4092   3.079   6.835   1.251 -0.0594 -0.0383  0.2468
 1380TIP3    H1 4093   3.026   6.905   1.213 -0.1912 -0.6166 -0.6518
 1380TIP3    H2 4094   3.072   6.848   1.346 -0.6271  0.7604  0.0966
 1381TIP3   OH2 4095   2.285   2.550   0.629 -0.2708 -1.0305 -0.4772
 1381TIP3    H1 4096   2.227   2.613   0.586  0.1145 -0.9736 -0.9282
 1381TIP3    H2 4097   2.231   2.507   0.695 -0.6468 -0.5211 -0.4553
 1382TIP3   OH2 4098   7.404   5.635   1.958 -0.0707  0.1136  0.5107
 1382TIP3    H1 4099   7.357   5.709   1.998  0.4411  0.5288  0.3543
 1382TIP3    H2 4100   7.388   5.645   1.865  0.7942  0.5963  0.4025
 1383TIP3   OH2 4101   2.043   6.316   3.109 -0.0023 -0.5710 -0.0295
 1383TIP3    H1 4102   2.045   6.280   3.198 -1.6403  0.7620  0.5856
 1383TIP3    H2 4103   1.996   6.251   3.058 -0.9476 -0.3777  0.5756
 1384TIP3   OH2 4104   2.242   5.897   1.575 -0.6787 -0.5551  0.7242
 1384TIP3    H1 4105   2.302   5.917   1.647  0.4313 -0.8188 -0.1147
 1384TIP3    H2 4106   2.298   5.897   1.497 -1.5529 -1.9957  0.0827
 1385TIP3   OH2 4107   0.913   4.746   0.895  0.3563  0.4466  0.3503
 1385TIP3    H1 4108   0.882   4.656   0.891  0.3253  0.4279  1.0381
 1385TIP3    H2 4109   0.880   4.780   0.978  0.3406  1.1029  0.0804
 1386TIP3   OH2 4110   3.222   5.586   0.826  0.0678 -0.2418 -0.4414
 1386TIP3    H1 4111   3.168   5.663   0.805 -1.4759 -1.1276  0.1804
 1386TIP3    H2 4112   3.172   5.512   0.793  2.9181 -0.8458 -3.6758
 1387TIP3   OH2 4113   3.287   6.236   0.366 -0.4506  0.6644  0.4094
 1387TIP3    H1 4114   3.356   6.272   0.421  0.3713  3.3024 -2.2242
 1387TIP3    H2 4115   3.208   6.283   0.393 -0.8433 -0.8186  1.9378
 1388TIP3   OH2 4116   1.314   3.533   1.150  0.3831  0.2903 -0.3192
 1388TIP3    H1 4117   1.259   3.466   1.191 -0.0875  1.5119  1.1010
 1388TIP3    H2 4118   1.280   3.540   1.060  0.2543 -1.1621 -0.3888
 1389TIP3   OH2 4119   2.563   6.156   2.164  0.5551 -0.8681 -0.2721
 1389TIP3    H1 4120   2.552   6.087   2.230 -0.0719 -0.6902 -0.1868
 1389TIP3    H2 4121   2.607   6.112   2.091 -0.4038 -1.5173 -0.4689
 1390TIP3   OH2 4122   3.637   5.812   2.761 -0.2059  0.4952  0.3403
 1390TIP3    H1 4123   3.693   5.741   2.730  0.3269  1.5061 -1.0082
 1390TIP3    H2 4124   3.681   5.845   2.839 -1.4382 -1.8984  2.1173
 1391TIP3   OH2 4125   5.429   0.250   5.539  0.0125 -0.3139  0.3669
 1391TIP3    H1 4126   5.399   0.306   5.467 -2.8247  0.7565  2.3180
 1391TIP3    H2 4127   5.455   0.312   5.608  1.9601 -1.3384  0.5745
 1392TIP3   OH2 4128   2.319   6.317   4.274 -0.0706 -0.3765  0.5505
 1392TIP3    H1 4129   2.351   6.231   4.249 -1.7398 -1.0754  0.7105
 1392TIP3    H2 4130   2.368   6.338   4.354  1.1076 -0.6970 -0.0795
 1393TIP3   OH2 4131   7.275   6.180   1.240 -0.3655  1.1524 -0.1161
 1393TIP3    H1 4132   7.341   6.230   1.191  0.2173 -0.3813 -0.9000
 1393TIP3    H2 4133   7.269   6.096   1.195 -0.9969  0.3159  1.4799
 1394TIP3   OH2 4134   5.139   1.003   6.136  0.9178 -1.2699 -0.6629
 1394TIP3    H1 4135   5.207   1.003   6.203 -2.0174 -0.0858  2.5091
 1394TIP3    H2 4136   5.120   1.096   6.122 -1.3824 -1.5895  0.0528
 1395TIP3   OH2 4137   4.182   2.153   5.847  0.8646 -0.1658  0.0995
 1395TIP3    H1 4138   4.134   2.087   5.896  0.4357  0.3196  0.3460
 1395TIP3    H2 4139   4.274   2.134   5.864  0.7268  1.5884  3.3090
 1396TIP3   OH2 4140   6.575   3.228   1.516  0.1160  0.3883  0.2706
 1396TIP3    H1 4141   6.635   3.235   1.442  2.4814 -1.9372  1.9049
 1396TIP3    H2 4142   6.511   3.162   1.489  0.0521  0.6712 -0.2788
 1397TIP3   OH2 4143   0.201   0.652   5.808  0.0816  0.2641  0.1466
 1397TIP3    H1 4144   0.116   0.620   5.777  0.2631  0.1903 -0.2822
 1397TIP3    H2 4145   0.265   0.608   5.752  0.4760 -0.7041  1.3463
 1398TIP3   OH2 4146   0.242   4.815   0.543  0.1546 -0.4596 -0.0249
 1398TIP3    H1 4147   0.261   4.844   0.454 -0.6487  0.3548  0.0526
 1398TIP3    H2 4148   0.251   4.894   0.596  1.3925 -1.1001  0.7450
 1399TIP3   OH2 4149   4.919   3.988   2.710  0.4817  0.0228  0.2464
 1399TIP3    H1 4150   4.961   4.054   2.655  2.3744 -0.7775  0.6790
 1399TIP3    H2 4151   4.860   4.038   2.767  1.7981  1.3180  0.4905
 1400TIP3   OH2 4152   2.252   0.109   2.078 -0.4093  0.1713  0.4745
 1400TIP3    H1 4153   2.327   0.124   2.020  0.2182 -2.3486  0.5873
 1400TIP3    H2 4154   2.176   0.132   2.025  0.2681 -0.1018 -0.6440
 1401TIP3   OH2 4155   1.302   0.592   3.664 -0.1470 -0.1898 -0.0935
 1401TIP3    H1 4156   1.209   0.568   3.655  0.2211 -1.5030 -0.3987
 1401TIP3    H2 4157   1.305   0.641   3.747 -1.1024 -0.1750 -0.0551
 1402TIP3   OH2 4158   4.150   6.186   2.487 -0.3577  0.1622 -0.1567
 1402TIP3    H1 4159   4.110   6.105   2.519 -1.4228  0.1159 -1.5857
 1402TIP3    H2 4160   4.155   6.176   2.392  1.0686  1.0773 -0.2062
 1403TIP3   OH2 4161   4.206   4.010   0.188  0.4972  0.0951 -0.7210
 1403TIP3    H1 4162   4.114   4.007   0.216  0.0675  1.4399 -1.9088
 1403TIP3    H2 4163   4.225   4.103   0.178  1.8600 -0.1964 -0.9234
 1404TIP3   OH2 4164   0.250   6.083   1.038 -0.1301 -0.1420  0.0190
 1404TIP3    H1 4165   0.300   6.006   1.013 -0.9146 -0.7292  0.2176
 1404TIP3    H2 4166   0.240   6.133   0.957  0.6808 -0.0713 -0.0391
 1405TIP3   OH2 4167   4.075   6.329   5.788 -0.0202  0.0994  0.3373
 1405TIP3    H1 4168   4.035   6.336   5.874 -0.4652 -1.3023  0.2615
 1405TIP3    H2 4169   4.001   6.336   5.727 -0.0217 -1.1710  0.1596
 1406TIP3   OH2 4170   3.008   6.540   0.066  0.5083 -0.7265  0.3143
 1406TIP3    H1 4171   2.935   6.484   0.041 -0.7438  0.9969  0.0032
 1406TIP3    H2 4172   3.077   6.480   0.093 -0.7193 -2.4021 -0.2332
 1407TIP3   OH2 4173   2.805   1.674   5.477 -0.1314 -0.4384 -0.0234
 1407TIP3    H1 4174   2.845   1.593   5.510  0.6615  0.1171  0.3807
 1407TIP3    H2 4175   2.711   1.654   5.473 -0.0867 -0.9631  1.2978
 1408TIP3   OH2 4176   1.107   1.332   6.072  0.3699  0.1325  0.2502
 1408TIP3    H1 4177   1.187   1.382   6.060 -0.3564  0.8619 -1.6731
 1408TIP3    H2 4178   1.124   1.248   6.031 -0.4746  0.9453 -1.8012
 1409TIP3   OH2 4179   4.915   6.962   4.960 -0.3095  0.1024 -0.1047
 1409TIP3    H1 4180   4.996   6.995   4.922  0.2049  1.1076  1.8413
 1409TIP3    H2 4181   4.849   7.026   4.933  0.1190  1.0090  0.9504
 1410TIP3   OH2 4182   4.276   5.226   1.609  1.0271  0.0765 -0.2515
 1410TIP3    H1 4183   4.239   5.141   1.586 -1.3252  0.4280  1.9898
 1410TIP3    H2 4184   4.262   5.280   1.532 -0.6079 -0.6254 -0.4668
 1411TIP3   OH2 4185   0.865   0.439   5.602  0.4901 -0.0509  0.0029
 1411TIP3    H1 4186   0.960   0.442   5.590  0.6596 -3.8655 -0.4962
 1411TIP3    H2 4187   0.830   0.424   5.514 -0.4127 -0.6690  0.4570
 1412TIP3   OH2 4188   2.456   0.425   5.972  0.2088 -0.1231  0.5747
 1412TIP3    H1 4189   2.370   0.467   5.960  0.2531 -0.4078 -0.8605
 1412TIP3    H2 4190   2.462   0.409   6.066 -1.1349  0.2865  0.7443
 1413TIP3   OH2 4191   0.496   0.336   5.526  0.7109  0.0301 -0.2116
 1413TIP3    H1 4192   0.463   0.265   5.581 -1.4881  0.2417 -1.1911
 1413TIP3    H2 4193   0.531   0.401   5.588 -0.3892 -0.3826  0.8666
 1414TIP3   OH2 4194   3.828   4.316   0.782 -0.6554 -0.1635  0.0403
 1414TIP3    H1 4195   3.902   4.369   0.753 -1.1562  0.8319  0.5608
 1414TIP3    H2 4196   3.770   4.312   0.706 -0.9690  0.6637  0.2350
 1415TIP3   OH2 4197   4.958   3.280   0.939  0.2403  0.2253 -0.2403
 1415TIP3    H1 4198   4.877   3.261   0.892  0.3473  0.0127 -0.3387
 1415TIP3    H2 4199   4.940   3.253   1.029  0.1433  0.3367 -0.2261
 1416TIP3   OH2 4200   7.468   0.362   5.531 -0.3146 -0.2831 -0.3104
 1416TIP3    H1 4201   7.513   0.377   5.447  1.0747  1.0355  0.6325
 1416TIP3    H2 4202   7.376   0.379   5.513  0.0056  0.1976 -1.5165
 1417TIP3   OH2 4203   2.341   6.826   1.468 -0.2536  0.2820 -0.2693
 1417TIP3    H1 4204   2.315   6.886   1.538 -0.3362 -0.8284  0.6914
 1417TIP3    H2 4205   2.402   6.875   1.414 -0.2196  1.1761  0.5702
 1418TIP3   OH2 4206   5.226   0.244   0.999 -0.4939  0.2852 -0.2902
 1418TIP3    H1 4207   5.167   0.196   0.939 -0.7799 -0.4891  0.5878
 1418TIP3    H2 4208   5.194   0.221   1.086  0.4563  0.7200  0.1767
 1419TIP3   OH2 4209   4.871   6.359   0.704  0.2012 -0.2116  0.2914
 1419TIP3    H1 4210   4.794   6.307   0.681  0.0180  0.2235 -0.0932
 1419TIP3    H2 4211   4.889   6.410   0.625 -0.1443  0.9503  0.9476
 1420TIP3   OH2 4212   0.880   0.491   6.312  1.0626  0.3034 -0.3005
 1420TIP3    H1 4213   0.950   0.435   6.345 -0.8251 -1.8836  0.0973
 1420TIP3    H2 4214   0.857   0.452   6.227 -0.5081  0.2419  0.1490
 1421TIP3   OH2 4215   4.924   6.476   5.996  0.2443  0.1524  0.3109
 1421TIP3    H1 4216   4.888   6.390   5.977  0.1409  0.5780 -1.4500
 1421TIP3    H2 4217   4.877   6.536   5.938  1.8652  1.0915 -0.0556
 1422TIP3   OH2 4218   1.083   0.718   5.782  0.0720  0.1998 -0.0343
 1422TIP3    H1 4219   0.993   0.704   5.814 -0.0246  2.1091  0.6365
 1422TIP3    H2 4220   1.079   0.802   5.736  1.8327  1.1038  1.3763
 1423TIP3   OH2 4221   3.386   3.638   0.841 -0.2044  0.2455 -0.0651
 1423TIP3    H1 4222   3.451   3.581   0.882 -1.1693  0.1991  1.4449
 1423TIP3    H2 4223   3.378   3.712   0.901 -0.1879  1.1609 -1.1759
 1424TIP3   OH2 4224   7.415   7.255   3.876  0.4115  0.4424  0.0142
 1424TIP3    H1 4225   7.413   7.289   3.786 -0.6111  2.4099  0.7508
 1424TIP3    H2 4226   7.473   7.314   3.923  1.6586 -1.1109  0.4814
 1425TIP3   OH2 4227   1.848   4.228   6.180 -0.4382  0.1567 -0.1823
 1425TIP3    H1 4228   1.927   4.255   6.225 -0.5196  1.1378 -0.6224
 1425TIP3    H2 4229   1.799   4.309   6.165 -1.3687 -0.3944 -0.2147
 1426TIP3   OH2 4230   6.555   1.378   5.996  0.2587 -0.1312  0.1163
 1426TIP3    H1 4231   6.572   1.286   6.017  1.4159  0.1124  0.2813
 1426TIP3    H2 4232   6.593   1.390   5.909 -0.2010  0.0986 -0.0507
 1427TIP3   OH2 4233   3.951   7.225   2.123 -0.2014  0.3975  0.2584
 1427TIP3    H1 4234   3.881   7.161   2.131 -0.8922  1.0827 -0.1918
 1427TIP3    H2 4235   4.013   7.187   2.061 -0.8265  0.3497 -0.3443
 1428TIP3   OH2 4236   2.650   5.059   0.272 -0.0036  0.3158 -0.0839
 1428TIP3    H1 4237   2.737   5.028   0.246 -0.5785  1.3128 -3.3245
 1428TIP3    H2 4238   2.610   4.983   0.314  1.7892 -0.6929 -0.1240
 1429TIP3   OH2 4239   1.009   0.172   5.788 -0.2014  0.0980 -0.0553
 1429TIP3    H1 4240   1.024   0.138   5.700 -1.9448 -0.0253 -0.3354
 1429TIP3    H2 4241   0.940   0.116   5.824  1.2158 -0.4977  1.7921
 1430TIP3   OH2 4242   0.263   7.319   0.651  0.3341 -0.1547 -0.3468
 1430TIP3    H1 4243   0.259   7.307   0.746 -2.3865 -0.6365 -0.4966
 1430TIP3    H2 4244   0.291   7.233   0.617 -2.2859 -1.1327 -0.1892
 1431TIP3   OH2 4245   5.501   1.351   5.059  0.5852 -0.3082 -1.1180
 1431TIP3    H1 4246   5.471   1.277   5.112 -1.2241 -0.5461 -2.4314
 1431TIP3    H2 4247   5.463   1.428   5.102  1.3873 -0.2573 -0.4994
 1432TIP3   OH2 4248   2.646   4.481   0.470  0.0505 -0.0464 -0.4404
 1432TIP3    H1 4249   2.571   4.430   0.439  0.6189 -0.3860 -1.2763
 1432TIP3    H2 4250   2.695   4.420   0.526 -0.6371  0.3737  0.6333
 1433TIP3   OH2 4251   1.261   7.284   0.575 -0.2519 -0.4713 -0.4261
 1433TIP3    H1 4252   1.218   7.360   0.614  0.2300 -0.3965 -0.0323
 1433TIP3    H2 4253   1.239   7.289   0.482  0.5730  0.7001 -0.5718
 1434TIP3   OH2 4254   3.046   6.596   2.428  0.2869 -0.1730 -0.8528
 1434TIP3    H1 4255   3.063   6.505   2.402  1.3839 -0.1556 -0.2473
 1434TIP3    H2 4256   3.054   6.595   2.523 -1.7806  0.1538 -0.6471
 1435TIP3   OH2 4257   4.871   5.930   1.255  0.4264 -0.1997 -0.0115
 1435TIP3    H1 4258   4.899   5.986   1.182  0.5191 -0.4259 -0.1497
 1435TIP3    H2 4259   4.924   5.851   1.246  1.9015  0.6170  1.5166
 1436TIP3   OH2 4260   2.883   6.581   1.014  0.1267  0.0453 -0.5129
 1436TIP3    H1 4261   2.801   6.564   0.968 -0.1382  0.8725 -0.3532
 1436TIP3    H2 4262   2.928   6.647   0.960  0.1319  0.4970  0.0412
 1437TIP3   OH2 4263   5.784   6.593   6.065 -0.2062 -0.1761 -0.1105
 1437TIP3    H1 4264   5.760   6.677   6.103 -1.1566  0.0596 -1.2052
 1437TIP3    H2 4265   5.834   6.549   6.134 -0.5178  0.8888  0.8127
 1438TIP3   OH2 4266   3.560   5.960   2.534 -0.0577  0.3685  0.7388
 1438TIP3    H1 4267   3.505   5.914   2.471 -2.4976  1.1095  2.2381
 1438TIP3    H2 4268   3.570   5.897   2.606  0.2527  0.5804  0.8794
 1439TIP3   OH2 4269   0.651   4.823   1.027 -0.7773 -0.6761  0.0343
 1439TIP3    H1 4270   0.562   4.858   1.016  0.3419  2.2397 -0.2414
 1439TIP3    H2 4271   0.643   4.762   1.100 -3.0192 -0.4960 -0.0097
 1440TIP3   OH2 4272   1.664   3.248   2.122 -0.0573  0.0330 -0.1963
 1440TIP3    H1 4273   1.614   3.316   2.076  0.9113  0.0496 -1.2333
 1440TIP3    H2 4274   1.710   3.294   2.192 -1.8446 -0.0509  1.0737
 1441TIP3   OH2 4275   3.027   3.990   1.354 -0.1163  0.3611 -0.1456
 1441TIP3    H1 4276   3.001   3.937   1.429  0.8587 -0.8172 -0.6270
 1441TIP3    H2 4277   2.978   4.072   1.364 -2.1173 -0.8660  0.2407
 1442TIP3   OH2 4278   7.609   1.227   6.197 -0.2578 -0.3728 -0.1837
 1442TIP3    H1 4279   7.638   1.252   6.109  1.5966  0.6023  0.6742
 1442TIP3    H2 4280   7.642   1.138   6.209 -2.4309 -1.3694 -1.2865
 1443TIP3   OH2 4281   2.396   4.690   0.623 -0.0769 -0.3355 -0.4792
 1443TIP3    H1 4282   2.303   4.713   0.622 -0.0559 -0.2978 -1.8050
 1443TIP3    H2 4283   2.398   4.595   0.618 -0.0472 -0.3622 -0.0120
 1444TIP3   OH2 4284   4.080   3.707   1.866 -0.4119  0.2201  0.1646
 1444TIP3    H1 4285   4.028   3.660   1.931 -1.7368  1.6791  0.1897
 1444TIP3    H2 4286   4.057   3.665   1.783 -0.2502 -0.3125  0.3829
 1445TIP3   OH2 4287   7.657   1.644   6.018 -0.3813 -0.1276  0.8306
 1445TIP3    H1 4288   7.651   1.600   5.933  2.0638 -1.9651  1.5483
 1445TIP3    H2 4289   7.571   1.684   6.031 -1.2700 -1.0778 -1.8148
 1446TIP3   OH2 4290   7.463   0.814   5.609 -0.0961  0.2900 -0.6740
 1446TIP3    H1 4291   7.493   0.880   5.672 -0.4834 -0.4198  0.2587
 1446TIP3    H2 4292   7.426   0.865   5.536 -1.0579  1.0985  0.3668
 1447TIP3   OH2 4293   2.876   4.220   0.390  0.0562  0.2435  0.4425
 1447TIP3    H1 4294   2.814   4.153   0.363  0.8305 -0.2769 -0.0498
 1447TIP3    H2 4295   2.876   4.283   0.318  0.8941 -0.3042 -0.0401
 1448TIP3   OH2 4296   3.626   4.413   1.482  0.2078 -0.0986  0.4142
 1448TIP3    H1 4297   3.703   4.374   1.523  0.4825  0.4965  0.4727
 1448TIP3    H2 4298   3.660   4.459   1.405  0.0192  0.7767  0.8428
 1449TIP3   OH2 4299   3.739   5.155   1.871 -0.3480 -0.2035  0.1728
 1449TIP3    H1 4300   3.771   5.172   1.782  0.3663 -2.4018 -0.0026
 1449TIP3    H2 4301   3.808   5.190   1.928 -0.1229 -0.1291 -0.1430
 1450TIP3   OH2 4302   4.318   6.096   0.035  0.4697 -0.4687  0.1141
 1450TIP3    H1 4303   4.359   6.150  -0.033 -1.3995 -0.1751 -0.8011
 1450TIP3    H2 4304   4.328   6.148   0.115  0.9227  0.0853 -0.2956
 1451TIP3   OH2 4305   1.338   4.271   0.454 -0.2903  0.3092 -0.1577
 1451TIP3    H1 4306   1.383   4.265   0.538  0.1638 -0.3349 -0.4461
 1451TIP3    H2 4307   1.395   4.226   0.393 -1.7469 -1.3482 -0.3503
 1452TIP3   OH2 4308   0.003   2.042   4.939 -0.2413  0.5340 -0.2337
 1452TIP3    H1 4309  -0.014   1.953   4.971 -0.8123  0.7834  0.1742
 1452TIP3    H2 4310   0.042   2.029   4.852 -2.2761 -0.1044 -1.1027
 1453TIP3   OH2 4311   3.390   4.027   1.718 -0.3578 -0.3273 -0.0377
 1453TIP3    H1 4312   3.394   4.069   1.633  3.2847 -1.4401 -0.4950
 1453TIP3    H2 4313   3.325   3.957   1.707 -1.1518  0.6035 -1.3668
 1454TIP3   OH2 4314   5.013   7.460   0.753  0.0809  0.1683  0.0004
 1454TIP3    H1 4315   5.024   7.373   0.791 -2.1677 -0.4473 -0.6442
 1454TIP3    H2 4316   5.100   7.486   0.725  1.2356 -0.7419  2.6032
 1455TIP3   OH2 4317   1.233   3.844   0.236 -0.0555  0.3023  0.0645
 1455TIP3    H1 4318   1.238   3.908   0.165 -1.1272  1.6605  1.1990
 1455TIP3    H2 4319   1.261   3.762   0.196  2.0280  1.6135 -1.2180
 1456TIP3   OH2 4320   2.558   5.475   1.276 -0.7231  0.0358 -0.1142
 1456TIP3    H1 4321   2.473   5.498   1.312 -0.4563  1.1618 -0.2018
 1456TIP3    H2 4322   2.538   5.413   1.205 -1.6150  1.8199 -1.4570
 1457TIP3   OH2 4323   1.710   5.572   1.792  0.3740  0.4105 -0.6565
 1457TIP3    H1 4324   1.684   5.539   1.878 -1.3191 -2.4196 -2.1961
 1457TIP3    H2 4325   1.782   5.633   1.810 -0.9710  1.0625  2.8742
 1458TIP3   OH2 4326   1.271   1.099   6.349  0.4803  0.0244 -0.3554
 1458TIP3    H1 4327   1.296   1.157   6.277  1.5676 -1.9212 -1.6058
 1458TIP3    H2 4328   1.220   1.029   6.307 -1.3261  0.3608  1.1969
 1459TIP3   OH2 4329   2.348   2.603   4.906 -0.4920  0.2956 -0.3889
 1459TIP3    H1 4330   2.275   2.557   4.865 -1.4518 -0.7237  2.3773
 1459TIP3    H2 4331   2.308   2.677   4.951  0.5865  1.6164 -1.5687
 1460TIP3   OH2 4332   3.615   3.805   1.305 -0.4213 -0.2681  0.1696
 1460TIP3    H1 4333   3.543   3.867   1.310  0.9825  1.3576  0.6983
 1460TIP3    H2 4334   3.591   3.735   1.365 -2.0964 -0.3439 -0.5659
 1461TIP3   OH2 4335   1.291   3.940   0.676 -0.7361  0.0992  0.2060
 1461TIP3    H1 4336   1.342   3.889   0.613  0.6063  1.3203  0.2546
 1461TIP3    H2 4337   1.200   3.924   0.653 -0.2774 -0.3835 -1.3094
 1462TIP3   OH2 4338   2.667   7.237   5.320  0.0938 -0.4126 -0.1342
 1462TIP3    H1 4339   2.668   7.146   5.351 -0.9168 -0.3301  0.1532
 1462TIP3    H2 4340   2.658   7.289   5.400 -1.8436 -0.1698 -0.4900
 1463TIP3   OH2 4341   1.767   3.099   0.266  0.3276  0.3019  0.2619
 1463TIP3    H1 4342   1.744   3.006   0.270  1.3825 -0.0313 -0.8244
 1463TIP3    H2 4343   1.829   3.104   0.194  0.4026  1.8360  0.4264
 1464TIP3   OH2 4344   4.059   6.852   0.658 -0.2223 -0.4297  0.1339
 1464TIP3    H1 4345   4.080   6.940   0.626 -1.7821 -0.1572 -0.1551
 1464TIP3    H2 4346   4.139   6.802   0.643  0.6596  0.9147  0.2222
 1465TIP3   OH2 4347   6.241   1.420   1.023 -0.3495  0.4703  0.6093
 1465TIP3    H1 4348   6.196   1.372   0.953  1.0846 -0.5659  0.3781
 1465TIP3    H2 4349   6.333   1.419   0.998 -0.0509  1.6880  1.5948
 1466TIP3   OH2 4350   4.028   3.955   1.573  0.3140 -0.3468 -0.3209
 1466TIP3    H1 4351   3.949   3.972   1.522  0.5200  1.8398  0.0583
 1466TIP3    H2 4352   4.093   3.930   1.507 -0.1114 -0.0355 -0.8673
 1467TIP3   OH2 4353   2.318   1.665   1.268 -0.4940 -0.2279  0.0933
 1467TIP3    H1 4354   2.352   1.752   1.247  0.8385 -0.6603  0.4360
 1467TIP3    H2 4355   2.228   1.666   1.236 -0.5944  1.3962  0.4039
 1468TIP3   OH2 4356   2.291   6.340   0.882  0.0577 -0.5244 -0.5418
 1468TIP3    H1 4357   2.279   6.355   0.789 -0.2962  0.9516 -0.2868
 1468TIP3    H2 4358   2.342   6.260   0.888  0.7067 -0.2364 -2.0179
 1469TIP3   OH2 4359   3.421   4.268   0.108 -0.1913  0.2996 -0.2062
 1469TIP3    H1 4360   3.461   4.250   0.023 -0.0650  2.2007 -0.5774
 1469TIP3    H2 4361   3.460   4.204   0.167 -2.4502 -3.0166 -2.1209
 1470TIP3   OH2 4362   4.196   5.423   1.415 -0.3917 -0.0452 -0.0596
 1470TIP3    H1 4363   4.267   5.485   1.397 -1.0629  0.7651  0.0847
 1470TIP3    H2 4364   4.142   5.425   1.335  0.7912 -2.1056 -0.9657
 1471TIP3   OH2 4365   0.134   4.505   6.384 -0.3524 -0.2804  0.2110
 1471TIP3    H1 4366   0.105   4.549   6.304  0.2252  1.6174  1.0155
 1471TIP3    H2 4367   0.087   4.422   6.384 -2.6341  0.9540 -0.6065
 1472TIP3   OH2 4368   3.064   4.320   1.376 -0.0341  0.1962  0.1061
 1472TIP3    H1 4369   2.977   4.283   1.358  0.9594 -2.7850  1.1537
 1472TIP3    H2 4370   3.114   4.305   1.296  0.8122 -2.1863  1.0380
 1473TIP3   OH2 4371   1.988   3.678   0.944  0.3922 -0.0849 -0.1032
 1473TIP3    H1 4372   1.991   3.711   0.854 -0.9041 -0.5826 -0.3378
 1473TIP3    H2 4373   2.080   3.680   0.973  0.9949 -1.0691 -1.8491
 1474TIP3   OH2 4374   1.533   5.464   0.534  0.0436  0.5104  0.4896
 1474TIP3    H1 4375   1.533   5.414   0.453  0.7435  0.8758  0.2604
 1474TIP3    H2 4376   1.562   5.403   0.601  1.0094  0.6414  0.1922
 1475TIP3   OH2 4377   2.368   3.345   3.603  0.0489 -0.4222  0.1319
 1475TIP3    H1 4378   2.390   3.353   3.510 -2.1906 -1.7462 -0.5352
 1475TIP3    H2 4379   2.400   3.258   3.628  0.2139 -0.2611  0.4867
 1476TIP3   OH2 4380   3.982   3.363   0.093  0.0082 -0.2334  0.4705
 1476TIP3    H1 4381   3.900   3.314   0.094  0.5602 -1.1854 -0.3651
 1476TIP3    H2 4382   3.957   3.452   0.119 -1.2625 -0.5311  0.3033
 1477TIP3   OH2 4383   7.144   0.167   6.388  0.6211  0.7947 -0.4826
 1477TIP3    H1 4384   7.102   0.081   6.379  1.8553  0.0954  0.2070
 1477TIP3    H2 4385   7.094   0.224   6.330 -0.9404 -0.1218 -0.0944
 1478TIP3   OH2 4386   1.913   5.305   0.568 -0.0420 -0.3309 -0.3462
 1478TIP3    H1 4387   1.887   5.216   0.545 -0.2382  0.0435 -1.6123
 1478TIP3    H2 4388   1.938   5.345   0.485  1.6637  0.2801  0.4555
 1479TIP3   OH2 4389   5.051   4.887   2.538 -0.5205 -0.7221 -0.5765
 1479TIP3    H1 4390   5.013   4.922   2.619  2.8798  1.3820  0.1877
 1479TIP3    H2 4391   5.052   4.792   2.551  1.3210 -0.3396  2.5097
 1480TIP3   OH2 4392   4.044   4.688   0.099 -0.1331 -0.5501  0.1852
 1480TIP3    H1 4393   3.997   4.730   0.027  0.9583  0.5795  0.1247
 1480TIP3    H2 4394   4.103   4.756   0.132 -1.0163 -0.8663  2.5175
 1481TIP3   OH2 4395   2.015   4.602   0.339 -0.6761  0.2818 -0.2101
 1481TIP3    H1 4396   2.053   4.656   0.270 -1.6508  0.8186 -0.3427
 1481TIP3    H2 4397   2.011   4.514   0.301 -1.0443  0.5387 -0.7779
 1482TIP3   OH2 4398   1.831   1.481   5.646 -0.3994  0.8390 -0.4507
 1482TIP3    H1 4399   1.745   1.516   5.623 -0.6824  1.3595  1.3428
 1482TIP3    H2 4400   1.825   1.387   5.628 -0.4956  1.2543 -2.7636
 1483TIP3   OH2 4401   2.639   6.896   1.718 -0.0559 -0.5459  0.1815
 1483TIP3    H1 4402   2.676   6.813   1.747 -0.5668 -1.2656 -1.1578
 1483TIP3    H2 4403   2.656   6.897   1.623 -1.2478  0.2552 -0.0303
 1484TIP3   OH2 4404   2.754   4.830   1.114  0.8509 -0.1449  0.2416
 1484TIP3    H1 4405   2.683   4.861   1.170  0.5931 -1.4206  0.6451
 1484TIP3    H2 4406   2.727   4.853   1.025 -0.0659 -0.6043  0.3964
 1485TIP3   OH2 4407   0.171   4.857   5.785 -0.1973  0.5154  0.9463
 1485TIP3    H1 4408   0.108   4.917   5.746  0.4239  0.7601  0.3131
 1485TIP3    H2 4409   0.123   4.775   5.795 -0.4939  0.5799  0.0726
 1486TIP3   OH2 4410   4.315   6.115   1.931  0.0420 -0.5018  0.1527
 1486TIP3    H1 4411   4.248   6.072   1.985 -0.4822 -1.1161 -0.9702
 1486TIP3    H2 4412   4.277   6.118   1.844 -0.0556  2.5501  0.2476
 1487TIP3   OH2 4413   1.952   5.431   2.272  0.5890  0.0324 -0.3565
 1487TIP3    H1 4414   1.866   5.452   2.235  0.4761  0.7713  0.3232
 1487TIP3    H2 4415   1.934   5.371   2.344  0.7017 -0.3573 -0.6510
 1488TIP3   OH2 4416   5.731   6.609   0.771 -0.0042 -0.0789  0.2042
 1488TIP3    H1 4417   5.738   6.520   0.805 -1.0463 -0.3058 -0.1645
 1488TIP3    H2 4418   5.640   6.633   0.784  0.4080  1.1737  0.8557
 1489TIP3   OH2 4419   2.626   5.482   1.721 -0.3164 -0.3378 -0.1242
 1489TIP3    H1 4420   2.716   5.477   1.689  0.2338  2.0115  0.9413
 1489TIP3    H2 4421   2.616   5.406   1.779  1.2244 -0.2154  0.3205
 1490TIP3   OH2 4422   0.346   0.259   6.182 -0.1043  0.2683 -0.0512
 1490TIP3    H1 4423   0.274   0.230   6.238 -0.3158  0.2643 -0.3297
 1490TIP3    H2 4424   0.323   0.229   6.094 -0.5084  1.6031 -0.4118
 1491TIP3   OH2 4425   1.757   1.742   6.001  0.0589  0.5202 -0.2314
 1491TIP3    H1 4426   1.713   1.787   5.929 -0.8016 -0.4666 -0.3355
 1491TIP3    H2 4427   1.827   1.692   5.960  0.4012  0.9995 -0.2290
 1492TIP3   OH2 4428   7.569   7.149   5.844 -0.0347  0.0631  0.3415
 1492TIP3    H1 4429   7.562   7.145   5.749  1.1853  1.6942  0.1610
 1492TIP3    H2 4430   7.490   7.196   5.872  0.6102  1.3854 -0.0421
 1493TIP3   OH2 4431   1.749   5.056   3.037 -0.2193 -0.3023  0.9446
 1493TIP3    H1 4432   1.729   5.147   3.057 -0.1933 -0.5231  1.9631
 1493TIP3    H2 4433   1.843   5.056   3.020  0.2432 -0.5686  3.3792
 1494TIP3   OH2 4434   4.177   6.466   0.962 -0.5542  0.5612 -0.3527
 1494TIP3    H1 4435   4.219   6.551   0.963 -0.0460  0.3082  0.1713
 1494TIP3    H2 4436   4.107   6.472   1.027  0.0269  0.3170  0.3111
 1495TIP3   OH2 4437   6.363   7.330   5.048 -0.3987  0.4072  0.4978
 1495TIP3    H1 4438   6.273   7.362   5.054  0.2493  2.0780  1.6685
 1495TIP3    H2 4439   6.408   7.396   4.994 -0.2535 -1.2819 -1.4740
 1496TIP3   OH2 4440   2.128   5.831   0.689  0.1237 -0.2716  0.1782
 1496TIP3    H1 4441   2.183   5.756   0.669 -1.9936 -1.8946  0.2762
 1496TIP3    H2 4442   2.155   5.859   0.776  2.0415  0.1293 -0.5221
 1497TIP3   OH2 4443   3.144   4.188   0.071 -0.4296  0.8168 -0.3964
 1497TIP3    H1 4444   3.176   4.116   0.017  0.5408 -0.1310  1.4018
 1497TIP3    H2 4445   3.218   4.248   0.077  0.8402 -0.9795  3.0872
 1498TIP3   OH2 4446   0.209   4.863   3.323 -0.2487 -0.5163  0.2615
 1498TIP3    H1 4447   0.293   4.819   3.307 -0.8931 -1.1950 -1.3359
 1498TIP3    H2 4448   0.202   4.867   3.419  1.9551  0.2326  0.4251
 1499TIP3   OH2 4449   3.049   5.895   2.495 -0.2382  0.0321  0.6159
 1499TIP3    H1 4450   3.057   5.857   2.408  0.5722 -0.9362  1.1094
 1499TIP3    H2 4451   3.057   5.821   2.555 -0.6309  0.7141  1.5221
 1500TIP3   OH2 4452   0.755   3.051   1.267  0.1971 -0.0619  0.3852
 1500TIP3    H1 4453   0.758   3.113   1.340  1.7193  0.4367 -0.0874
 1500TIP3    H2 4454   0.840   3.059   1.226 -0.6724 -0.3068 -1.4954
 1501TIP3   OH2 4455   4.428   2.266   0.829 -0.2348  0.7422 -0.0859
 1501TIP3    H1 4456   4.376   2.233   0.756 -0.1920  2.2297 -0.8255
 1501TIP3    H2 4457   4.519   2.255   0.800 -0.1002 -1.9460  1.2458
 1502TIP3   OH2 4458   4.817   4.376   2.486 -0.1696 -0.0932 -0.3702
 1502TIP3    H1 4459   4.874   4.308   2.452 -0.6219  0.1490 -1.6344
 1502TIP3    H2 4460   4.779   4.337   2.565 -2.1581 -2.2159 -2.2784
 1503TIP3   OH2 4461   3.971   4.525   1.010 -0.3564 -0.3765  0.1784
 1503TIP3    H1 4462   4.042   4.480   0.965 -1.3406 -0.0085 -1.7917
 1503TIP3    H2 4463   3.891   4.497   0.965 -1.2145  1.4001  0.5245
 1504TIP3   OH2 4464   1.838   7.432   3.690 -0.3964  0.4270 -0.2959
 1504TIP3    H1 4465   1.930   7.457   3.697 -0.3555  0.0539  0.4790
 1504TIP3    H2 4466   1.803   7.441   3.779 -1.0115  0.1969 -0.5110
 1505TIP3   OH2 4467   1.585   5.040   1.509 -0.4154  0.4735 -0.1758
 1505TIP3    H1 4468   1.490   5.042   1.508 -0.4417 -0.4479 -0.6558
 1505TIP3    H2 4469   1.608   4.978   1.440  0.5400  0.9095 -0.2572
 1506TIP3   OH2 4470   2.653   3.169   0.100  0.1246 -0.1217  0.1508
 1506TIP3    H1 4471   2.663   3.245   0.158 -1.3277 -0.3030  0.6397
 1506TIP3    H2 4472   2.620   3.206   0.018  0.4088 -0.0980  0.0464
 1507TIP3   OH2 4473   7.112   0.926   6.201  0.5794 -0.4977  0.6729
 1507TIP3    H1 4474   7.082   0.852   6.149 -1.2829 -0.3431  1.5008
 1507TIP3    H2 4475   7.086   1.004   6.151 -0.4387 -0.3628  1.4032
 1508TIP3   OH2 4476   1.968   3.362   6.308 -0.4105  0.5968 -0.2695
 1508TIP3    H1 4477   1.966   3.457   6.303 -0.8911  0.5453 -1.1145
 1508TIP3    H2 4478   1.934   3.332   6.223 -1.2926 -0.3290  0.4029
 1509TIP3   OH2 4479   6.174   0.986   6.232  0.3901  0.5565  0.1092
 1509TIP3    H1 4480   6.211   1.019   6.314  0.1214 -0.3911  0.6240
 1509TIP3    H2 4481   6.086   1.022   6.230  0.3173  0.3948  0.3506
 1510TIP3   OH2 4482   0.605   1.114   5.453  0.5533  0.0303 -0.7023
 1510TIP3    H1 4483   0.580   1.173   5.382  0.4321 -0.8223 -1.3756
 1510TIP3    H2 4484   0.643   1.038   5.409 -0.7719 -1.1136  0.0844
 1511TIP3   OH2 4485   4.609   5.672   0.748 -0.0288 -0.1549  0.3684
 1511TIP3    H1 4486   4.515   5.689   0.752  0.0248  0.6007 -1.0752
 1511TIP3    H2 4487   4.649   5.746   0.792 -0.0559  0.3095 -0.3778
 1512TIP3   OH2 4488   7.260   0.529   5.506 -0.1346  0.1494 -0.4928
 1512TIP3    H1 4489   7.233   0.587   5.435  0.8815  0.4639 -0.6215
 1512TIP3    H2 4490   7.300   0.587   5.571 -1.9668  0.0153  0.8240
 1513TIP3   OH2 4491   3.771   3.004   0.428 -0.5712 -0.2222 -0.4764
 1513TIP3    H1 4492   3.826   3.021   0.504 -0.4300 -0.5961 -0.4954
 1513TIP3    H2 4493   3.762   2.909   0.425 -2.0196 -0.1121  0.0973
 1514TIP3   OH2 4494   3.312   6.182   1.544  0.0294 -0.1499 -0.7113
 1514TIP3    H1 4495   3.279   6.093   1.540  1.5351 -0.7544 -0.2419
 1514TIP3    H2 4496   3.369   6.191   1.468 -0.3472  0.5155 -0.9235
 1515TIP3   OH2 4497   2.542   5.720   1.895 -0.6593  0.2357  0.5201
 1515TIP3    H1 4498   2.589   5.676   1.824 -0.1761 -0.7914  1.4568
 1515TIP3    H2 4499   2.454   5.682   1.892 -0.7318  0.4275  0.2619
 1516TIP3   OH2 4500   3.193   6.580   4.923 -0.2101  0.3505 -0.3708
 1516TIP3    H1 4501   3.218   6.614   5.009  0.0903 -1.1665  0.1685
 1516TIP3    H2 4502   3.196   6.485   4.934 -1.3773  0.1526 -1.7260
 1517TIP3   OH2 4503   2.404   4.364   2.434  0.0818  0.0273 -0.0186
 1517TIP3    H1 4504   2.384   4.428   2.503 -1.5188 -0.5964  0.1026
 1517TIP3    H2 4505   2.326   4.362   2.380 -0.2696 -2.5589  0.5316
 1518TIP3   OH2 4506   3.113   5.101   1.084  0.0087  0.4085 -0.2874
 1518TIP3    H1 4507   3.041   5.144   1.036 -0.7877 -0.1058  0.4336
 1518TIP3    H2 4508   3.115   5.144   1.169 -0.6751 -0.8454  0.3730
 1519TIP3   OH2 4509   0.854   5.019   0.467 -1.4675  0.0260 -0.3009
 1519TIP3    H1 4510   0.920   5.087   0.458 -0.9350 -0.5937 -1.1686
 1519TIP3    H2 4511   0.851   5.001   0.561 -1.2618  0.8984 -0.1236
 1520TIP3   OH2 4512   1.130   4.079   2.706  0.1171  0.4758 -0.4290
 1520TIP3    H1 4513   1.061   4.135   2.741  0.2652 -0.3705  1.3149
 1520TIP3    H2 4514   1.203   4.090   2.768  0.6009 -0.6222 -0.7952
 1521TIP3   OH2 4515   4.660   5.704   0.030 -0.1992 -0.0690 -0.4448
 1521TIP3    H1 4516   4.753   5.698   0.052 -0.8055 -1.0341  1.9421
 1521TIP3    H2 4517   4.643   5.626  -0.022 -0.0401 -0.7381  0.5008
 1522TIP3   OH2 4518   6.555   0.635   0.505  0.2660 -0.1656  0.4395
 1522TIP3    H1 4519   6.648   0.658   0.505  0.1660  0.3041  1.6935
 1522TIP3    H2 4520   6.514   0.703   0.559 -0.7396 -0.6159  0.2511
 1523TIP3   OH2 4521   2.621   7.170   3.047  0.3951 -0.0660  0.1389
 1523TIP3    H1 4522   2.676   7.115   3.104  0.5399  0.1035  0.1632
 1523TIP3    H2 4523   2.637   7.259   3.077 -0.1041 -0.0381  0.3232
 1524TIP3   OH2 4524   3.105   5.780   2.217  0.4044 -0.4811  0.3923
 1524TIP3    H1 4525   3.092   5.693   2.178  1.5677 -0.9052  0.9024
 1524TIP3    H2 4526   3.175   5.819   2.166  0.8558 -0.4149  1.0528
 1525TIP3   OH2 4527   3.407   4.014   0.740  0.0428 -0.1828 -0.7362
 1525TIP3    H1 4528   3.484   4.028   0.796  0.2180  0.5368 -1.1510
 1525TIP3    H2 4529   3.377   3.926   0.763 -0.2717  0.3363  0.9622
 1526TIP3   OH2 4530   3.071   6.581   3.427 -0.0670  0.4656 -0.5907
 1526TIP3    H1 4531   3.048   6.497   3.467  0.5687  0.8479  0.6058
 1526TIP3    H2 4532   3.118   6.558   3.347  0.4902 -0.3150 -0.0347
 1527TIP3   OH2 4533   4.851   0.202   0.125  0.4933  0.5355  0.4888
 1527TIP3    H1 4534   4.859   0.288   0.167 -0.4065  0.9978 -0.2854
 1527TIP3    H2 4535   4.786   0.215   0.056  0.5673 -0.7011  0.1868
 1528TIP3   OH2 4536   4.465   7.235   2.068 -0.2859 -0.0454  0.3283
 1528TIP3    H1 4537   4.380   7.275   2.048  0.2171  0.9206  0.1206
 1528TIP3    H2 4538   4.442   7.152   2.110 -1.3380 -0.1130 -0.3447
 1529TIP3   OH2 4539   0.282   2.690   6.044 -0.0857  0.2052  0.1685
 1529TIP3    H1 4540   0.252   2.601   6.027 -0.7781  0.5769 -0.6084
 1529TIP3    H2 4541   0.204   2.738   6.070  0.3240  0.5381  0.7957
 1530TIP3   OH2 4542   1.976   6.912   0.406 -0.3012 -0.5537 -0.5236
 1530TIP3    H1 4543   2.010   6.823   0.413 -0.1200 -0.5066 -0.8083
 1530TIP3    H2 4544   1.899   6.913   0.463 -0.3696 -0.9236 -0.6116
 1531TIP3   OH2 4545   1.271   5.959   2.966 -0.0127 -0.0283  0.2945
 1531TIP3    H1 4546   1.260   6.050   2.937  1.1685 -0.1828 -0.6895
 1531TIP3    H2 4547   1.341   5.925   2.911 -1.0385 -1.8124  0.0452
 1532TIP3   OH2 4548   1.196   1.291   5.643 -0.0176  0.0353 -0.4937
 1532TIP3    H1 4549   1.287   1.300   5.613 -0.0878  1.7392 -0.2565
 1532TIP3    H2 4550   1.161   1.219   5.591  1.5317 -0.7714 -0.4433
 1533TIP3   OH2 4551   1.281   2.965   1.176 -0.2910  0.0633 -0.1213
 1533TIP3    H1 4552   1.365   2.963   1.222  0.3606 -1.7715 -1.3443
 1533TIP3    H2 4553   1.304   2.967   1.084 -1.6046  1.1105 -0.4363
 1534TIP3   OH2 4554   1.448   0.882   6.232 -0.2498  0.5940  0.1787
 1534TIP3    H1 4555   1.409   0.962   6.195 -1.2497  0.1312  0.2125
 1534TIP3    H2 4556   1.502   0.913   6.305 -2.5611  1.0347  1.7414
 1535TIP3   OH2 4557   0.990   1.272   6.448  0.2271 -0.3136 -0.4136
 1535TIP3    H1 4558   0.927   1.206   6.419  0.3525 -0.3084 -0.6954
 1535TIP3    H2 4559   1.069   1.254   6.397  0.8092 -0.9949  0.6777
 1536TIP3   OH2 4560   2.554   6.617   0.028 -0.1265  0.2772 -0.1798
 1536TIP3    H1 4561   2.518   6.632   0.116  0.3569 -0.0222  0.0720
 1536TIP3    H2 4562   2.582   6.703  -0.001  1.9433  0.0180  0.9507
 1537TIP3   OH2 4563   4.544   7.090   5.545  0.5004  0.1938  0.0575
 1537TIP3    H1 4564   4.638   7.099   5.527  0.6954 -1.8657 -0.0389
 1537TIP3    H2 4565   4.505   7.168   5.506  2.3324  1.7654  1.3088
 1538TIP3   OH2 4566   4.073   5.597   5.820  0.2844 -0.1371 -0.3235
 1538TIP3    H1 4567   4.077   5.507   5.788 -1.2954  0.1600 -1.4628
 1538TIP3    H2 4568   3.979   5.612   5.834  0.3734  1.8495 -1.7287
 1539TIP3   OH2 4569   4.433   7.334   6.440  0.0692 -0.2347 -0.3685
 1539TIP3    H1 4570   4.390   7.291   6.366  0.0980 -2.2867  0.7809
 1539TIP3    H2 4571   4.481   7.264   6.485 -0.7819  0.7509  2.1826
 1540TIP3   OH2 4572   3.398   4.067   0.433 -0.0547  0.0358  0.4916
 1540TIP3    H1 4573   3.309   4.089   0.406 -0.8028 -0.4057  2.5473
 1540TIP3    H2 4574   3.396   4.071   0.528  1.8015 -1.2591  0.6079
 1541TIP3   OH2 4575   6.152   7.451   5.982 -0.3802 -0.2662  0.9922
 1541TIP3    H1 4576   6.103   7.406   6.050  0.6471 -2.7892  0.1467
 1541TIP3    H2 4577   6.242   7.418   5.991  0.5650  2.1075  0.7118
 1542TIP3   OH2 4578   3.949   3.526   2.555  0.1893 -0.1592 -0.5148
 1542TIP3    H1 4579   3.943   3.457   2.489 -0.7795 -0.6311  0.0576
 1542TIP3    H2 4580   3.936   3.480   2.639  0.4146  0.5820 -0.0722
 1543TIP3   OH2 4581   5.677   3.661   1.381  0.5089  0.3356 -0.2291
 1543TIP3    H1 4582   5.678   3.655   1.476 -0.3654 -1.8097 -0.3451
 1543TIP3    H2 4583   5.652   3.574   1.351 -2.7660  1.8930 -2.3350
 1544TIP3   OH2 4584   3.339   5.669   1.204  0.4371 -0.5162 -0.1828
 1544TIP3    H1 4585   3.367   5.684   1.114  0.9217 -0.4769 -0.0261
 1544TIP3    H2 4586   3.407   5.709   1.258  0.0000 -0.2776  0.2016
 1545TIP3   OH2 4587   4.717   3.600   0.507 -0.0345 -0.2615 -0.0923
 1545TIP3    H1 4588   4.753   3.594   0.595  0.1708  0.2934 -0.1421
 1545TIP3    H2 4589   4.661   3.522   0.499  0.7376 -0.8518  0.1601
 1546TIP3   OH2 4590   2.548   5.642   5.448  0.0699 -0.0381  0.3297
 1546TIP3    H1 4591   2.625   5.626   5.502  1.4232 -0.3078 -1.6026
 1546TIP3    H2 4592   2.474   5.635   5.508  1.5013 -0.4939  2.0836
 1547TIP3   OH2 4593   6.454   0.157   2.254 -0.4227 -0.1613  0.4523
 1547TIP3    H1 4594   6.386   0.214   2.291 -0.3151  1.0750 -1.1559
 1547TIP3    H2 4595   6.409   0.108   2.185  0.4765  1.3623 -1.2716
 1548TIP3   OH2 4596   3.617   6.071   0.332 -0.1669 -0.0012 -0.6947
 1548TIP3    H1 4597   3.673   6.145   0.354  0.7225 -0.9842  0.4487
 1548TIP3    H2 4598   3.571   6.098   0.252  2.0518  0.7740 -1.7604
 1549TIP3   OH2 4599   3.339   1.261   5.712  0.5753  0.1973 -0.5082
 1549TIP3    H1 4600   3.329   1.181   5.764  0.0181 -0.1881 -1.1894
 1549TIP3    H2 4601   3.292   1.242   5.631 -0.5716  1.6553 -0.2059
 1550TIP3   OH2 4602   0.828   3.694   5.916  0.2761  0.1835 -0.3411
 1550TIP3    H1 4603   0.760   3.630   5.896  1.0114 -0.8078  0.2515
 1550TIP3    H2 4604   0.864   3.665   5.999  1.7373  0.4136 -0.8771
 1551TIP3   OH2 4605   3.114   4.961   1.744  0.4128  0.3152  0.9364
 1551TIP3    H1 4606   3.028   5.002   1.737  0.5143  0.6323  1.4841
 1551TIP3    H2 4607   3.100   4.883   1.798  0.7478  1.2429  2.4190
 1552TIP3   OH2 4608   3.127   6.445   1.331 -0.6675  0.3048 -0.0513
 1552TIP3    H1 4609   3.153   6.427   1.241  0.5887  0.6658  0.2263
 1552TIP3    H2 4610   3.162   6.533   1.349  2.2611 -1.1845  1.9507
 1553TIP3   OH2 4611   5.176   0.021   1.582  0.6795 -0.4045  0.3365
 1553TIP3    H1 4612   5.258   0.040   1.626  0.6424 -0.4589  0.4287
 1553TIP3    H2 4613   5.141  -0.055   1.629  1.1130 -1.0688 -0.4080
 1554TIP3   OH2 4614   2.730   4.921   0.857 -0.0566  0.5576 -0.0497
 1554TIP3    H1 4615   2.725   4.838   0.810  0.0550  0.5183  0.0090
 1554TIP3    H2 4616   2.641   4.956   0.852 -0.1424  0.3565  0.0667
 1555TIP3   OH2 4617   1.475   2.624   5.051 -0.8420 -0.3468 -0.6788
 1555TIP3    H1 4618   1.389   2.666   5.058 -0.3463  0.3960  1.2218
 1555TIP3    H2 4619   1.529   2.669   5.116  0.7563 -1.3894 -1.2516
 1556TIP3   OH2 4620   4.679   7.259   6.009 -0.1544  0.7222 -0.0027
 1556TIP3    H1 4621   4.648   7.207   6.084 -0.4272  1.5273  0.4422
 1556TIP3    H2 4622   4.716   7.338   6.048  1.7257  0.1478 -0.5850
 1557TIP3   OH2 4623   6.387   7.368   0.685 -0.0411  0.1885  0.0715
 1557TIP3    H1 4624   6.295   7.395   0.687 -0.1473 -0.1363 -0.4047
 1557TIP3    H2 4625   6.391   7.302   0.616  0.8583  1.3139 -0.9667
 1558TIP3   OH2 4626   5.733   5.808   0.304 -0.7383  0.1037  1.1447
 1558TIP3    H1 4627   5.757   5.797   0.212  0.3618  0.5427  1.3757
 1558TIP3    H2 4628   5.689   5.893   0.308 -0.3811  0.2900  1.1035
 1559TIP3   OH2 4629   2.123   5.973   2.139  0.0116  0.4119  0.6012
 1559TIP3    H1 4630   2.061   6.028   2.091 -0.0159 -0.7297 -0.7118
 1559TIP3    H2 4631   2.199   6.029   2.151 -0.7275  1.3499  0.9412
 1560TIP3   OH2 4632   4.804   6.155   2.252 -0.0680 -0.1085  0.2023
 1560TIP3    H1 4633   4.771   6.110   2.174 -1.4224 -0.6156  1.0629
 1560TIP3    H2 4634   4.873   6.098   2.285 -0.4999 -0.6260  0.2158
 1561TIP3   OH2 4635   5.907   3.747   0.078 -0.2416 -0.1356 -0.4663
 1561TIP3    H1 4636   5.811   3.753   0.082 -0.2672 -0.8269 -0.0523
 1561TIP3    H2 4637   5.925   3.711  -0.009 -0.3949 -0.8122 -0.2176
 1562TIP3   OH2 4638   6.226   4.646   0.959 -0.1979 -0.0097  0.0139
 1562TIP3    H1 4639   6.203   4.675   1.047  0.3956  0.6986 -0.0622
 1562TIP3    H2 4640   6.153   4.677   0.904 -1.4990 -2.0810  0.5307
 1563TIP3   OH2 4641   1.287   1.035   4.517  0.3389  0.1289 -0.1201
 1563TIP3    H1 4642   1.279   1.005   4.427 -1.6246 -1.7367  0.6428
 1563TIP3    H2 4643   1.252   1.124   4.516  0.7557  0.2888 -1.2814
 1564TIP3   OH2 4644   4.483   6.010   0.461  0.0803 -0.1558  0.1730
 1564TIP3    H1 4645   4.392   5.998   0.488  0.5633  0.9541  2.4542
 1564TIP3    H2 4646   4.478   6.042   0.371 -1.7214 -1.3087 -0.1635
 1565TIP3   OH2 4647   5.167   6.485   1.422 -0.1052 -0.4422 -0.1583
 1565TIP3    H1 4648   5.209   6.449   1.499 -1.2488 -1.2504  0.0990
 1565TIP3    H2 4649   5.112   6.414   1.388  0.6114 -0.2029 -1.8919
 1566TIP3   OH2 4650   1.079   2.312   5.818 -0.2177  0.4829  0.1376
 1566TIP3    H1 4651   1.040   2.398   5.833 -1.2171  0.7773 -3.4489
 1566TIP3    H2 4652   1.007   2.259   5.782  0.7385 -1.3984  0.9055
 1567TIP3   OH2 4653   6.876   6.773   0.423 -0.1787 -0.3429 -0.1605
 1567TIP3    H1 4654   6.968   6.770   0.449 -0.4552 -0.0691  0.8367
 1567TIP3    H2 4655   6.827   6.765   0.504 -1.0383  1.0879 -0.5348
 1568TIP3   OH2 4656   2.824   6.821   0.649 -0.3590  0.0928  0.0287
 1568TIP3    H1 4657   2.913   6.828   0.614 -0.8208  1.7133 -0.8967
 1568TIP3    H2 4658   2.769   6.862   0.583 -1.4745  1.5214  1.7661
 1569TIP3   OH2 4659   2.403   5.553   1.597  0.1400  0.1070 -0.0315
 1569TIP3    H1 4660   2.493   5.536   1.625  0.4718  1.2639 -0.3310
 1569TIP3    H2 4661   2.351   5.546   1.676  0.7978  1.4730  0.5403
 1570TIP3   OH2 4662   5.093   5.211   0.263 -0.6264 -0.1179  0.4207
 1570TIP3    H1 4663   5.030   5.280   0.284 -0.9902  0.0121 -1.0455
 1570TIP3    H2 4664   5.156   5.253   0.204 -1.5583 -1.3323 -1.5117
 1571TIP3   OH2 4665   7.367   6.390   1.650  0.0885  0.2074  0.2133
 1571TIP3    H1 4666   7.292   6.356   1.602  1.5785 -0.6602 -1.5697
 1571TIP3    H2 4667   7.330   6.432   1.727 -2.2732  0.5581 -1.0891
 1572TIP3   OH2 4668   1.411   0.744   4.553  0.2281 -0.3024 -0.2993
 1572TIP3    H1 4669   1.450   0.831   4.538 -0.2764  0.0479  0.3959
 1572TIP3    H2 4670   1.459   0.710   4.629  0.3911 -0.6066 -0.5428
 1573TIP3   OH2 4671   4.031   6.685   1.369 -0.0173  0.2019 -0.2069
 1573TIP3    H1 4672   3.949   6.636   1.363 -0.4651  1.1625 -2.0655
 1573TIP3    H2 4673   4.051   6.711   1.280  1.2501  1.7313  0.4948
 1574TIP3   OH2 4674   1.931   0.685   6.379  0.6354  0.3853  0.3797
 1574TIP3    H1 4675   1.923   0.647   6.467  2.4152  1.1211  0.8868
 1574TIP3    H2 4676   1.852   0.739   6.369 -0.7139 -1.5034  0.5969
 1575TIP3   OH2 4677   4.409   5.935   0.779  0.0341 -0.5220  0.1873
 1575TIP3    H1 4678   4.371   5.852   0.751 -0.0506 -0.0696 -1.0888
 1575TIP3    H2 4679   4.334   5.996   0.781  0.4401  0.0387 -1.0124
 1576TIP3   OH2 4680   0.916   6.664   5.958 -0.5954  0.0950 -0.2889
 1576TIP3    H1 4681   0.894   6.574   5.937 -3.3168  0.9229 -1.1037
 1576TIP3    H2 4682   1.001   6.678   5.916 -1.2339 -1.3870 -2.1366
 1577TIP3   OH2 4683   0.650   5.622   0.650 -0.3207  0.0097 -0.5219
 1577TIP3    H1 4684   0.746   5.625   0.655 -0.3136 -0.7804  0.0490
 1577TIP3    H2 4685   0.623   5.589   0.735 -1.1199  0.4286 -0.6086
 1578TIP3   OH2 4686   3.628   0.226   1.553 -0.1016  0.3077 -0.3759
 1578TIP3    H1 4687   3.653   0.139   1.522  1.4705  0.9601 -0.9793
 1578TIP3    H2 4688   3.602   0.213   1.644  2.1544 -0.4714  0.1873
 1579TIP3   OH2 4689   3.982   0.785   0.683 -0.2794  0.3040 -0.3096
 1579TIP3    H1 4690   3.954   0.693   0.677  1.6132 -0.2104 -1.7228
 1579TIP3    H2 4691   3.987   0.814   0.592  0.5384  1.3716  0.0668
 1580TIP3   OH2 4692   0.041   7.323   2.353  0.0513  0.2806  0.3161
 1580TIP3    H1 4693   0.017   7.254   2.414 -1.5263  2.5051  2.2832
 1580TIP3    H2 4694   0.132   7.344   2.374  0.6501 -1.3830 -0.5235
 1581TIP3   OH2 4695   2.105   7.304   3.159 -0.2317 -0.0663  0.1383
 1581TIP3    H1 4696   2.166   7.352   3.217  1.1570 -1.2900 -0.2819
 1581TIP3    H2 4697   2.120   7.343   3.073 -0.1682 -0.2486  0.0678
 1582TIP3   OH2 4698   4.628   0.903   0.960 -0.0773  0.2874 -0.5929
 1582TIP3    H1 4699   4.662   0.824   0.917  1.7090  1.0126 -0.5801
 1582TIP3    H2 4700   4.627   0.881   1.053  0.3657  0.2525 -0.5944
 1583TIP3   OH2 4701   2.088  -0.005   2.708  0.1291  0.2798  0.2149
 1583TIP3    H1 4702   1.996   0.024   2.705 -0.2944 -1.1642 -2.5665
 1583TIP3    H2 4703   2.137   0.074   2.728 -1.7085  1.1087  1.6351
 1584TIP3   OH2 4704   1.406   5.972   0.900 -0.5659 -0.0643  0.0931
 1584TIP3    H1 4705   1.423   6.047   0.843  0.6025  0.0799  0.6191
 1584TIP3    H2 4706   1.490   5.928   0.907 -1.3977 -1.8742 -0.8359
 1585TIP3   OH2 4707   4.367   0.375   3.673 -0.1526  0.6822  0.2527
 1585TIP3    H1 4708   4.340   0.409   3.758  2.5130  0.5952  1.1506
 1585TIP3    H2 4709   4.285   0.346   3.633 -1.6615  2.2387  2.0821
 1586TIP3   OH2 4710   0.630   4.603   6.272  0.0359 -0.4242 -0.0838
 1586TIP3    H1 4711   0.693   4.534   6.254 -0.8198 -0.8423 -1.5502
 1586TIP3    H2 4712   0.546   4.557   6.283 -0.0385  0.1315  1.7373
 1587TIP3   OH2 4713   4.380   0.351   1.631 -0.1622  0.2841 -0.0606
 1587TIP3    H1 4714   4.366   0.256   1.623 -1.0669  0.4412 -0.4021
 1587TIP3    H2 4715   4.348   0.373   1.719 -0.8357  0.4190 -0.3325
 1588TIP3   OH2 4716   5.179   0.135   1.883  0.0637  0.2481  1.2726
 1588TIP3    H1 4717   5.165   0.041   1.879 -1.5335  0.5550 -1.2543
 1588TIP3    H2 4718   5.105   0.169   1.932 -0.5941  0.4035  0.1906
 1589TIP3   OH2 4719   2.767   5.435   0.794  1.0384  0.3025 -0.1391
 1589TIP3    H1 4720   2.694   5.375   0.783  1.2826 -0.1142  0.4703
 1589TIP3    H2 4721   2.762   5.494   0.719 -0.2830  0.6532  0.2190
 1590TIP3   OH2 4722   1.069   6.870   3.020  0.0077 -0.1252 -0.0587
 1590TIP3    H1 4723   1.008   6.944   3.016  0.1473  0.0867  1.2825
 1590TIP3    H2 4724   1.155   6.911   3.034  0.1232 -0.5285  0.4045
 1591TIP3   OH2 4725   6.949   1.502   5.786  0.0064 -0.1087  0.1208
 1591TIP3    H1 4726   6.857   1.507   5.759  0.0362 -2.3970 -0.4923
 1591TIP3    H2 4727   6.998   1.527   5.708 -0.0246 -2.4755 -0.6910
 1592TIP3   OH2 4728   3.572   5.537   0.870 -0.1421  0.0536  0.0848
 1592TIP3    H1 4729   3.538   5.627   0.877 -0.5569 -0.0520 -0.4836
 1592TIP3    H2 4730   3.494   5.482   0.870  0.1123 -0.3100  0.4193
 1593TIP3   OH2 4731   3.147   6.575   0.548  0.3240 -0.2576 -0.4740
 1593TIP3    H1 4732   3.187   6.585   0.635  0.0340  0.6561 -0.4399
 1593TIP3    H2 4733   3.061   6.536   0.565  0.5302 -0.6902 -0.4102
 1594TIP3   OH2 4734   0.210   2.125   5.106 -0.0845 -0.2060  0.2406
 1594TIP3    H1 4735   0.195   2.209   5.151  0.6351 -0.4784  1.0217
 1594TIP3    H2 4736   0.141   2.120   5.041 -1.4762 -0.0204  1.6540
 1595TIP3   OH2 4737   3.510   6.310   0.906 -0.1069 -0.3766 -0.0378
 1595TIP3    H1 4738   3.528   6.229   0.955 -0.1897 -0.9500 -0.9367
 1595TIP3    H2 4739   3.445   6.356   0.958  0.1568 -0.7519  0.6284
 1596TIP3   OH2 4740   3.469   0.362   0.024 -0.2817 -0.2703 -0.4676
 1596TIP3    H1 4741   3.501   0.384   0.111  1.4550 -2.0615 -0.6181
 1596TIP3    H2 4742   3.430   0.443  -0.009 -1.4851  0.2715  2.1904
 1597TIP3   OH2 4743   2.784   2.356   6.123 -0.1472  0.4214  0.3275
 1597TIP3    H1 4744   2.718   2.342   6.056  0.6446 -0.6704 -0.2377
 1597TIP3    H2 4745   2.778   2.450   6.144  0.0674  0.9240 -1.7468
 1598TIP3   OH2 4746   7.504   4.552   6.427  0.1862  0.6485 -0.2950
 1598TIP3    H1 4747   7.552   4.575   6.348  0.5457  0.4621 -0.1317
 1598TIP3    H2 4748   7.414   4.577   6.409 -0.2969 -2.0747 -1.8779
 1599TIP3   OH2 4749   2.782   6.929   0.380  0.7222  0.2899  0.3895
 1599TIP3    H1 4750   2.804   6.845   0.340 -1.4510 -0.5510  0.9274
 1599TIP3    H2 4751   2.701   6.956   0.336  1.6408  2.3449 -0.1108
 1600TIP3   OH2 4752   2.365   6.886   2.973 -0.1730 -0.7515  0.0733
 1600TIP3    H1 4753   2.407   6.956   2.922 -0.1918  0.2174  1.3494
 1600TIP3    H2 4754   2.321   6.832   2.908  0.7357 -0.1795 -1.0378
 1601TIP3   OH2 4755   2.628   7.351   1.322  0.2406  0.2364  0.0342
 1601TIP3    H1 4756   2.699   7.296   1.356  0.8350  0.9485 -0.0356
 1601TIP3    H2 4757   2.580   7.377   1.401  0.4305  0.2648  0.1426
 1602TIP3   OH2 4758   2.606   7.087   2.019  0.6684 -0.0232 -0.1799
 1602TIP3    H1 4759   2.638   7.071   1.930 -0.0804  0.7201 -0.5890
 1602TIP3    H2 4760   2.618   7.003   2.064 -1.4609 -1.2015 -1.7466
 1603TIP3   OH2 4761   2.502   6.925   0.308  0.0320  0.0661 -0.1933
 1603TIP3    H1 4762   2.452   6.933   0.389  0.1978  0.5236 -0.1347
 1603TIP3    H2 4763   2.482   6.837   0.276 -0.5591  0.1348 -0.0059
 1604TIP3   OH2 4764   1.717   7.280   1.084 -0.5011  0.2918  0.0871
 1604TIP3    H1 4765   1.704   7.338   1.009 -1.1522 -0.1349 -0.1370
 1604TIP3    H2 4766   1.647   7.214   1.076 -0.0843 -0.2235  0.6190
 1605TIP3   OH2 4767   1.839   6.530   0.895  0.4862  0.3484  0.3433
 1605TIP3    H1 4768   1.909   6.471   0.865 -0.7671 -0.3905 -1.2205
 1605TIP3    H2 4769   1.800   6.484   0.970  1.2042  0.4164  0.7595
 1606TIP3   OH2 4770   6.012   0.638   1.197  0.0185 -0.5728 -0.3000
 1606TIP3    H1 4771   6.036   0.545   1.204  0.6958 -0.3233  0.9055
 1606TIP3    H2 4772   5.959   0.643   1.117 -0.6850 -2.1366  0.0329
 1607TIP3   OH2 4773   2.807   6.523   1.985 -0.4932 -0.5370 -0.3547
 1607TIP3    H1 4774   2.901   6.533   1.974 -0.2807 -0.8363  1.0552
 1607TIP3    H2 4775   2.794   6.526   2.080 -1.7291 -1.9695 -0.4655
 1608TIP3   OH2 4776   2.969   7.111   1.164 -0.3218 -0.2353 -0.8159
 1608TIP3    H1 4777   2.885   7.153   1.148 -1.8863 -1.8072  2.7379
 1608TIP3    H2 4778   3.014   7.170   1.225  0.5415 -0.1500 -1.5207
 1609TIP3   OH2 4779   6.005   1.623   2.850  0.4235 -0.1441 -0.2267
 1609TIP3    H1 4780   5.930   1.590   2.801 -1.0212  0.8142  1.2655
 1609TIP3    H2 4781   5.967   1.657   2.932  1.9086  4.0386 -1.1456
 1610TIP3   OH2 4782   2.085   5.418   0.764  0.4017  0.3886  0.9178
 1610TIP3    H1 4783   2.041   5.402   0.848 -0.1839  0.2908  0.5892
 1610TIP3    H2 4784   2.043   5.358   0.703  0.6106  0.6905  0.4795
 1611TIP3   OH2 4785   6.678   3.004   4.791  0.3769 -0.9507  0.1938
 1611TIP3    H1 4786   6.680   2.917   4.830  1.1700 -1.4683 -0.9651
 1611TIP3    H2 4787   6.769   3.033   4.792  0.3706 -0.8439 -0.9420
 1612TIP3   OH2 4788   6.596   2.042   6.351 -0.1113  0.2912  0.6738
 1612TIP3    H1 4789   6.684   2.035   6.388 -0.8720 -0.7882  2.3416
 1612TIP3    H2 4790   6.556   1.956   6.365 -1.4525  0.7766 -0.0018
 1613TIP3   OH2 4791   3.175   5.944   1.833  0.2446  0.3686  0.0936
 1613TIP3    H1 4792   3.155   5.907   1.747 -0.1012  1.2386 -0.2108
 1613TIP3    H2 4793   3.102   6.005   1.850  0.3558  0.2642  0.9594
 1614TIP3   OH2 4794   4.757   0.231   3.399 -0.2435 -0.4607 -0.3774
 1614TIP3    H1 4795   4.725   0.144   3.377  0.3900 -0.9345  0.5586
 1614TIP3    H2 4796   4.725   0.287   3.328 -2.5994 -1.0451  0.1763
 1615TIP3   OH2 4797   3.726   4.450   0.350  0.1283  0.0310  0.2492
 1615TIP3    H1 4798   3.764   4.537   0.349  0.3838 -0.0773  0.3857
 1615TIP3    H2 4799   3.785   4.398   0.295 -0.9126  0.3149 -1.1678
 1616TIP3   OH2 4800   1.402   5.258   0.817  0.7896 -0.3887  0.0738
 1616TIP3    H1 4801   1.482   5.296   0.781  0.3353 -1.5925 -2.3204
 1616TIP3    H2 4802   1.339   5.263   0.745 -0.5328 -1.8018  1.1038
 1617TIP3   OH2 4803   2.482   6.645   0.299  0.2389  0.6265  0.4450
 1617TIP3    H1 4804   2.412   6.589   0.331  0.4876 -0.2498 -0.4936
 1617TIP3    H2 4805   2.557   6.586   0.288  0.3751  1.0294 -0.9778
 1618TIP3   OH2 4806   5.175   0.229   1.255  0.4246 -0.3757  0.0248
 1618TIP3    H1 4807   5.163   0.301   1.317 -1.6177  0.3917 -1.2233
 1618TIP3    H2 4808   5.226   0.164   1.304 -0.0849  0.7287  2.0909
 1619TIP3   OH2 4809   5.250   6.324   2.455 -0.3046 -0.5310  0.1647
 1619TIP3    H1 4810   5.285   6.275   2.380  2.1190  0.3989  0.6530
 1619TIP3    H2 4811   5.235   6.412   2.422 -0.9605 -0.5716  0.3276
 1620TIP3   OH2 4812   3.195   7.013   4.454 -0.7727 -0.2616 -0.3360
 1620TIP3    H1 4813   3.219   6.921   4.442  2.2183  0.4002  0.2111
 1620TIP3    H2 4814   3.156   7.016   4.541 -2.0211 -1.2048 -0.8422
 1621TIP3   OH2 4815   2.320   5.534   1.859 -0.5971  1.0855  0.3608
 1621TIP3    H1 4816   2.346   5.470   1.925  0.6420 -0.8016 -1.8314
 1621TIP3    H2 4817   2.224   5.531   1.858 -0.5700 -0.2611  0.7815
 1622TIP3   OH2 4818   0.146   1.682   6.432  0.7758  0.1991  0.5954
 1622TIP3    H1 4819   0.067   1.736   6.435  0.3452 -0.2701 -1.4447
 1622TIP3    H2 4820   0.114   1.595   6.410  1.8140 -0.1091  0.2839
 1623TIP3   OH2 4821   2.718   5.589   1.092  0.1112  0.0487 -0.1705
 1623TIP3    H1 4822   2.761   5.662   1.137 -0.2981 -0.2034  0.6394
 1623TIP3    H2 4823   2.645   5.566   1.149  0.6283 -1.4316 -0.0859
 1624TIP3   OH2 4824   5.140   6.243   0.841 -0.8842 -0.5843  0.3712
 1624TIP3    H1 4825   5.159   6.158   0.879  0.3444 -0.5284 -0.0928
 1624TIP3    H2 4826   5.068   6.227   0.780 -0.8819 -1.2196  0.5344
 1625TIP3   OH2 4827   6.617   0.363   2.401 -0.3912 -0.5501 -0.0872
 1625TIP3    H1 4828   6.624   0.457   2.384  0.8613 -0.3612  1.3427
 1625TIP3    H2 4829   6.538   0.353   2.454  0.3426 -0.0989  1.1023
 1626TIP3   OH2 4830   1.415   2.059   1.225  0.0441  0.6369  0.0067
 1626TIP3    H1 4831   1.384   2.135   1.176  0.0492  1.6045  1.4779
 1626TIP3    H2 4832   1.409   2.086   1.316  1.1369 -0.7273  0.4889
 1627TIP3   OH2 4833   6.746   6.161   3.873 -0.1066 -0.1457  0.4434
 1627TIP3    H1 4834   6.763   6.137   3.964 -1.0730  0.9355  0.9229
 1627TIP3    H2 4835   6.765   6.255   3.868 -0.0728 -0.1942 -0.4604
 1628TIP3   OH2 4836   6.728   1.647   3.522  0.4417 -0.2846 -0.3476
 1628TIP3    H1 4837   6.724   1.582   3.452 -0.5217  0.7082 -1.2392
 1628TIP3    H2 4838   6.760   1.599   3.598  1.2138 -1.4444 -1.3907
 1629TIP3   OH2 4839   1.653   1.214   2.710  0.5961 -0.1882 -0.3193
 1629TIP3    H1 4840   1.570   1.243   2.748  1.1493  0.5749  0.3172
 1629TIP3    H2 4841   1.680   1.285   2.652  0.5065 -0.6998 -1.0054
 1630TIP3   OH2 4842   5.885   4.533   2.703  0.2281 -0.1333 -0.5423
 1630TIP3    H1 4843   5.958   4.521   2.763  0.5948 -0.6878 -1.0977
 1630TIP3    H2 4844   5.822   4.585   2.753  0.7479 -0.1469  0.1405
 1631TIP3   OH2 4845   4.982   7.392   3.140  0.5443 -0.4796  0.4065
 1631TIP3    H1 4846   5.045   7.380   3.069  0.7348 -1.0846  0.6745
 1631TIP3    H2 4847   5.018   7.340   3.212  0.9391  1.0174  1.3145
 1632TIP3   OH2 4848   1.581   0.979   4.362 -0.3100  0.8252 -0.4048
 1632TIP3    H1 4849   1.556   0.956   4.272 -0.3321  0.7976 -0.3915
 1632TIP3    H2 4850   1.568   1.074   4.366  1.3161  1.0782 -0.9331
 1633TIP3   OH2 4851   2.136   1.680   4.606  0.0737  0.4584  0.2801
 1633TIP3    H1 4852   2.119   1.760   4.555  2.4136  0.1626 -1.0353
 1633TIP3    H2 4853   2.124   1.707   4.697 -3.7845  1.0969 -0.3352
 1634TIP3   OH2 4854   5.490   7.196   4.637  0.0068  0.4512  0.1719
 1634TIP3    H1 4855   5.546   7.271   4.657  0.1893  0.1622  0.7806
 1634TIP3    H2 4856   5.403   7.223   4.666 -0.2128  0.9827 -0.9734
 1635TIP3   OH2 4857   2.037   0.433   3.725 -0.1040 -0.1464  0.1760
 1635TIP3    H1 4858   1.998   0.446   3.639 -1.1125 -1.1721  0.4615
 1635TIP3    H2 4859   2.083   0.349   3.717  1.2187  0.5709  0.1392
 1636TIP3   OH2 4860   2.931   2.694   4.885 -0.0779  0.4170  0.1920
 1636TIP3    H1 4861   2.863   2.759   4.903 -0.3903 -0.2539  1.5402
 1636TIP3    H2 4862   2.930   2.637   4.962  2.5466  0.8455  0.5650
 1637TIP3   OH2 4863   6.126   0.582   0.526  0.2214 -0.3055  0.1710
 1637TIP3    H1 4864   6.158   0.495   0.501 -1.3502 -0.8452 -0.0492
 1637TIP3    H2 4865   6.035   0.583   0.495  0.5683  1.8369 -0.8105
 1638TIP3   OH2 4866   5.656   6.731   3.295 -0.4332  0.3243  0.7934
 1638TIP3    H1 4867   5.689   6.669   3.361 -0.1536  0.1361  0.4812
 1638TIP3    H2 4868   5.627   6.675   3.223  0.5520  0.5928  0.1851
 1639TIP3   OH2 4869   1.980   0.005   4.529  0.2701 -0.3161 -0.2938
 1639TIP3    H1 4870   1.933   0.078   4.489  1.2127  0.5346  0.1571
 1639TIP3    H2 4871   1.920  -0.027   4.597  0.8290  1.5483  1.1070
 1640TIP3   OH2 4872   7.056   0.572   2.214 -0.1756  0.7108  0.0646
 1640TIP3    H1 4873   7.031   0.480   2.211 -0.7929  0.8538  0.8221
 1640TIP3    H2 4874   7.071   0.596   2.123 -1.7823  0.3512 -0.3014
 1641TIP3   OH2 4875   3.287   1.954   5.410  0.4653  1.0056  0.5099
 1641TIP3    H1 4876   3.348   1.967   5.483  1.4835 -0.1296 -0.1198
 1641TIP3    H2 4877   3.236   1.877   5.435 -2.1799  3.1276  1.9791
 1642TIP3   OH2 4878   6.999   0.903   3.696 -0.3009  0.3668  0.2188
 1642TIP3    H1 4879   6.905   0.912   3.712 -0.3270  0.4294  0.0262
 1642TIP3    H2 4880   7.009   0.917   3.602  0.0420  1.5320  0.4275
 1643TIP3   OH2 4881   0.624   1.716   3.460 -0.1595  0.0635 -0.0579
 1643TIP3    H1 4882   0.651   1.649   3.397 -1.9165 -1.7177  1.0117
 1643TIP3    H2 4883   0.544   1.754   3.422  0.3682  1.0055 -0.2576
 1644TIP3   OH2 4884   2.151   1.486   3.662 -0.4886  0.4423  0.2595
 1644TIP3    H1 4885   2.165   1.564   3.608 -0.7298  0.7647  0.6565
 1644TIP3    H2 4886   2.100   1.427   3.607  0.0848  0.3788 -0.2063
 1645TIP3   OH2 4887   6.965   2.276   5.529 -0.5696 -0.0558  0.2282
 1645TIP3    H1 4888   7.010   2.360   5.525 -0.0042 -0.3496  0.2576
 1645TIP3    H2 4889   7.004   2.231   5.604  0.8186 -1.2844 -1.1789
 1646TIP3   OH2 4890   5.101   7.269   4.230  0.2584  0.3365 -0.4953
 1646TIP3    H1 4891   5.184   7.273   4.278  0.5426  0.2955 -0.9814
 1646TIP3    H2 4892   5.068   7.358   4.230  0.0767  0.2740  0.0900
 1647TIP3   OH2 4893   2.594   1.273   5.669  0.5756  0.0740 -0.3465
 1647TIP3    H1 4894   2.626   1.352   5.713  1.6192  0.1976 -1.3013
 1647TIP3    H2 4895   2.509   1.298   5.632  0.1765  0.2768  0.6840
 1648TIP3   OH2 4896   2.898   0.195   1.968  0.1922  0.1352 -0.3678
 1648TIP3    H1 4897   2.824   0.255   1.975  0.5195  0.3659  1.3336
 1648TIP3    H2 4898   2.967   0.246   1.926  0.7641  1.2657  1.8680
 1649TIP3   OH2 4899   6.407   6.102   4.924 -1.3525  0.2415 -0.2451
 1649TIP3    H1 4900   6.462   6.179   4.906 -0.6790 -0.4407 -1.1446
 1649TIP3    H2 4901   6.344   6.133   4.989 -1.0945  1.5668 -0.5965
 1650TIP3   OH2 4902   5.463   7.023   2.939 -0.0301 -0.0178 -0.0060
 1650TIP3    H1 4903   5.423   7.057   2.859  0.1186 -0.2978 -0.2012
 1650TIP3    H2 4904   5.404   7.050   3.009 -0.3398 -0.0671 -0.2460
 1651TIP3   OH2 4905   3.124   0.248   2.455  0.2796 -0.4664  0.1123
 1651TIP3    H1 4906   3.153   0.308   2.524  1.0329 -1.5503  0.7689
 1651TIP3    H2 4907   3.171   0.276   2.377  1.6215 -0.9960  0.7203
 1652TIP3   OH2 4908   2.594   0.918   4.599  0.5021  0.1096 -0.3922
 1652TIP3    H1 4909   2.546   1.001   4.602  0.8989  0.3116  1.9220
 1652TIP3    H2 4910   2.651   0.922   4.676  0.3075 -2.4308 -0.0899
 1653TIP3   OH2 4911   1.397   0.039   3.590  0.7723 -0.1719 -0.6503
 1653TIP3    H1 4912   1.410   0.133   3.594  0.7301 -0.1942  0.2847
 1653TIP3    H2 4913   1.308   0.025   3.623  1.3069 -0.6446  0.6423
 1654TIP3   OH2 4914   0.358   1.485   5.934  0.4581 -0.7350  0.3692
 1654TIP3    H1 4915   0.341   1.395   5.906  0.5712 -0.6319 -0.0361
 1654TIP3    H2 4916   0.394   1.476   6.022 -0.8900 -0.9996  0.9060
 1655TIP3   OH2 4917   2.647   0.712   6.147  0.6063  0.3438 -0.2561
 1655TIP3    H1 4918   2.558   0.700   6.115  1.3084  0.5622 -2.4180
 1655TIP3    H2 4919   2.637   0.758   6.230 -1.2496  1.3559 -1.0112
 1656TIP3   OH2 4920   2.397   2.176   3.794 -0.0155  0.5551 -0.7427
 1656TIP3    H1 4921   2.317   2.127   3.817 -0.2840  1.9486  1.4806
 1656TIP3    H2 4922   2.368   2.267   3.785  1.1489  0.9158 -0.9644
 1657TIP3   OH2 4923   2.173   2.245   5.472  0.0389 -0.1847  0.0574
 1657TIP3    H1 4924   2.191   2.260   5.380 -0.2487  1.3256  0.2370
 1657TIP3    H2 4925   2.088   2.200   5.473 -0.9632  1.6411 -0.3362
 1658TIP3   OH2 4926   3.392   2.149   5.617 -0.5357 -0.3248  0.7055
 1658TIP3    H1 4927   3.397   2.236   5.655  0.2110 -0.2397  0.4226
 1658TIP3    H2 4928   3.483   2.127   5.595 -0.7297 -1.1359  0.7026
 1659TIP3   OH2 4929   1.583   1.047   2.987  0.4551  0.7734 -0.2495
 1659TIP3    H1 4930   1.639   1.088   3.052  1.3927 -1.2251  0.2196
 1659TIP3    H2 4931   1.507   1.106   2.980  1.7004  2.4994  0.4838
 1660TIP3   OH2 4932   2.192   2.667   1.451 -0.4197  0.1254  0.5609
 1660TIP3    H1 4933   2.215   2.759   1.461  1.1024 -0.4636  2.8987
 1660TIP3    H2 4934   2.176   2.656   1.357 -5.0291  3.7347  0.7537
 1661TIP3   OH2 4935   1.375   0.683   3.954  0.1362  0.4626  1.0171
 1661TIP3    H1 4936   1.322   0.613   3.992  1.5542 -0.4240  1.3951
 1661TIP3    H2 4937   1.457   0.641   3.928  0.1146  1.5222 -0.9009
 1662TIP3   OH2 4938   0.915   1.199   3.822  0.0008 -0.0196 -0.2968
 1662TIP3    H1 4939   0.885   1.203   3.913  0.9193 -0.1544  0.0151
 1662TIP3    H2 4940   0.860   1.133   3.781  0.6055 -1.0690  0.5550
 1663TIP3   OH2 4941   2.668   1.376   3.298 -0.1235  0.2460  0.2710
 1663TIP3    H1 4942   2.648   1.322   3.221 -1.9465 -0.0804  0.9339
 1663TIP3    H2 4943   2.646   1.320   3.372  1.8485  0.4729  1.0510
 1664TIP3   OH2 4944   7.495   7.095   4.308 -0.1117  0.6123  0.3425
 1664TIP3    H1 4945   7.412   7.053   4.330 -0.1035  1.1887  1.4870
 1664TIP3    H2 4946   7.512   7.155   4.380  1.2640  0.5539  0.0873
 1665TIP3   OH2 4947   6.760   7.269   4.788  0.1111 -0.3192 -0.2077
 1665TIP3    H1 4948   6.724   7.246   4.874  1.9083 -0.3652  0.5729
 1665TIP3    H2 4949   6.751   7.189   4.736 -0.5383 -0.4490  0.1079
 1666TIP3   OH2 4950   6.961   6.139   5.372 -0.6464  0.1302 -0.1055
 1666TIP3    H1 4951   6.969   6.227   5.410 -1.7937  0.0398  0.3888
 1666TIP3    H2 4952   6.898   6.149   5.301  1.2011  0.2131 -1.7527
 1667TIP3   OH2 4953   3.178   0.060   3.720 -0.3511 -1.0444 -0.2557
 1667TIP3    H1 4954   3.211   0.090   3.635 -1.0964  1.1019  0.1876
 1667TIP3    H2 4955   3.235  -0.013   3.743  0.4101 -1.0917 -2.2015
 1668TIP3   OH2 4956   3.567   4.821   0.307  0.0572  0.0506  0.5478
 1668TIP3    H1 4957   3.539   4.735   0.276  0.4896 -0.1618  0.7392
 1668TIP3    H2 4958   3.515   4.883   0.256 -0.6603 -0.3309  0.8100
 1669TIP3   OH2 4959   7.406   7.032   4.034  0.4640  0.5841  0.3930
 1669TIP3    H1 4960   7.487   7.011   3.987  0.5376  3.5116 -0.9255
 1669TIP3    H2 4961   7.385   7.121   4.006 -3.3694 -0.1949  0.5073
 1670TIP3   OH2 4962   1.481   1.444   4.974  0.5593  0.1414  0.1428
 1670TIP3    H1 4963   1.446   1.376   5.032 -0.4324  0.5960  0.0854
 1670TIP3    H2 4964   1.574   1.449   4.997  0.5064 -0.7819  0.5929
 1671TIP3   OH2 4965   0.833   2.301   2.770 -0.4183 -0.3700 -0.4620
 1671TIP3    H1 4966   0.829   2.332   2.860  1.5200 -0.4695 -0.3193
 1671TIP3    H2 4967   0.780   2.221   2.770  1.0053 -1.3605  1.0397
 1672TIP3   OH2 4968   0.036   0.575   4.211  0.5006 -0.3186  0.4130
 1672TIP3    H1 4969   0.039   0.528   4.294  0.7387 -1.9982 -0.5269
 1672TIP3    H2 4970   0.120   0.556   4.170  0.5635  0.8743 -0.0225
 1673TIP3   OH2 4971   1.076   1.358   2.800  0.1895  0.6903 -0.8135
 1673TIP3    H1 4972   1.167   1.331   2.790 -0.6049 -2.1300 -0.9755
 1673TIP3    H2 4973   1.042   1.360   2.710 -0.2114  0.4807 -0.6698
 1674TIP3   OH2 4974   2.335   1.621   3.471  0.7240 -0.5804  0.9326
 1674TIP3    H1 4975   2.291   1.704   3.453  0.2908 -0.7953  1.0038
 1674TIP3    H2 4976   2.427   1.638   3.450  0.5672 -0.2105  0.5438
 1675TIP3   OH2 4977   3.484   0.180   4.681 -0.1023  0.4924  0.4190
 1675TIP3    H1 4978   3.562   0.130   4.705 -0.9564 -0.3678  1.4320
 1675TIP3    H2 4979   3.470   0.159   4.589 -0.1403 -0.7187  0.6908
 1676TIP3   OH2 4980   3.226   1.186   5.363 -0.0692  0.1131 -0.0512
 1676TIP3    H1 4981   3.280   1.262   5.342 -0.6906  0.3580 -0.7929
 1676TIP3    H2 4982   3.141   1.223   5.388 -0.3496 -0.3252 -0.3411
 1677TIP3   OH2 4983   0.556   6.364   4.835 -0.1311  0.0865 -0.3033
 1677TIP3    H1 4984   0.592   6.315   4.761  0.3789 -0.5907  0.3840
 1677TIP3    H2 4985   0.606   6.333   4.911  0.9554  2.4222 -0.0005
 1678TIP3   OH2 4986   7.892   0.236   3.515  1.0325 -0.1718  0.2548
 1678TIP3    H1 4987   7.867   0.266   3.427  1.7894 -1.5215 -0.4459
 1678TIP3    H2 4988   7.809   0.215   3.558  0.8081 -3.0387 -1.4599
 1679TIP3   OH2 4989   7.294   6.699   3.751  0.4079 -0.0685 -0.3785
 1679TIP3    H1 4990   7.224   6.763   3.736  2.2033  2.4987  1.6203
 1679TIP3    H2 4991   7.263   6.648   3.826  0.0091  0.0699 -0.4459
 1680TIP3   OH2 4992   3.844   0.181   3.090  0.2195  0.0746 -0.3825
 1680TIP3    H1 4993   3.844   0.261   3.038 -0.1044 -0.0289 -0.5418
 1680TIP3    H2 4994   3.792   0.202   3.168 -1.5969 -0.6025 -1.3882
 1681TIP3   OH2 4995   3.553   1.067   3.459  0.1736 -0.3014  0.1866
 1681TIP3    H1 4996   3.626   1.123   3.431 -0.4152  0.4181  0.0987
 1681TIP3    H2 4997   3.588   1.019   3.535  1.0249 -0.6042 -0.3802
 1682TIP3   OH2 4998   7.429   0.697   2.659 -0.4060 -0.3087  0.0895
 1682TIP3    H1 4999   7.381   0.639   2.718 -0.1230 -0.4839  0.1484
 1682TIP3    H2 5000   7.362   0.735   2.602 -0.5968 -0.6389  0.0974
 1683TIP3   OH2 5001   0.908   5.848   4.016 -0.0594 -0.3034  0.2277
 1683TIP3    H1 5002   0.961   5.784   4.064 -0.5521 -0.7164  0.2369
 1683TIP3    H2 5003   0.821   5.841   4.057 -1.3134 -2.8591 -2.6989
 1684TIP3   OH2 5004   6.573   6.813   2.015 -0.3396 -0.1431 -0.5377
 1684TIP3    H1 5005   6.583   6.723   2.047 -0.9302 -0.3068 -0.8136
 1684TIP3    H2 5006   6.658   6.834   1.976 -0.0244 -0.3892  0.0051
 1685TIP3   OH2 5007   0.629   5.850   3.633  0.1353  0.0600 -0.3510
 1685TIP3    H1 5008   0.596   5.866   3.721 -0.3091 -0.1427 -0.4808
 1685TIP3    H2 5009   0.700   5.786   3.645  1.1590  1.2455  0.0356
 1686TIP3   OH2 5010   5.427   6.805   3.418  0.8118  0.1947 -0.4333
 1686TIP3    H1 5011   5.516   6.807   3.382  0.2649  0.1748 -1.8248
 1686TIP3    H2 5012   5.377   6.753   3.355  0.0043 -0.5605  0.8079
 1687TIP3   OH2 5013   3.693   0.073   5.938 -0.2590 -0.6032  0.0428
 1687TIP3    H1 5014   3.625   0.097   6.001  0.7712  1.2615  0.5188
 1687TIP3    H2 5015   3.700   0.149   5.880  0.0195 -1.5936 -1.2426
 1688TIP3   OH2 5016   6.985   6.387   5.420  0.7493  0.1895 -0.8724
 1688TIP3    H1 5017   7.063   6.436   5.392  0.7629 -0.3921 -1.8542
 1688TIP3    H2 5018   6.918   6.409   5.355  0.4573 -0.2912 -0.7327
 1689TIP3   OH2 5019   2.976   1.046   4.206  0.0894  0.4306 -0.1810
 1689TIP3    H1 5020   2.912   1.098   4.255 -0.8861 -0.4222 -0.5350
 1689TIP3    H2 5021   2.937   1.035   4.120  0.4560 -0.5750 -0.2265
 1690TIP3   OH2 5022   2.751   2.237   5.036 -0.4045  0.2529  0.6026
 1690TIP3    H1 5023   2.690   2.310   5.049 -0.8288 -0.3116  1.8855
 1690TIP3    H2 5024   2.710   2.164   5.082  0.3287 -0.6318 -0.1397
 1691TIP3   OH2 5025   3.522   0.811   4.955  0.4423  0.6652 -0.1565
 1691TIP3    H1 5026   3.469   0.844   5.027  0.2852  1.1998 -0.5148
 1691TIP3    H2 5027   3.612   0.837   4.977  0.3710  0.9826 -0.2430
 1692TIP3   OH2 5028   0.049   0.727   2.029  0.1810  0.1513  0.0753
 1692TIP3    H1 5029   0.096   0.716   1.947 -1.1811  3.1293 -1.1703
 1692TIP3    H2 5030  -0.020   0.660   2.027  0.3161  0.0450 -1.1002
 1693TIP3   OH2 5031   1.916   2.482   4.855  1.4282  0.2491  0.0407
 1693TIP3    H1 5032   1.839   2.520   4.813  2.1507  0.2079 -1.3811
 1693TIP3    H2 5033   1.894   2.390   4.867  0.7768  0.5060  0.8026
 1694TIP3   OH2 5034   0.900   7.075   2.720  0.8671 -0.4333  0.0457
 1694TIP3    H1 5035   0.883   6.981   2.706  1.6752 -0.6354  0.3698
 1694TIP3    H2 5036   0.872   7.091   2.810 -1.4466  0.1670 -0.7630
 1695TIP3   OH2 5037   3.461   3.119   2.665 -0.3512 -0.1968  0.1812
 1695TIP3    H1 5038   3.412   3.117   2.747  0.3066 -0.6761  0.5652
 1695TIP3    H2 5039   3.404   3.076   2.602 -1.5147  1.5245  0.0128
 1696TIP3   OH2 5040   3.173   5.445   3.013  0.0643 -0.0116  0.4242
 1696TIP3    H1 5041   3.184   5.365   2.962 -1.3458 -0.4484  0.7676
 1696TIP3    H2 5042   3.227   5.431   3.091 -0.5055 -0.8170  0.6807
 1697TIP3   OH2 5043   7.778   6.313   3.120  0.3911  0.6794 -0.3026
 1697TIP3    H1 5044   7.772   6.238   3.061  0.5907  1.0516 -0.7975
 1697TIP3    H2 5045   7.847   6.368   3.082  2.7807 -0.6118  2.0039
 1698TIP3   OH2 5046   0.270   6.477   3.876  0.6848  0.0465 -0.1698
 1698TIP3    H1 5047   0.271   6.383   3.857 -0.9894 -0.1272  0.4991
 1698TIP3    H2 5048   0.206   6.486   3.947  2.0765  1.4898  0.9320
 1699TIP3   OH2 5049   1.285   2.734   4.056  0.3990  0.2649 -0.4218
 1699TIP3    H1 5050   1.309   2.678   4.130  0.6425  0.8926 -0.0164
 1699TIP3    H2 5051   1.264   2.818   4.096 -0.4825  0.3128 -0.9725
 1700TIP3   OH2 5052   3.364   2.555   3.060 -0.7345  0.2059  0.2392
 1700TIP3    H1 5053   3.428   2.484   3.050 -3.0806 -2.2838  1.9600
 1700TIP3    H2 5054   3.392   2.600   3.140 -0.1601  0.2325  0.0307
 1701TIP3   OH2 5055   4.279   1.964   3.952  0.6009 -0.1056  0.7898
 1701TIP3    H1 5056   4.270   2.059   3.949  0.7638 -0.1019  0.3382
 1701TIP3    H2 5057   4.338   1.948   4.026  2.1441  0.2759 -0.3201
 1702TIP3   OH2 5058   0.074   6.373   2.293 -0.0173 -0.2360  0.6359
 1702TIP3    H1 5059   0.052   6.280   2.294 -0.6737 -0.0744  1.3287
 1702TIP3    H2 5060   0.170   6.375   2.291 -0.0136 -0.9285 -0.3766
 1703TIP3   OH2 5061   7.570   6.612   2.005  0.4633  0.5083 -0.0708
 1703TIP3    H1 5062   7.499   6.637   2.065  0.1673 -1.7695  0.5628
 1703TIP3    H2 5063   7.650   6.641   2.049  0.0729  1.2348  0.1711
 1704TIP3   OH2 5064   1.019   6.701   4.639 -0.0657 -0.5586  0.6652
 1704TIP3    H1 5065   1.013   6.742   4.553 -1.1888  1.2573  1.5834
 1704TIP3    H2 5066   0.945   6.639   4.641 -1.6068  1.2510  1.2550
 1705TIP3   OH2 5067   3.921   0.805   4.260  1.0287  0.0300  0.2441
 1705TIP3    H1 5068   3.920   0.772   4.350 -0.0920 -0.0272  0.2158
 1705TIP3    H2 5069   3.962   0.735   4.209 -1.8290 -1.6078  0.0831
 1706TIP3   OH2 5070   7.469   7.031   2.713  0.2654  0.1924 -0.2042
 1706TIP3    H1 5071   7.391   7.085   2.709  1.5619  1.9667 -2.7721
 1706TIP3    H2 5072   7.521   7.069   2.784  0.2696  1.0578 -0.6666
 1707TIP3   OH2 5073   0.356   6.955   3.780 -0.1450  0.0553  0.4308
 1707TIP3    H1 5074   0.352   7.016   3.853  0.6763 -0.9480  1.3223
 1707TIP3    H2 5075   0.266   6.921   3.772 -0.1350 -0.1869  1.2892
 1708TIP3   OH2 5076   6.425   6.205   2.288 -0.0071 -0.3722  0.1992
 1708TIP3    H1 5077   6.339   6.242   2.309  0.1423 -0.7656  1.5301
 1708TIP3    H2 5078   6.488   6.263   2.330  0.3031 -1.0512  0.6903
 1709TIP3   OH2 5079   5.585   2.050   3.212  0.1454 -0.2225  0.1780
 1709TIP3    H1 5080   5.584   1.960   3.181  0.9012 -0.7057  1.5297
 1709TIP3    H2 5081   5.513   2.093   3.165  0.6552 -1.1645 -1.5083
 1710TIP3   OH2 5082   0.777   0.596   4.149 -0.1830  0.4341  0.2413
 1710TIP3    H1 5083   0.788   0.530   4.217 -1.0337 -0.4950 -0.5028
 1710TIP3    H2 5084   0.682   0.607   4.142 -0.0836  0.9267 -0.4196
 1711TIP3   OH2 5085   7.234   5.950   3.748  0.4258 -0.1634 -0.6618
 1711TIP3    H1 5086   7.258   6.041   3.767  0.7422 -0.7278  1.8389
 1711TIP3    H2 5087   7.139   5.948   3.756  0.5237 -0.3092  0.5726
 1712TIP3   OH2 5088   1.935   6.090   1.029 -0.2288 -0.2955  0.6706
 1712TIP3    H1 5089   1.950   6.181   1.056  0.2182 -0.2057  0.1410
 1712TIP3    H2 5090   1.943   6.092   0.934 -0.0727 -0.9170  0.6680
 1713TIP3   OH2 5091   1.580   1.729   4.090 -0.2401 -0.3095 -0.0777
 1713TIP3    H1 5092   1.607   1.642   4.121  0.9018  0.1854  0.3233
 1713TIP3    H2 5093   1.626   1.790   4.147 -2.5407  0.5658  0.9309
 1714TIP3   OH2 5094   3.650   1.411   5.373 -0.0071 -0.3472  0.7275
 1714TIP3    H1 5095   3.631   1.374   5.459 -2.3382 -0.4756  0.1910
 1714TIP3    H2 5096   3.679   1.336   5.321 -2.7989 -1.1364  0.2083
 1715TIP3   OH2 5097   2.426   0.988   5.925 -0.0130 -0.3683  0.0289
 1715TIP3    H1 5098   2.446   0.993   6.019  1.2310  1.6840 -0.3266
 1715TIP3    H2 5099   2.450   0.899   5.901 -1.2965 -1.2634  1.8499
 1716TIP3   OH2 5100   6.730   6.898   3.638  0.2891  0.1704  0.5094
 1716TIP3    H1 5101   6.642   6.933   3.651 -0.1011 -0.0825 -1.3325
 1716TIP3    H2 5102   6.788   6.975   3.640 -0.1417  0.5013  0.2406
 1717TIP3   OH2 5103   7.284   6.909   4.274 -0.2415  0.3200  0.4757
 1717TIP3    H1 5104   7.310   6.943   4.188 -0.2939  1.1731  0.7953
 1717TIP3    H2 5105   7.265   6.817   4.258 -2.7006  1.0383 -0.9520
 1718TIP3   OH2 5106   3.365   1.306   1.989  0.2130 -0.1749 -0.1908
 1718TIP3    H1 5107   3.456   1.307   1.960  1.0165 -2.4345  1.9733
 1718TIP3    H2 5108   3.369   1.332   2.082 -1.0136 -2.6498  0.6061
 1719TIP3   OH2 5109   2.025   1.698   1.647  0.9044 -0.2945  0.0566
 1719TIP3    H1 5110   1.941   1.730   1.681  1.0153  0.3517 -0.2572
 1719TIP3    H2 5111   2.073   1.671   1.725  0.7607  0.2031  0.3236
 1720TIP3   OH2 5112   0.698   6.480   5.196  0.3033  0.2725 -0.4557
 1720TIP3    H1 5113   0.708   6.561   5.147  0.8303  1.0070  0.8341
 1720TIP3    H2 5114   0.618   6.493   5.247  1.5278  0.8424  1.3521
 1721TIP3   OH2 5115   6.710   5.825   5.511 -0.0850 -0.1484  0.0693
 1721TIP3    H1 5116   6.645   5.849   5.445  0.9282 -0.2615 -0.9851
 1721TIP3    H2 5117   6.671   5.853   5.594 -0.8492  1.1288 -0.6943
 1722TIP3   OH2 5118   1.302   6.409   3.955 -0.2909  0.3335  0.1777
 1722TIP3    H1 5119   1.369   6.340   3.961 -0.8134 -0.1744  0.2064
 1722TIP3    H2 5120   1.263   6.397   3.868 -0.2200  0.7469  0.0891
 1723TIP3   OH2 5121   4.678   0.612   2.316 -0.1891 -0.3677 -0.0582
 1723TIP3    H1 5122   4.701   0.610   2.409  0.9946  0.8520 -0.3103
 1723TIP3    H2 5123   4.755   0.650   2.273 -2.1994  2.8465 -1.0323
 1724TIP3   OH2 5124   1.177   7.414   2.908  0.4820 -0.0197  0.5712
 1724TIP3    H1 5125   1.171   7.482   2.976 -0.6137  2.5966 -2.0131
 1724TIP3    H2 5126   1.252   7.440   2.856 -0.4769 -0.2683 -0.9623
 1725TIP3   OH2 5127   0.915   1.241   3.451 -0.1491 -0.2260 -0.0904
 1725TIP3    H1 5128   0.909   1.318   3.507 -0.6215 -0.5910  0.3670
 1725TIP3    H2 5129   0.861   1.261   3.375 -0.6165 -0.2807  0.2298
 1726TIP3   OH2 5130   7.081   7.096   3.004  0.0033  0.4357  0.2041
 1726TIP3    H1 5131   7.131   7.127   2.928 -1.5546 -2.4308 -2.1094
 1726TIP3    H2 5132   7.030   7.172   3.031 -1.4494  0.8494 -3.3486
 1727TIP3   OH2 5133   4.674   1.131   3.442  0.5855  0.1620 -0.2489
 1727TIP3    H1 5134   4.602   1.075   3.414  1.4003  0.2632 -2.7444
 1727TIP3    H2 5135   4.751   1.074   3.437  0.8469  0.3790  1.2253
 1728TIP3   OH2 5136   3.579   0.547   2.755  0.2684 -0.5719 -0.1004
 1728TIP3    H1 5137   3.585   0.460   2.715 -2.4114 -0.3793 -1.0677
 1728TIP3    H2 5138   3.510   0.591   2.705 -0.5385  1.0321  2.3478
 1729TIP3   OH2 5139   6.116   5.611   3.504  0.1871  0.7133  0.3521
 1729TIP3    H1 5140   6.200   5.655   3.496  1.3322 -1.6460 -1.1176
 1729TIP3    H2 5141   6.057   5.659   3.446  0.8419  1.6315  0.4536
 1730TIP3   OH2 5142   5.612   0.371   4.283 -0.1617 -0.2649 -0.3553
 1730TIP3    H1 5143   5.641   0.320   4.207  0.0010 -0.6306 -0.0457
 1730TIP3    H2 5144   5.521   0.347   4.296 -0.1651 -0.2649 -0.3823
 1731TIP3   OH2 5145   7.147   7.067   4.434 -0.3307 -0.0480 -0.0735
 1731TIP3    H1 5146   7.193   7.012   4.371 -1.2422 -0.2877 -0.5404
 1731TIP3    H2 5147   7.215   7.123   4.472  0.1918  0.2840 -1.4762
 1732TIP3   OH2 5148   7.186   6.558   3.547  0.5824 -0.0404  0.2797
 1732TIP3    H1 5149   7.233   6.559   3.630 -1.9171 -0.1786  1.7233
 1732TIP3    H2 5150   7.177   6.650   3.522 -0.2651  0.1029  1.0980
 1733TIP3   OH2 5151   6.138   6.717   3.577  0.0900  0.4426  0.3919
 1733TIP3    H1 5152   6.093   6.693   3.658  2.9293 -2.4624  1.1808
 1733TIP3    H2 5153   6.187   6.796   3.600 -0.7333  0.8226  0.8855
 1734TIP3   OH2 5154   6.183   0.100   3.494 -0.3369 -0.4714 -0.3254
 1734TIP3    H1 5155   6.199   0.069   3.405 -1.7199  0.1544 -0.8064
 1734TIP3    H2 5156   6.088   0.094   3.506 -0.2979  0.6019  0.6685
 1735TIP3   OH2 5157   5.901   6.146   0.269  0.2775 -0.0281 -0.0064
 1735TIP3    H1 5158   5.811   6.124   0.248  0.5785 -0.6288 -0.6917
 1735TIP3    H2 5159   5.953   6.074   0.231  1.1386  0.9942 -0.8026
 1736TIP3   OH2 5160   3.016   6.962   2.642 -0.0025  0.0431  0.1369
 1736TIP3    H1 5161   2.948   6.894   2.647 -0.1950  0.3354  1.6222
 1736TIP3    H2 5162   2.970   7.043   2.662  0.9262  0.1440  1.9666
 1737TIP3   OH2 5163   0.083   6.405   3.353 -0.0839 -0.6025 -0.1553
 1737TIP3    H1 5164  -0.006   6.397   3.318  0.4294 -1.2810 -1.3469
 1737TIP3    H2 5165   0.129   6.458   3.288  0.2158  0.2984  0.7837
 1738TIP3   OH2 5166   2.815   0.944   3.247 -0.1981 -0.1592  0.4218
 1738TIP3    H1 5167   2.776   0.989   3.322  1.8390 -0.4002  1.6622
 1738TIP3    H2 5168   2.813   0.852   3.271 -1.5693 -0.4680 -0.8055
 1739TIP3   OH2 5169   4.360   0.091   4.343 -0.3770 -0.5932 -0.0158
 1739TIP3    H1 5170   4.423   0.162   4.336 -1.6474  0.4432 -1.2463
 1739TIP3    H2 5171   4.292   0.125   4.401 -1.4603 -0.4309 -1.3598
 1740TIP3   OH2 5172   0.200   7.225   3.105 -0.5446  0.2922  0.0076
 1740TIP3    H1 5173   0.196   7.313   3.068 -0.6897  0.5798  0.6930
 1740TIP3    H2 5174   0.132   7.224   3.173  0.4234  0.1337  0.9980
 1741TIP3   OH2 5175   3.871   1.565   3.533  0.1506  0.5809 -0.1578
 1741TIP3    H1 5176   3.793   1.620   3.542  0.6960  1.1611  1.1024
 1741TIP3    H2 5177   3.849   1.485   3.580 -0.7830 -0.4640 -2.3040
 1742TIP3   OH2 5178   5.458   1.766   4.052  0.0671 -0.3185  0.3001
 1742TIP3    H1 5179   5.367   1.761   4.081  0.0376  0.7214  0.4031
 1742TIP3    H2 5180   5.493   1.678   4.068 -0.9915 -0.8109 -0.0161
 1743TIP3   OH2 5181   0.594   6.899   3.686 -0.4405  0.2179 -0.1880
 1743TIP3    H1 5182   0.630   6.835   3.747 -3.0911 -2.4746 -1.2995
 1743TIP3    H2 5183   0.508   6.921   3.722 -1.2503  0.0006 -1.9106
 1744TIP3   OH2 5184   1.593   7.062   4.001 -0.0485 -0.0657 -0.0921
 1744TIP3    H1 5185   1.636   6.990   3.955  2.0452  0.1279  1.4890
 1744TIP3    H2 5186   1.596   7.135   3.939  1.8399 -0.0976 -0.0637
 1745TIP3   OH2 5187   5.002   1.024   5.325 -0.0296 -0.1436  0.0545
 1745TIP3    H1 5188   5.002   0.949   5.265 -0.9417  0.9862 -1.4190
 1745TIP3    H2 5189   5.020   0.987   5.411 -1.9852 -2.2651 -0.4080
 1746TIP3   OH2 5190   4.330   4.296   0.094 -0.2210 -0.2580 -0.0067
 1746TIP3    H1 5191   4.262   4.329   0.152 -0.0101 -1.1751  0.7759
 1746TIP3    H2 5192   4.412   4.311   0.142 -0.1462 -2.1725  0.4866
 1747TIP3   OH2 5193   7.332   7.190   3.393 -0.4562 -0.1828  0.0504
 1747TIP3    H1 5194   7.376   7.238   3.324 -2.0566 -0.6947 -1.3609
 1747TIP3    H2 5195   7.367   7.227   3.474  1.2139  0.6333 -1.0142
 1748TIP3   OH2 5196   1.616   1.821   5.758 -0.1319 -0.1079 -0.2273
 1748TIP3    H1 5197   1.594   1.768   5.681  2.4144 -0.5581 -0.6827
 1748TIP3    H2 5198   1.533   1.830   5.805 -1.6999  0.0586 -2.9394
 1749TIP3   OH2 5199   2.074   0.760   2.610  0.1183 -0.0996 -0.7459
 1749TIP3    H1 5200   2.065   0.830   2.675 -0.2960  0.1630 -1.0799
 1749TIP3    H2 5201   2.054   0.680   2.658 -0.1349  0.0902 -0.5323
 1750TIP3   OH2 5202   4.834   0.984   2.400  0.5437 -0.5054 -0.1505
 1750TIP3    H1 5203   4.778   0.990   2.478  0.0421  0.1514 -0.5493
 1750TIP3    H2 5204   4.774   0.958   2.330  0.7194  0.2400 -0.5870
 1751TIP3   OH2 5205   2.696   0.160   4.872  0.2678 -0.1524 -0.7456
 1751TIP3    H1 5206   2.648   0.239   4.846 -0.1154 -0.0874  0.1464
 1751TIP3    H2 5207   2.729   0.124   4.789  2.1641  2.0466 -1.0087
 1752TIP3   OH2 5208   1.868   0.092   3.034  0.3443 -0.0363 -0.0092
 1752TIP3    H1 5209   1.824   0.156   3.090 -0.2532 -0.2782 -0.1990
 1752TIP3    H2 5210   1.851   0.123   2.945  2.5716  1.1976 -0.0395
 1753TIP3   OH2 5211   3.127   0.477   2.625  0.1794  0.0005  0.2050
 1753TIP3    H1 5212   3.041   0.501   2.658  0.4318  1.2765 -0.0192
 1753TIP3    H2 5213   3.187   0.495   2.698  0.0230 -3.0067  1.1534
 1754TIP3   OH2 5214   3.844   2.445   5.606  0.2205  0.0346  0.6256
 1754TIP3    H1 5215   3.910   2.510   5.633  0.3589 -0.1825  0.8108
 1754TIP3    H2 5216   3.885   2.361   5.623  0.7256 -0.1239 -1.2478
 1755TIP3   OH2 5217   1.971   0.823   4.273  0.1899  0.4626 -0.2103
 1755TIP3    H1 5218   1.935   0.847   4.188  0.6848  1.7131 -0.0712
 1755TIP3    H2 5219   2.028   0.896   4.297  0.6478 -0.2250  0.8470
 1756TIP3   OH2 5220   6.659   6.236   1.585  0.3467  0.5806  0.2865
 1756TIP3    H1 5221   6.586   6.291   1.615 -0.1281  0.7893 -1.2099
 1756TIP3    H2 5222   6.619   6.151   1.566  0.7623  0.2461  0.8991
 1757TIP3   OH2 5223   4.377   0.011   3.939  0.1623 -0.1685 -0.7239
 1757TIP3    H1 5224   4.346   0.093   3.977  0.5848 -0.2866 -0.1141
 1757TIP3    H2 5225   4.406  -0.041   4.014 -1.0145 -1.2738 -1.0054
 1758TIP3   OH2 5226   3.724   1.268   3.437 -0.1015  0.2830  0.6288
 1758TIP3    H1 5227   3.795   1.224   3.391 -0.4176 -0.9604  1.3151
 1758TIP3    H2 5228   3.756   1.280   3.527 -0.5931  0.0999  0.8320
 1759TIP3   OH2 5229   1.658   6.341   1.648 -0.0762  0.2300  0.3129
 1759TIP3    H1 5230   1.725   6.362   1.713 -0.1478  0.6438  0.2572
 1759TIP3    H2 5231   1.637   6.249   1.663 -1.1377  0.6985  1.8425
 1760TIP3   OH2 5232   3.493   1.172   2.977  0.1335  0.0896 -0.2310
 1760TIP3    H1 5233   3.498   1.196   2.885 -0.9909 -3.4252 -1.2575
 1760TIP3    H2 5234   3.584   1.153   3.001  0.2870  0.0158 -0.8691
 1761TIP3   OH2 5235   4.619   0.179   4.125 -0.5331 -0.4310  0.7739
 1761TIP3    H1 5236   4.673   0.218   4.056  0.9378 -1.5782  1.2314
 1761TIP3    H2 5237   4.529   0.196   4.098 -0.0343 -2.0218 -2.1591
 1762TIP3   OH2 5238   2.350   1.185   1.960  0.0785  0.7771  0.0088
 1762TIP3    H1 5239   2.434   1.211   1.924 -0.1487  0.5109 -0.7401
 1762TIP3    H2 5240   2.296   1.264   1.957  0.3780  1.0102  0.7263
 1763TIP3   OH2 5241   2.144   3.368   1.421 -0.3988  0.4190 -0.0149
 1763TIP3    H1 5242   2.123   3.382   1.328 -0.3954  0.7861  0.0411
 1763TIP3    H2 5243   2.077   3.306   1.451  0.9442 -1.4750 -0.8327
 1764TIP3   OH2 5244   7.078   4.982   2.485  0.0413 -0.0048 -0.0999
 1764TIP3    H1 5245   7.150   4.962   2.546  1.8796  1.5167 -1.7076
 1764TIP3    H2 5246   7.008   5.015   2.541  1.6169  1.1536  1.2460
 1765TIP3   OH2 5247   7.672   5.891   4.883 -0.7850 -0.6950  0.2433
 1765TIP3    H1 5248   7.745   5.906   4.943 -1.5198 -0.9111  1.1997
 1765TIP3    H2 5249   7.594   5.908   4.936 -1.4124  0.2095 -0.9633
 1766TIP3   OH2 5250   1.976   0.443   3.452  0.4937 -0.4350  0.2761
 1766TIP3    H1 5251   2.063   0.434   3.413 -0.4163 -1.9997 -1.5025
 1766TIP3    H2 5252   1.935   0.513   3.401  0.2915 -0.5223  0.3200
 1767TIP3   OH2 5253   3.086   1.962   4.837  0.3950  0.2564  0.1099
 1767TIP3    H1 5254   3.105   1.876   4.798 -1.6033 -0.0707 -0.1948
 1767TIP3    H2 5255   3.119   1.955   4.927  1.2433 -0.4403 -0.2423
 1768TIP3   OH2 5256   2.776   1.174   4.964 -0.5079  0.9159 -0.7027
 1768TIP3    H1 5257   2.789   1.082   4.944 -0.5798  0.3629  1.5971
 1768TIP3    H2 5258   2.854   1.218   4.930  0.3584 -0.2564 -0.2584
 1769TIP3   OH2 5259   2.837   0.298   4.299 -0.1195 -0.0517 -0.0876
 1769TIP3    H1 5260   2.872   0.280   4.386  0.4494  0.6149 -0.1735
 1769TIP3    H2 5261   2.897   0.363   4.262 -0.1413 -0.6175 -1.1219
 1770TIP3   OH2 5262   5.953   7.215   1.308 -0.4461 -1.0103  0.5003
 1770TIP3    H1 5263   5.912   7.240   1.391  0.8485 -1.8259  1.4079
 1770TIP3    H2 5264   5.891   7.244   1.241 -1.1832  0.3046  1.7121
 1771TIP3   OH2 5265   4.674   0.991   2.693 -0.0351 -0.1245  0.1044
 1771TIP3    H1 5266   4.642   0.985   2.784 -2.3578 -1.3618 -0.7416
 1771TIP3    H2 5267   4.739   1.061   2.695 -0.9460  0.7181  2.4893
 1772TIP3   OH2 5268   3.401   1.384   2.323 -0.2196 -0.6782 -0.2043
 1772TIP3    H1 5269   3.422   1.477   2.312 -0.8871 -0.6980 -1.7018
 1772TIP3    H2 5270   3.306   1.380   2.326 -0.2255 -1.3764 -0.8807
 1773TIP3   OH2 5271   4.882   5.450   1.245 -0.1280  0.5871  0.2087
 1773TIP3    H1 5272   4.878   5.379   1.309 -0.0678  0.9812  0.6550
 1773TIP3    H2 5273   4.792   5.482   1.239 -0.0587  0.8180  0.4009
 1774TIP3   OH2 5274   1.204   0.600   4.752 -0.8108  0.8151 -0.4226
 1774TIP3    H1 5275   1.206   0.695   4.765  0.7788  0.9300 -1.5152
 1774TIP3    H2 5276   1.219   0.587   4.659 -0.8146 -0.5363 -0.2494
 1775TIP3   OH2 5277   6.179   6.004   4.507  0.3207  0.4113  0.2834
 1775TIP3    H1 5278   6.239   5.966   4.571  0.7620  0.5351 -0.0563
 1775TIP3    H2 5279   6.184   5.946   4.431  0.5258  0.7967 -0.0011
 1776TIP3   OH2 5280   1.796   6.247   4.907  0.3900 -0.2770 -0.4813
 1776TIP3    H1 5281   1.762   6.294   4.831 -1.2604 -1.5072 -0.5065
 1776TIP3    H2 5282   1.880   6.290   4.925 -0.2546  1.5070 -1.5928
 1777TIP3   OH2 5283   0.714   6.821   1.656  0.8997  0.0370 -0.6630
 1777TIP3    H1 5284   0.647   6.791   1.717  2.1400 -0.7705  0.3194
 1777TIP3    H2 5285   0.669   6.825   1.571  0.0563 -2.2475 -0.3655
 1778TIP3   OH2 5286   2.138   1.029   4.358 -0.1655  0.2046 -0.3496
 1778TIP3    H1 5287   2.194   0.977   4.416 -2.1179 -1.8242 -0.1973
 1778TIP3    H2 5288   2.101   1.097   4.414  0.3095  0.0907  0.1048
 1779TIP3   OH2 5289   3.284   0.651   5.015 -0.3673  0.4078  0.1195
 1779TIP3    H1 5290   3.250   0.562   5.026  1.9065 -0.7901 -2.0687
 1779TIP3    H2 5291   3.263   0.674   4.925  0.6462  1.3684  0.1212
 1780TIP3   OH2 5292   1.902   7.071   2.571 -0.2921  0.1541  0.2099
 1780TIP3    H1 5293   1.904   7.124   2.491  2.2318 -1.3721 -0.8219
 1780TIP3    H2 5294   1.949   7.124   2.636  0.8019 -0.1189 -0.3508
 1781TIP3   OH2 5295   1.391   1.306   3.865 -0.5879  0.0169 -0.1635
 1781TIP3    H1 5296   1.381   1.259   3.947  0.0290 -0.7117 -0.5023
 1781TIP3    H2 5297   1.459   1.372   3.883  0.1411 -0.6859 -0.3204
 1782TIP3   OH2 5298   3.247   2.839   5.162  0.4890  0.4592  0.3009
 1782TIP3    H1 5299   3.202   2.874   5.085  0.2948 -2.4285 -0.9616
 1782TIP3    H2 5300   3.240   2.908   5.227 -1.4780  2.0178 -1.4868
 1783TIP3   OH2 5301   2.620   5.101   4.302 -0.6410 -1.0493  0.2150
 1783TIP3    H1 5302   2.546   5.135   4.353 -0.4593  1.1315 -0.8833
 1783TIP3    H2 5303   2.588   5.102   4.211  0.8610  0.3467 -0.3170
 1784TIP3   OH2 5304   3.658   3.013   4.684  0.0644  0.1199  0.2634
 1784TIP3    H1 5305   3.577   2.981   4.723 -1.1274 -0.9682 -2.9598
 1784TIP3    H2 5306   3.709   2.934   4.666  0.2946  0.5504 -0.9983
 1785TIP3   OH2 5307   2.381   0.288   3.086 -0.2527  0.1929  0.0254
 1785TIP3    H1 5308   2.401   0.379   3.066 -2.1452  0.7195  0.4835
 1785TIP3    H2 5309   2.453   0.239   3.047 -0.4954  1.6869 -2.3772
 1786TIP3   OH2 5310   0.951   6.693   2.212  0.1604 -0.3259 -0.5349
 1786TIP3    H1 5311   0.996   6.778   2.211 -0.1346 -0.1645 -0.1903
 1786TIP3    H2 5312   0.879   6.703   2.150 -1.1292  0.3704  1.0293
 1787TIP3   OH2 5313   1.338   5.660   6.032 -0.2083 -0.3020 -0.1972
 1787TIP3    H1 5314   1.422   5.697   6.059 -0.8022  0.0861  1.1200
 1787TIP3    H2 5315   1.356   5.621   5.946  1.0660  0.6749 -0.3887
 1788TIP3   OH2 5316   0.777   6.738   2.432  0.0328  0.5429 -0.1293
 1788TIP3    H1 5317   0.847   6.731   2.367 -1.7021 -0.9671 -1.8910
 1788TIP3    H2 5318   0.713   6.796   2.393  0.1859  1.7875  1.4127
 1789TIP3   OH2 5319   2.913   0.535   4.952  0.3478 -0.0626  0.0063
 1789TIP3    H1 5320   2.873   0.567   4.871 -1.7777 -1.1992  0.5701
 1789TIP3    H2 5321   2.930   0.615   5.002  0.9365  0.5925 -1.2085
 1790TIP3   OH2 5322   7.743   7.249   6.028 -0.3661 -0.1896  0.2407
 1790TIP3    H1 5323   7.686   7.226   5.955 -0.3679  1.8678 -0.4552
 1790TIP3    H2 5324   7.829   7.217   6.003 -0.6412 -0.7101 -0.0399
 1791TIP3   OH2 5325   4.568   1.627   3.665 -0.3372  0.0520  0.0823
 1791TIP3    H1 5326   4.505   1.695   3.690 -0.9478 -0.2012 -0.7521
 1791TIP3    H2 5327   4.601   1.656   3.579 -0.5776 -0.6924 -0.2604
 1792TIP3   OH2 5328   1.982   2.186   4.788 -0.2535  0.2727  0.0665
 1792TIP3    H1 5329   1.961   2.113   4.730  0.4270  0.9669 -1.0550
 1792TIP3    H2 5330   1.923   2.174   4.863  2.2256 -3.3932  1.5462
 1793TIP3   OH2 5331   0.349   0.357   1.930  0.3996  0.4815  0.2293
 1793TIP3    H1 5332   0.380   0.394   1.848  1.2051  0.4312  0.5080
 1793TIP3    H2 5333   0.253   0.358   1.923  0.4640  0.8023 -0.5585
 1794TIP3   OH2 5334   5.593   6.233   4.525  0.4197  0.0086 -0.1957
 1794TIP3    H1 5335   5.559   6.276   4.604  0.9175  0.8820 -0.4620
 1794TIP3    H2 5336   5.681   6.270   4.513  0.0414  0.4694 -1.6192
 1795TIP3   OH2 5337   0.412   0.352   3.179 -0.3168  0.1304 -0.1553
 1795TIP3    H1 5338   0.395   0.285   3.112 -1.5011 -0.0632  0.3327
 1795TIP3    H2 5339   0.381   0.312   3.260  0.3749  0.6862  0.3851
 1796TIP3   OH2 5340   3.798   1.319   2.997  0.3871  0.1117 -0.9472
 1796TIP3    H1 5341   3.789   1.228   2.969 -0.3763  0.2455 -1.1384
 1796TIP3    H2 5342   3.714   1.341   3.037  1.3802  0.0216  1.2220
 1797TIP3   OH2 5343   2.888   1.908   5.615  0.0531 -0.1888  0.2285
 1797TIP3    H1 5344   2.936   1.841   5.566 -1.0618 -0.2003 -0.9052
 1797TIP3    H2 5345   2.922   1.991   5.581 -1.8285 -0.1873 -1.7706
 1798TIP3   OH2 5346   3.148   2.687   5.668  0.0267  0.0752  0.9679
 1798TIP3    H1 5347   3.060   2.664   5.695 -0.0450 -3.7647 -2.1111
 1798TIP3    H2 5348   3.194   2.604   5.660  3.3788  1.8626  0.6334
 1799TIP3   OH2 5349   3.451   6.931   4.331 -0.2252  1.1721 -0.0297
 1799TIP3    H1 5350   3.494   7.006   4.373  0.8365  1.1077 -1.0023
 1799TIP3    H2 5351   3.498   6.855   4.364  1.3200  1.1802 -2.1396
 1800TIP3   OH2 5352   0.452   6.838   5.571 -0.0881 -0.5860  0.3968
 1800TIP3    H1 5353   0.399   6.760   5.591 -0.5900 -0.2755  0.2828
 1800TIP3    H2 5354   0.388   6.907   5.554  0.3323 -0.4959 -0.9297
 1801TIP3   OH2 5355   5.334   3.282   2.314  0.1664  0.2605 -0.0090
 1801TIP3    H1 5356   5.295   3.226   2.247 -0.1602 -0.1512  0.5192
 1801TIP3    H2 5357   5.264   3.294   2.379  0.7801 -0.1417  0.7373
 1802TIP3   OH2 5358   3.994   1.380   3.164 -0.0353 -0.1796 -0.1227
 1802TIP3    H1 5359   3.980   1.469   3.196  0.4756 -0.2033  0.1687
 1802TIP3    H2 5360   3.915   1.360   3.114  0.1494  0.6945 -0.7824
 1803TIP3   OH2 5361   3.573   0.862   5.299  0.6883 -0.4898 -0.0292
 1803TIP3    H1 5362   3.643   0.899   5.245  0.0338 -0.4200 -0.8286
 1803TIP3    H2 5363   3.611   0.781   5.334  2.1713  0.9344  1.8199
 1804TIP3   OH2 5364   4.425   0.811   5.620  0.3338 -0.0500  0.3734
 1804TIP3    H1 5365   4.482   0.779   5.690 -1.0733 -0.8008  1.1907
 1804TIP3    H2 5366   4.338   0.779   5.643 -0.2113 -0.0145 -1.5389
 1805TIP3   OH2 5367   2.273   1.103   4.089 -0.3904  0.1125  0.4072
 1805TIP3    H1 5368   2.365   1.109   4.116  0.1055 -1.3521 -0.8934
 1805TIP3    H2 5369   2.224   1.100   4.171  0.7246  0.7161  1.1087
 1806TIP3   OH2 5370   5.247   0.422   3.563 -0.0940  0.7703  0.2723
 1806TIP3    H1 5371   5.272   0.508   3.531  1.0407  0.4584  0.3074
 1806TIP3    H2 5372   5.165   0.402   3.517 -0.2449  1.7636  0.1033
 1807TIP3   OH2 5373   0.044   6.462   5.672  0.1875 -0.6265  0.4119
 1807TIP3    H1 5374   0.056   6.520   5.747 -0.5255  1.9456 -1.4258
 1807TIP3    H2 5375  -0.042   6.422   5.686 -1.0505  1.7218 -0.2401
 1808TIP3   OH2 5376   7.765   7.134   4.475  0.3809  0.1765 -0.0173
 1808TIP3    H1 5377   7.771   7.229   4.465 -0.1371  0.2627  0.4848
 1808TIP3    H2 5378   7.833   7.100   4.418 -0.4855  0.7974 -1.4645
 1809TIP3   OH2 5379   5.259   0.297   3.833  0.2525  0.1260 -0.3353
 1809TIP3    H1 5380   5.198   0.348   3.779  1.4117  1.0933 -0.7573
 1809TIP3    H2 5381   5.274   0.218   3.782  0.7789  0.7120 -1.1015
 1810TIP3   OH2 5382   3.287   1.405   4.079  0.4059 -0.0585  0.3030
 1810TIP3    H1 5383   3.335   1.381   3.999  2.4778 -0.8185  1.7211
 1810TIP3    H2 5384   3.281   1.323   4.128 -3.4816 -0.2465 -0.3607
 1811TIP3   OH2 5385   4.750   0.658   4.497 -0.3868 -0.0763 -0.4901
 1811TIP3    H1 5386   4.668   0.630   4.455 -0.2008  0.2969 -1.1044
 1811TIP3    H2 5387   4.818   0.607   4.454 -0.3801 -1.0398  0.6393
 1812TIP3   OH2 5388   1.170   6.632   3.023  1.0292 -0.2539  0.2072
 1812TIP3    H1 5389   1.148   6.725   3.033 -0.8780 -0.7311  0.6867
 1812TIP3    H2 5390   1.202   6.624   2.933 -0.5725  0.5527 -0.4532
 1813TIP3   OH2 5391   1.479   6.115   4.967 -0.0109 -0.8258 -0.3280
 1813TIP3    H1 5392   1.568   6.087   4.946 -0.2887 -1.4827 -0.6314
 1813TIP3    H2 5393   1.469   6.097   5.060  0.8591  1.1120  0.1735
 1814TIP3   OH2 5394   7.397   6.838   4.942  0.4571 -0.2788 -0.0520
 1814TIP3    H1 5395   7.364   6.873   5.024  2.0888  0.0752  0.4764
 1814TIP3    H2 5396   7.417   6.915   4.889  1.9931 -0.4238  0.2855
 1815TIP3   OH2 5397   3.461   0.379   3.420 -0.5310  0.6285 -0.1481
 1815TIP3    H1 5398   3.514   0.456   3.440 -1.4171  1.2640 -0.1957
 1815TIP3    H2 5399   3.493   0.350   3.335 -0.6562  1.3732 -0.4594
 1816TIP3   OH2 5400   3.739   2.678   5.284 -0.1570 -0.2923  0.1560
 1816TIP3    H1 5401   3.753   2.610   5.349  1.0282 -0.7937 -0.6043
 1816TIP3    H2 5402   3.809   2.742   5.299  0.0011 -0.3063 -0.4728
 1817TIP3   OH2 5403   0.790   1.245   3.199  0.0487  0.0062  0.4316
 1817TIP3    H1 5404   0.717   1.184   3.186 -0.3845  0.8009 -0.9221
 1817TIP3    H2 5405   0.861   1.209   3.145  0.9544 -1.2220  2.3876
 1818TIP3   OH2 5406   1.826   0.207   4.878 -0.4689  0.1265 -0.6771
 1818TIP3    H1 5407   1.831   0.185   4.786 -1.3918  0.0641 -0.7150
 1818TIP3    H2 5408   1.906   0.171   4.916 -0.6177 -0.7997 -1.2462
 1819TIP3   OH2 5409   3.614   1.669   5.584  0.2731 -0.0389 -0.0401
 1819TIP3    H1 5410   3.597   1.692   5.492  2.6198  0.6048 -0.3439
 1819TIP3    H2 5411   3.681   1.602   5.580 -1.1257 -1.5465  1.1608
 1820TIP3   OH2 5412   3.984   2.231   4.459 -0.2153 -0.0855 -0.1473
 1820TIP3    H1 5413   3.913   2.196   4.513  0.4850 -1.1693  0.0620
 1820TIP3    H2 5414   4.023   2.155   4.417  2.1487  0.2947  1.3053
 1821TIP3   OH2 5415   3.825   2.288   3.794 -0.1365 -0.3914 -0.1398
 1821TIP3    H1 5416   3.840   2.200   3.828  1.6397 -0.0850 -0.0610
 1821TIP3    H2 5417   3.846   2.346   3.868 -0.6691  0.1154 -0.3824
 1822TIP3   OH2 5418   4.774   7.395   3.806  0.5029 -0.2389  0.0485
 1822TIP3    H1 5419   4.704   7.345   3.849 -0.7956  0.8450 -0.7399
 1822TIP3    H2 5420   4.832   7.422   3.877 -0.8466  0.3520  0.9450
 1823TIP3   OH2 5421   1.376   1.121   4.081 -0.4140  0.1167  0.4614
 1823TIP3    H1 5422   1.347   1.050   4.025  0.2930  2.1546 -2.6089
 1823TIP3    H2 5423   1.470   1.105   4.094 -0.3406  0.2677  0.1132
 1824TIP3   OH2 5424   3.327   1.854   6.083  0.4829  0.0126 -0.6206
 1824TIP3    H1 5425   3.298   1.764   6.072  1.3035 -0.1197 -1.7987
 1824TIP3    H2 5426   3.251   1.899   6.120  0.3225 -1.3208  0.7208
 1825TIP3   OH2 5427   4.447   3.542   4.462 -0.1895  0.0259  0.2566
 1825TIP3    H1 5428   4.519   3.603   4.443 -1.0614  0.2899 -2.4358
 1825TIP3    H2 5429   4.424   3.561   4.553  0.1304  3.1630 -0.2357
 1826TIP3   OH2 5430   1.518   0.794   3.075 -0.0444 -0.1635  0.3382
 1826TIP3    H1 5431   1.547   0.873   3.029  2.0386 -0.6762  0.7180
 1826TIP3    H2 5432   1.425   0.785   3.051  0.0300  1.6607 -0.7362
 1827TIP3   OH2 5433   3.774   1.607   3.092  0.5478 -0.0173  0.7574
 1827TIP3    H1 5434   3.744   1.696   3.109 -0.3465  0.2909 -2.1786
 1827TIP3    H2 5435   3.704   1.551   3.126  0.0013  0.4722  0.4358
 1828TIP3   OH2 5436   1.805   0.853   3.984 -0.2011 -0.4826  0.0028
 1828TIP3    H1 5437   1.804   0.918   3.913 -0.2847 -1.7949 -1.2171
 1828TIP3    H2 5438   1.730   0.876   4.038 -1.2806 -0.6276 -1.4082
 1829TIP3   OH2 5439   1.973   3.029   2.342 -0.0589 -0.0228 -0.3942
 1829TIP3    H1 5440   1.888   2.987   2.360 -1.2280  1.3962 -2.3446
 1829TIP3    H2 5441   1.992   3.080   2.421 -1.1289 -0.1974 -0.0130
 1830TIP3   OH2 5442   1.537   0.532   4.393 -0.2241 -0.4602  0.0667
 1830TIP3    H1 5443   1.500   0.609   4.436  3.1847  0.8167  0.8921
 1830TIP3    H2 5444   1.625   0.523   4.431  0.3891 -3.2675 -1.8408
 1831TIP3   OH2 5445   3.429   0.720   3.854  0.0146 -0.7705  0.1203
 1831TIP3    H1 5446   3.338   0.723   3.826  0.3209  2.1126 -0.6897
 1831TIP3    H2 5447   3.429   0.760   3.941  0.4062 -1.5333  0.4804
 1832TIP3   OH2 5448   2.202   1.390   2.282 -0.2411 -0.0306  0.0760
 1832TIP3    H1 5449   2.175   1.318   2.225  2.1258 -1.1277  0.3129
 1832TIP3    H2 5450   2.217   1.350   2.367  0.0585  0.9457  0.4908
 1833TIP3   OH2 5451   0.884   7.219   3.312  0.4809 -0.0565 -0.2127
 1833TIP3    H1 5452   0.941   7.223   3.235 -0.2351 -2.8313 -0.9774
 1833TIP3    H2 5453   0.831   7.140   3.298 -1.3806  0.7464  1.9627
 1834TIP3   OH2 5454   2.027   7.135   0.250  0.4495  0.1772  0.2369
 1834TIP3    H1 5455   1.983   7.086   0.319  1.5297 -2.0339 -0.5691
 1834TIP3    H2 5456   2.118   7.140   0.279  0.7265  0.0106 -0.5856
 1835TIP3   OH2 5457   0.887   7.431   3.760 -0.0744 -0.0197  0.5733
 1835TIP3    H1 5458   0.963   7.443   3.704 -0.0609 -1.9889  0.1316
 1835TIP3    H2 5459   0.844   7.352   3.726 -1.6638  0.4041  1.5281
 1836TIP3   OH2 5460   4.811   1.470   5.131 -0.6346  0.2904  0.1043
 1836TIP3    H1 5461   4.890   1.434   5.172 -0.5313  1.5908  1.0722
 1836TIP3    H2 5462   4.808   1.561   5.160 -3.2567 -0.1175  1.2386
 1837TIP3   OH2 5463   6.183   1.757   5.280  0.0187 -0.3688 -0.1834
 1837TIP3    H1 5464   6.165   1.764   5.186 -1.5247 -0.1282  0.1188
 1837TIP3    H2 5465   6.127   1.824   5.320  1.2199  0.0507  0.8534
 1838TIP3   OH2 5466   5.022   0.387   3.367 -0.4182  0.1693  0.1109
 1838TIP3    H1 5467   5.027   0.453   3.299  2.0837  0.6581  0.7280
 1838TIP3    H2 5468   4.936   0.347   3.356 -0.6610  1.3167 -2.3010
 1839TIP3   OH2 5469   2.409   5.150   1.443  0.0416 -0.7268  0.1242
 1839TIP3    H1 5470   2.325   5.191   1.463 -0.4784 -1.4498 -0.5187
 1839TIP3    H2 5471   2.444   5.124   1.528 -0.1554  0.0214  0.4339
 1840TIP3   OH2 5472   2.924   0.970   2.356  0.2185 -0.8230 -0.3432
 1840TIP3    H1 5473   3.014   0.985   2.385  0.2025 -1.1259 -0.1416
 1840TIP3    H2 5474   2.903   1.048   2.304  0.2018 -0.2293  0.5458
 1841TIP3   OH2 5475   4.041   0.692   3.667  0.0861 -0.7621  0.1672
 1841TIP3    H1 5476   3.984   0.618   3.644 -0.8223 -0.4740  1.4205
 1841TIP3    H2 5477   4.033   0.753   3.594  1.3906 -2.1891 -1.2178
 1842TIP3   OH2 5478   3.685   0.549   1.681 -0.1134 -0.5393  0.5308
 1842TIP3    H1 5479   3.711   0.487   1.613 -0.0001 -0.7429  0.7593
 1842TIP3    H2 5480   3.732   0.520   1.759 -1.3752 -1.1837  1.0608
 1843TIP3   OH2 5481   2.946   6.299   2.816 -0.1810  0.2194 -0.0332
 1843TIP3    H1 5482   3.022   6.313   2.760 -0.0456  1.7444  0.5111
 1843TIP3    H2 5483   2.872   6.301   2.756  0.1111 -0.0187 -0.4021
 1844TIP3   OH2 5484   3.279   0.975   3.997  0.0324  0.0405  0.3366
 1844TIP3    H1 5485   3.203   0.919   4.009  0.5027 -1.1282 -1.9150
 1844TIP3    H2 5486   3.279   0.997   3.904  2.7792 -0.5174  0.1539
 1845TIP3   OH2 5487   0.196   7.165   3.400  0.1803 -0.3128  0.0741
 1845TIP3    H1 5488   0.201   7.187   3.493  0.5937  0.2214 -0.0708
 1845TIP3    H2 5489   0.265   7.100   3.387 -1.7019 -2.4819  0.7124
 1846TIP3   OH2 5490   2.659   6.232   3.303 -0.3488 -0.3675  0.4341
 1846TIP3    H1 5491   2.635   6.141   3.324 -0.6575 -0.4188 -0.1233
 1846TIP3    H2 5492   2.736   6.223   3.247  0.8855 -0.2072  2.0630
 1847TIP3   OH2 5493   3.339   1.304   2.780 -0.0594 -0.4354 -0.6263
 1847TIP3    H1 5494   3.275   1.366   2.743  1.3091  0.4483 -1.5755
 1847TIP3    H2 5495   3.288   1.226   2.800 -1.9428  1.1815  1.1149
 1848TIP3   OH2 5496   5.203   1.860   2.748 -0.5264  0.5050  0.0435
 1848TIP3    H1 5497   5.191   1.941   2.698 -1.1673  1.6430  1.9935
 1848TIP3    H2 5498   5.258   1.885   2.822  1.3073 -1.3971 -0.6299
 1849TIP3   OH2 5499   4.688   0.727   2.624  0.2642 -0.1166 -0.5023
 1849TIP3    H1 5500   4.675   0.812   2.665  1.5877 -0.4590  0.6537
 1849TIP3    H2 5501   4.764   0.690   2.668 -0.2018 -1.8360 -1.1017
 1850TIP3   OH2 5502   4.919   0.592   5.054 -0.2630 -0.3404  0.0917
 1850TIP3    H1 5503   4.852   0.646   5.096 -0.8218 -0.6593 -0.3836
 1850TIP3    H2 5504   4.948   0.643   4.980 -0.2997 -0.3931  0.0407
 1851TIP3   OH2 5505   5.883   1.837   4.468 -0.0771 -0.2254  0.2623
 1851TIP3    H1 5506   5.822   1.783   4.419  0.4198 -1.0168  0.4992
 1851TIP3    H2 5507   5.841   1.922   4.474  0.6895  0.4588 -3.2282
 1852TIP3   OH2 5508   6.147   3.909   3.387 -0.6533 -0.8239  0.0450
 1852TIP3    H1 5509   6.195   3.973   3.440 -0.4742  0.8761 -2.0778
 1852TIP3    H2 5510   6.166   3.935   3.297 -0.6730 -3.8594 -0.8652
 1853TIP3   OH2 5511   1.328   3.799   1.437  0.9169 -0.0943  0.4981
 1853TIP3    H1 5512   1.402   3.777   1.381  0.1592  0.6475 -0.8187
 1853TIP3    H2 5513   1.365   3.854   1.506  1.3127  1.7934 -1.1636
 1854TIP3   OH2 5514   3.090   7.115   4.755  0.4650  0.2891 -0.4064
 1854TIP3    H1 5515   3.054   7.202   4.736  1.5523  0.5002 -1.6003
 1854TIP3    H2 5516   3.172   7.133   4.801 -0.7501 -0.1818  2.0287
 1855TIP3   OH2 5517   4.534   0.995   1.652  0.3806  0.1435 -0.5155
 1855TIP3    H1 5518   4.538   0.903   1.677 -0.4987 -0.2772 -1.8903
 1855TIP3    H2 5519   4.617   1.012   1.609  0.1595 -0.2511 -1.0954
 1856TIP3   OH2 5520   5.963   1.988   3.200  0.3743 -0.5592  0.4838
 1856TIP3    H1 5521   6.005   2.032   3.274 -1.3469 -1.0058  1.7670
 1856TIP3    H2 5522   5.876   2.028   3.193  0.1743 -1.1570 -0.7160
 1857TIP3   OH2 5523   6.695   0.249   3.728 -0.1291 -0.1832 -0.0180
 1857TIP3    H1 5524   6.612   0.290   3.754  0.2887  0.4237  0.3506
 1857TIP3    H2 5525   6.704   0.273   3.635 -1.2019 -1.6617 -0.5275
 1858TIP3   OH2 5526   2.847   0.303   5.368  0.3234  0.2152  0.2870
 1858TIP3    H1 5527   2.881   0.392   5.379  1.6465 -0.3351  0.7211
 1858TIP3    H2 5528   2.753   0.311   5.384  0.5170  1.4394  0.8473
 1859TIP3   OH2 5529   7.607   0.216   0.475  0.1758  0.2823  0.1966
 1859TIP3    H1 5530   7.613   0.123   0.454 -0.9441  0.3296 -0.3340
 1859TIP3    H2 5531   7.669   0.257   0.415  1.3384 -0.1931  1.0329
 1860TIP3   OH2 5532   5.210   2.037   2.351 -0.1900  0.4128  0.3398
 1860TIP3    H1 5533   5.231   2.129   2.336  1.2817  0.1642  0.7995
 1860TIP3    H2 5534   5.199   2.030   2.446 -1.4391  0.3361  0.2008
 1861TIP3   OH2 5535   4.734   0.104   1.730  0.2007 -0.0932  0.1743
 1861TIP3    H1 5536   4.729   0.191   1.690  0.9940 -0.8486 -1.6120
 1861TIP3    H2 5537   4.642   0.078   1.743 -0.0576  2.0865  3.2087
 1862TIP3   OH2 5538   4.451   0.060   2.025  0.6014 -0.3979 -0.3716
 1862TIP3    H1 5539   4.387   0.130   2.039  0.6000 -0.4816  0.0493
 1862TIP3    H2 5540   4.403  -0.021   2.044  0.7454 -0.4812 -0.3635
 1863TIP3   OH2 5541   3.732   0.626   5.403  0.4768 -0.3459 -0.1857
 1863TIP3    H1 5542   3.762   0.568   5.332 -0.3957  2.3769 -2.8831
 1863TIP3    H2 5543   3.654   0.582   5.437 -0.5001 -0.5328 -2.5529
 1864TIP3   OH2 5544   4.516   1.506   4.668  0.0767  0.5355 -0.0833
 1864TIP3    H1 5545   4.578   1.440   4.699  0.0147  0.0265 -1.0158
 1864TIP3    H2 5546   4.444   1.455   4.630  0.2931  1.1234 -1.3311
 1865TIP3   OH2 5547   3.994   2.019   3.042 -0.1387 -0.0263  0.2585
 1865TIP3    H1 5548   3.921   2.040   2.984 -0.2892 -0.9909  0.0990
 1865TIP3    H2 5549   3.964   2.046   3.129 -0.8076 -0.6919  0.2388
 1866TIP3   OH2 5550   3.969   1.004   3.718  0.3285  0.2086  0.5036
 1866TIP3    H1 5551   4.002   1.075   3.664  0.2654  0.1533  0.3927
 1866TIP3    H2 5552   3.968   1.040   3.807 -0.2452  0.5403  0.3657
 1867TIP3   OH2 5553   4.462   0.682   1.326  0.8118  0.1281 -0.2546
 1867TIP3    H1 5554   4.372   0.660   1.303  0.1101  1.4187  1.1360
 1867TIP3    H2 5555   4.477   0.639   1.410  0.6525  1.8499  0.6902
 1868TIP3   OH2 5556   1.325   5.840   1.143 -0.8577 -0.1438 -0.0519
 1868TIP3    H1 5557   1.378   5.872   1.070 -2.5820 -4.0845 -3.2008
 1868TIP3    H2 5558   1.387   5.828   1.215  1.4143  0.9277 -1.7803
 1869TIP3   OH2 5559   5.274   1.968   4.994  0.2768 -0.1060  0.3068
 1869TIP3    H1 5560   5.330   2.037   4.959  0.7309  0.0441  1.3244
 1869TIP3    H2 5561   5.245   2.001   5.079  1.1971 -1.5365  1.1960
 1870TIP3   OH2 5562   4.567   3.146   3.364 -0.8521  0.5100  0.0035
 1870TIP3    H1 5563   4.581   3.186   3.278 -2.0617  2.0231  0.4910
 1870TIP3    H2 5564   4.569   3.220   3.425  2.8624 -0.8139  1.6584
 1871TIP3   OH2 5565   3.489   1.757   4.100  0.1873 -0.3591  0.4558
 1871TIP3    H1 5566   3.523   1.671   4.075  0.2089 -0.1960 -0.0913
 1871TIP3    H2 5567   3.456   1.794   4.018 -0.4556 -0.1334  0.8093
 1872TIP3   OH2 5568   1.941   0.413   2.265  0.3925  0.2232 -0.2134
 1872TIP3    H1 5569   1.920   0.320   2.264  2.7130 -0.3339 -0.6562
 1872TIP3    H2 5570   2.034   0.417   2.243  0.1456  2.6982 -1.0194
 1873TIP3   OH2 5571   7.260   1.343   0.781 -0.6465  0.9795 -0.8963
 1873TIP3    H1 5572   7.295   1.276   0.722 -1.0256 -0.0706  0.0567
 1873TIP3    H2 5573   7.237   1.295   0.861 -0.4894  2.3191 -0.0255
 1874TIP3   OH2 5574   1.969   2.474   6.311 -0.5609  0.4059  0.0969
 1874TIP3    H1 5575   1.928   2.454   6.226 -1.4916 -2.4041  1.1571
 1874TIP3    H2 5576   2.039   2.410   6.320  1.4217  2.5255  0.2086
 1875TIP3   OH2 5577   3.618   1.229   5.880 -0.0249 -0.1943 -0.0914
 1875TIP3    H1 5578   3.611   1.136   5.902  1.2059 -0.1638  0.4885
 1875TIP3    H2 5579   3.580   1.275   5.955 -1.6817 -0.2368 -0.8728
 1876TIP3   OH2 5580   6.239   2.145   4.119 -0.4740  0.8657  0.2035
 1876TIP3    H1 5581   6.192   2.159   4.201  0.4138  1.8579  0.5507
 1876TIP3    H2 5582   6.206   2.213   4.061 -1.5884 -0.2452 -0.4915
 1877TIP3   OH2 5583   5.004   2.503   4.047 -0.0777  0.1311  0.0121
 1877TIP3    H1 5584   5.014   2.425   3.992 -1.8342 -0.6278  0.7251
 1877TIP3    H2 5585   5.087   2.549   4.038  0.6872 -1.3980 -1.0845
 1878TIP3   OH2 5586   3.997   2.204   5.432  0.6363 -1.3662 -0.5029
 1878TIP3    H1 5587   3.997   2.205   5.527 -1.2435 -1.0205 -0.4887
 1878TIP3    H2 5588   3.995   2.111   5.409  1.2677 -1.4513 -0.2116
 1879TIP3   OH2 5589   3.684   4.134   6.431  0.2713 -0.0474  0.1930
 1879TIP3    H1 5590   3.646   4.157   6.346 -1.1120 -0.3541  0.7132
 1879TIP3    H2 5591   3.747   4.203   6.449  0.3639  0.1738 -0.9566
 1880TIP3   OH2 5592   2.286   2.188   0.750 -0.2938 -0.2110 -0.3956
 1880TIP3    H1 5593   2.205   2.215   0.705 -0.3165  1.9759  0.9245
 1880TIP3    H2 5594   2.290   2.094   0.736 -3.2589 -0.4130 -0.2157
 1881TIP3   OH2 5595   5.492   0.749   4.177 -0.3271 -0.1421  0.2189
 1881TIP3    H1 5596   5.434   0.795   4.116  1.1357  1.8856  0.2906
 1881TIP3    H2 5597   5.578   0.754   4.135  0.2260 -0.9896  1.2462
 1882TIP3   OH2 5598   3.419   2.178   5.256 -0.1912  0.1873 -0.0102
 1882TIP3    H1 5599   3.397   2.265   5.290  0.1168  0.5299 -0.6815
 1882TIP3    H2 5600   3.376   2.117   5.317 -2.4594  0.8289 -0.9260
 1883TIP3   OH2 5601   3.253   1.150   4.980  0.0784 -0.2628 -0.0957
 1883TIP3    H1 5602   3.285   1.226   5.028  0.8142  0.0662 -1.0936
 1883TIP3    H2 5603   3.305   1.148   4.900  0.3931 -2.0993  0.1349
 1884TIP3   OH2 5604   1.087   6.354   5.101 -0.1584 -0.6374  0.2829
 1884TIP3    H1 5605   1.055   6.333   5.013 -0.4931  0.2198  0.2015
 1884TIP3    H2 5606   1.171   6.398   5.086 -0.2079 -0.5054  0.3986
 1885TIP3   OH2 5607   1.027   7.200   1.584 -0.1427  0.0306 -0.2515
 1885TIP3    H1 5608   0.931   7.203   1.590 -0.1335 -0.8483  0.4357
 1885TIP3    H2 5609   1.045   7.118   1.537  0.3081 -0.4710  0.7805
 1886TIP3   OH2 5610   4.928   2.592   6.098  0.5079 -0.2810 -0.0441
 1886TIP3    H1 5611   4.844   2.635   6.079  0.4707 -0.1250  0.4716
 1886TIP3    H2 5612   4.979   2.659   6.143  0.6022 -0.6462  0.3933
 1887TIP3   OH2 5613   3.963   0.797   3.422  0.7008 -0.2629  0.3834
 1887TIP3    H1 5614   4.023   0.872   3.427  0.1449  0.3197 -1.5999
 1887TIP3    H2 5615   3.968   0.768   3.331 -1.1502 -0.9627  0.4951
 1888TIP3   OH2 5616   3.131   7.005   3.517 -0.3178  0.3575  0.2426
 1888TIP3    H1 5617   3.191   7.075   3.544  0.4014  0.0715 -0.6006
 1888TIP3    H2 5618   3.173   6.924   3.546  0.8511 -0.0141 -2.3853
 1889TIP3   OH2 5619   7.192   2.470   4.628  0.1172 -0.3980  0.2660
 1889TIP3    H1 5620   7.128   2.535   4.657 -1.1566 -0.8351 -1.5027
 1889TIP3    H2 5621   7.274   2.496   4.671 -0.9642  0.8550  1.6150
 1890TIP3   OH2 5622   6.440   2.938   3.151  0.3832 -0.0475  0.4014
 1890TIP3    H1 5623   6.374   2.949   3.083  0.3677 -2.6529 -0.0607
 1890TIP3    H2 5624   6.509   2.887   3.109  1.9476  1.2054  1.3776
 1891TIP3   OH2 5625   3.569   7.221   2.132 -0.6894  0.0408  0.1483
 1891TIP3    H1 5626   3.636   7.155   2.114 -0.7142  0.2574 -0.7655
 1891TIP3    H2 5627   3.513   7.220   2.054 -0.1877  1.7510 -0.2334
 1892TIP3   OH2 5628   5.512   0.549   3.918  0.0246 -0.5012 -0.3166
 1892TIP3    H1 5629   5.438   0.603   3.890  0.5027  0.5416  0.4156
 1892TIP3    H2 5630   5.574   0.554   3.845  0.5295  0.8160  0.1938
 1893TIP3   OH2 5631   2.096   7.422   4.284  0.0081  0.4408 -0.2587
 1893TIP3    H1 5632   2.061   7.362   4.218 -0.0790  0.1378  0.0635
 1893TIP3    H2 5633   2.066   7.509   4.256 -1.6447  0.1013  0.4405
 1894TIP3   OH2 5634   2.959   6.638   4.548 -0.1274  0.0129 -0.2665
 1894TIP3    H1 5635   2.984   6.702   4.615 -0.2126  0.5115 -0.7154
 1894TIP3    H2 5636   3.041   6.594   4.525 -0.0182  0.1777 -0.1903
 1895TIP3   OH2 5637   3.763   0.528   4.666 -0.1128 -0.6952 -0.2983
 1895TIP3    H1 5638   3.717   0.612   4.673  0.1132 -0.7281  1.7253
 1895TIP3    H2 5639   3.815   0.522   4.746  0.6665 -2.3073 -0.9080
 1896TIP3   OH2 5640   4.601   1.761   0.835  0.4183 -0.6854  0.1198
 1896TIP3    H1 5641   4.563   1.723   0.756  1.1620  0.1187 -0.6262
 1896TIP3    H2 5642   4.631   1.686   0.886  4.1340 -1.0601 -2.4649
 1897TIP3   OH2 5643   2.287   6.822   3.866  0.1646 -0.5948  0.4138
 1897TIP3    H1 5644   2.312   6.912   3.848 -0.8818 -0.2734  0.4994
 1897TIP3    H2 5645   2.326   6.802   3.951  1.3375 -0.5992 -0.1298
 1898TIP3   OH2 5646   0.936   5.787   0.915 -0.3684  0.2772  0.3633
 1898TIP3    H1 5647   0.856   5.750   0.952 -1.1284  0.8553 -0.6768
 1898TIP3    H2 5648   0.944   5.746   0.829  0.5156  0.1527  0.4932
 1899TIP3   OH2 5649   5.522   6.104   6.428  0.1358  0.1517 -0.0436
 1899TIP3    H1 5650   5.559   6.182   6.389 -1.2104  0.8744  0.0954
 1899TIP3    H2 5651   5.454   6.076   6.366 -0.5836  0.1122  0.7503
 1900TIP3   OH2 5652   0.760   6.961   4.677  0.5088 -0.2612 -0.4056
 1900TIP3    H1 5653   0.775   6.936   4.586  0.5435 -0.8216 -0.2514
 1900TIP3    H2 5654   0.665   6.956   4.688  0.4503  0.4681 -0.5969
 1901TIP3   OH2 5655   1.558   7.324   2.397 -0.4131  0.4476 -0.0084
 1901TIP3    H1 5656   1.513   7.294   2.475 -0.7506  0.5968 -0.1419
 1901TIP3    H2 5657   1.651   7.317   2.418 -0.5074  0.8594  0.5457
 1902TIP3   OH2 5658   1.840   7.053   4.518 -0.4105 -0.2063  0.5039
 1902TIP3    H1 5659   1.872   7.142   4.506 -2.8169  0.5639 -0.5623
 1902TIP3    H2 5660   1.785   7.036   4.441 -1.7653 -1.7733  1.7588
 1903TIP3   OH2 5661   5.295  -0.005   5.535  0.1091  0.3850  0.1504
 1903TIP3    H1 5662   5.231  -0.020   5.605 -1.7629  2.2700 -1.1202
 1903TIP3    H2 5663   5.318   0.087   5.542  1.2117  0.1855 -0.6745
 1904TIP3   OH2 5664   5.607   0.164   4.092 -0.1210  0.0797 -0.2956
 1904TIP3    H1 5665   5.530   0.219   4.078  0.1610  0.5549  0.0220
 1904TIP3    H2 5666   5.587   0.115   4.172  1.0175  2.1770  1.3426
 1905TIP3   OH2 5667   7.777   6.330   3.585 -0.4876  0.4236 -0.4059
 1905TIP3    H1 5668   7.766   6.425   3.577  1.5230  0.6060 -1.3366
 1905TIP3    H2 5669   7.723   6.294   3.514 -2.7877  0.7266  1.1225
 1906TIP3   OH2 5670   1.834   6.732   4.358  0.4101 -0.1141  0.3588
 1906TIP3    H1 5671   1.875   6.710   4.274  1.2360  0.4431  0.6044
 1906TIP3    H2 5672   1.799   6.820   4.344 -0.9546 -0.6932  0.0671
 1907TIP3   OH2 5673   0.878   5.198   3.033 -0.3774  0.0463 -0.7975
 1907TIP3    H1 5674   0.896   5.254   2.957  1.2766 -1.0876 -1.2593
 1907TIP3    H2 5675   0.964   5.168   3.062 -1.1474 -1.1940  0.2666
 1908TIP3   OH2 5676   3.161   0.727   4.771 -0.1090  0.4096  0.2970
 1908TIP3    H1 5677   3.181   0.818   4.746 -0.4372  0.2224 -0.6866
 1908TIP3    H2 5678   3.077   0.733   4.817 -0.2571  0.5761  0.0101
 1909TIP3   OH2 5679   4.947   1.414   2.369 -0.5658 -0.2788  0.5599
 1909TIP3    H1 5680   4.896   1.365   2.304  0.0679  1.7104 -1.5124
 1909TIP3    H2 5681   4.889   1.485   2.397  0.1160  0.4476  0.1485
 1910TIP3   OH2 5682   3.948   0.852   4.890 -0.0462  0.4021 -0.1097
 1910TIP3    H1 5683   3.984   0.941   4.893  1.3916 -0.1994  1.4825
 1910TIP3    H2 5684   3.994   0.811   4.817 -1.5097  1.2726 -1.5479
 1911TIP3   OH2 5685   2.905   1.479   3.929  0.2485 -0.0758  0.4152
 1911TIP3    H1 5686   2.829   1.537   3.924  1.0635  0.9267 -0.6620
 1911TIP3    H2 5687   2.978   1.532   3.898  1.3122 -1.1797  0.9808
 1912TIP3   OH2 5688   5.231   2.134   3.682 -0.4910  0.1220 -0.1221
 1912TIP3    H1 5689   5.221   2.222   3.720 -0.0223 -0.7254  2.0328
 1912TIP3    H2 5690   5.197   2.075   3.750  0.3518 -1.4418 -1.0426
 1913TIP3   OH2 5691   4.155   1.751   1.690  0.1216  0.0126 -0.6982
 1913TIP3    H1 5692   4.249   1.745   1.711 -0.0922  0.3796  0.3648
 1913TIP3    H2 5693   4.116   1.792   1.767 -1.2670 -2.2291 -0.1605
 1914TIP3   OH2 5694   4.081   3.857   2.885  0.0954 -0.0944 -0.2875
 1914TIP3    H1 5695   4.105   3.786   2.826 -0.3018 -0.4231 -0.0560
 1914TIP3    H2 5696   4.012   3.904   2.838 -0.0838 -0.2393 -0.1680
 1915TIP3   OH2 5697   4.758   2.658   3.926  0.2049 -0.6566 -0.8459
 1915TIP3    H1 5698   4.849   2.632   3.918  0.0527 -0.8968 -1.8952
 1915TIP3    H2 5699   4.761   2.747   3.959  0.8242 -0.6124 -1.0235
 1916TIP3   OH2 5700   4.808   2.989   2.944 -0.0379 -0.1986 -0.3926
 1916TIP3    H1 5701   4.730   3.039   2.968 -0.3877 -0.3371 -1.2080
 1916TIP3    H2 5702   4.783   2.944   2.863  0.2234 -1.7987  0.3979
 1917TIP3   OH2 5703   1.372   1.264   2.730 -0.0729 -0.5734 -0.4635
 1917TIP3    H1 5704   1.343   1.179   2.765  1.0572 -1.3969 -1.4875
 1917TIP3    H2 5705   1.394   1.246   2.639  0.6171  0.7303 -0.5574
 1918TIP3   OH2 5706   0.964   5.828   2.752  0.2355 -0.1803  0.2686
 1918TIP3    H1 5707   0.887   5.844   2.807 -0.4583  0.4547 -0.8741
 1918TIP3    H2 5708   0.993   5.916   2.725  1.1963 -0.4315  0.4646
 1919TIP3   OH2 5709   1.530   6.619   2.400 -0.4252 -0.5577 -0.1396
 1919TIP3    H1 5710   1.569   6.591   2.483  0.6380 -0.4821 -0.6116
 1919TIP3    H2 5711   1.463   6.553   2.382  1.3932 -2.2852 -0.7486
 1920TIP3   OH2 5712   3.994   1.658   3.295 -0.1088 -0.0703  0.2362
 1920TIP3    H1 5713   3.936   1.629   3.365 -1.6836 -0.1542 -1.0683
 1920TIP3    H2 5714   3.963   1.745   3.272  0.8278  0.2332  0.1031
 1921TIP3   OH2 5715   5.546   7.137   5.884 -0.1273  0.2063  0.3608
 1921TIP3    H1 5716   5.492   7.058   5.896  0.7214 -0.3544  0.5321
 1921TIP3    H2 5717   5.495   7.207   5.924 -0.4490 -0.4298  1.0724
 1922TIP3   OH2 5718   2.258   6.945   3.438  0.2704 -0.0367 -0.1024
 1922TIP3    H1 5719   2.332   6.944   3.378  0.2848  0.3266 -0.0922
 1922TIP3    H2 5720   2.185   6.976   3.386 -0.0321 -1.0529 -0.2899
 1923TIP3   OH2 5721   5.506   0.616   1.945 -0.5347  0.0854 -0.3550
 1923TIP3    H1 5722   5.520   0.710   1.948 -1.4696  0.3544 -2.8891
 1923TIP3    H2 5723   5.415   0.604   1.974 -0.4754 -0.0353 -0.2165
 1924TIP3   OH2 5724   6.749   0.403   1.208 -0.2386 -0.9678 -0.1315
 1924TIP3    H1 5725   6.795   0.453   1.275 -1.7368  1.9878 -1.1789
 1924TIP3    H2 5726   6.809   0.400   1.134  0.5018 -2.2025  0.5050
 1925TIP3   OH2 5727   4.800   0.645   3.650 -0.0365  1.0860 -0.6277
 1925TIP3    H1 5728   4.847   0.573   3.690  0.6366  2.5475  1.2822
 1925TIP3    H2 5729   4.861   0.680   3.584  0.8639  1.8321  0.5843
 1926TIP3   OH2 5730   2.250   6.869   2.295  0.3856 -0.3654 -0.4091
 1926TIP3    H1 5731   2.171   6.860   2.349  0.3941 -4.5722 -0.8841
 1926TIP3    H2 5732   2.219   6.906   2.213 -0.6919  0.2053  0.2443
 1927TIP3   OH2 5733   4.248   0.468   3.389  0.4274 -0.1887  0.0342
 1927TIP3    H1 5734   4.342   0.456   3.381  0.4877  1.3531 -1.9686
 1927TIP3    H2 5735   4.230   0.551   3.344 -1.6128  0.5575  2.0858
 1928TIP3   OH2 5736   3.033   2.099   1.344  0.3278 -0.2489 -0.3936
 1928TIP3    H1 5737   3.107   2.039   1.355 -0.5445 -1.3180 -0.2281
 1928TIP3    H2 5738   2.963   2.060   1.396 -0.4926  0.5100 -0.9158
 1929TIP3   OH2 5739   2.731   6.762   1.258 -0.4780 -0.2874  0.7098
 1929TIP3    H1 5740   2.776   6.701   1.316 -0.3992 -0.6205  0.2959
 1929TIP3    H2 5741   2.646   6.721   1.241  0.5262 -1.4864 -1.5778
 1930TIP3   OH2 5742   3.681   0.525   3.405  0.3603  0.2814 -0.0066
 1930TIP3    H1 5743   3.666   0.620   3.405  0.7674  0.4321 -3.2566
 1930TIP3    H2 5744   3.709   0.506   3.315  0.5129 -2.8980  0.6586
 1931TIP3   OH2 5745   4.916   4.519   6.389 -0.1576 -0.0888  0.2883
 1931TIP3    H1 5746   4.911   4.613   6.370 -2.4350  0.0549  1.3846
 1931TIP3    H2 5747   5.001   4.492   6.356  0.9835  2.5898  0.9207
 1932TIP3   OH2 5748   7.381   7.135   3.084 -0.3698 -0.4325 -0.1827
 1932TIP3    H1 5749   7.468   7.107   3.055 -0.7119 -1.7025 -0.0197
 1932TIP3    H2 5750   7.331   7.054   3.091 -1.5285  0.2740 -0.1191
 1933TIP3   OH2 5751   5.391   0.267   4.597 -0.1247  0.1751  0.0820
 1933TIP3    H1 5752   5.443   0.271   4.677 -0.0395  1.1734 -0.0218
 1933TIP3    H2 5753   5.301   0.257   4.628  0.1375 -1.8323  0.2582
 1934TIP3   OH2 5754   3.954   0.815   2.863 -0.1521  0.0697  0.8472
 1934TIP3    H1 5755   3.960   0.770   2.778 -0.5568  0.4426  0.6221
 1934TIP3    H2 5756   4.024   0.880   2.861 -0.4396  0.3728  0.6235
 1935TIP3   OH2 5757   5.946   0.889   2.263 -0.0621 -0.2620  0.4916
 1935TIP3    H1 5758   5.997   0.930   2.193 -0.3084  0.0807  0.5070
 1935TIP3    H2 5759   5.979   0.929   2.344 -0.3979  0.0204  0.4961
 1936TIP3   OH2 5760   6.244   1.778   4.830 -0.5998  0.2513  0.2422
 1936TIP3    H1 5761   6.239   1.748   4.739  0.3925  0.5283  0.0939
 1936TIP3    H2 5762   6.173   1.842   4.838 -0.4717  0.4827 -0.4371
 1937TIP3   OH2 5763   2.409   0.648   1.873  0.5325  0.1771  0.0980
 1937TIP3    H1 5764   2.394   0.701   1.951 -0.7806  2.0124 -1.3420
 1937TIP3    H2 5765   2.502   0.627   1.876  0.8781  1.7366  1.2438
 1938TIP3   OH2 5766   0.957   6.754   3.911  0.0017  0.2106  0.3319
 1938TIP3    H1 5767   0.987   6.840   3.882  2.0506 -0.1191  1.3886
 1938TIP3    H2 5768   1.029   6.695   3.889 -1.5921 -1.3472 -0.8455
 1939TIP3   OH2 5769   5.344   3.903   1.961  0.2826  0.0642 -0.2061
 1939TIP3    H1 5770   5.410   3.897   2.030  0.1631  3.6134  0.2905
 1939TIP3    H2 5771   5.330   3.997   1.949 -2.1497 -0.5605 -2.7382
 1940TIP3   OH2 5772   3.681   0.528   3.120 -0.4317 -0.3757  0.3998
 1940TIP3    H1 5773   3.753   0.483   3.075  0.3673  0.6996  0.5721
 1940TIP3    H2 5774   3.602   0.502   3.073  0.1478 -1.0563 -0.1991
 1941TIP3   OH2 5775   6.907   2.132   3.839  0.5960 -0.4716  0.7826
 1941TIP3    H1 5776   6.959   2.074   3.784 -1.2870  0.1511 -1.7601
 1941TIP3    H2 5777   6.818   2.095   3.836 -0.1524  1.2308  0.9688
 1942TIP3   OH2 5778   4.783   3.748   2.291 -0.7814 -0.2403  0.4703
 1942TIP3    H1 5779   4.874   3.755   2.321 -1.1442 -0.0229  1.5472
 1942TIP3    H2 5780   4.751   3.667   2.332 -0.9755 -0.4829 -0.1650
 1943TIP3   OH2 5781   1.408   7.445   0.208  0.0854  0.7063 -0.8200
 1943TIP3    H1 5782   1.318   7.435   0.176 -0.7338  4.0893  0.2358
 1943TIP3    H2 5783   1.398   7.457   0.303  1.9221 -1.8184 -0.2396
 1944TIP3   OH2 5784   6.078   3.661   2.402 -0.1749 -0.1622 -0.3218
 1944TIP3    H1 5785   6.058   3.747   2.366 -0.7961 -0.8622 -1.6967
 1944TIP3    H2 5786   6.009   3.644   2.466  0.1553  0.5177  0.2084
 1945TIP3   OH2 5787   6.199   0.590   3.897 -0.3974  0.0795  0.5278
 1945TIP3    H1 5788   6.261   0.575   3.825  0.3135  0.3178  1.0905
 1945TIP3    H2 5789   6.249   0.640   3.961 -1.8713  2.3048 -0.0151
 1946TIP3   OH2 5790   4.221   0.843   5.060  1.1193  0.7778 -0.2138
 1946TIP3    H1 5791   4.253   0.808   4.977 -0.4121  1.1976 -0.9942
 1946TIP3    H2 5792   4.169   0.920   5.035  0.6339  0.8964  1.1251
 1947TIP3   OH2 5793   4.361   0.287   4.072 -0.5617  0.5650  0.4911
 1947TIP3    H1 5794   4.314   0.326   4.146  1.4067  2.6612  0.7223
 1947TIP3    H2 5795   4.376   0.361   4.013  0.9474 -0.3922 -0.3405
 1948TIP3   OH2 5796   6.853   1.333   5.397  0.0443 -0.0105 -0.4564
 1948TIP3    H1 5797   6.877   1.407   5.341  2.5478  0.5917  1.3283
 1948TIP3    H2 5798   6.764   1.310   5.370  0.4237  1.5972 -3.2214
 1949TIP3   OH2 5799   6.282   4.670   5.633 -0.0927 -0.2916 -0.3394
 1949TIP3    H1 5800   6.337   4.615   5.690 -0.0406  0.7310  0.6179
 1949TIP3    H2 5801   6.336   4.747   5.615 -1.0146  0.4702  0.1582
 1950TIP3   OH2 5802   4.429   0.882   3.153 -0.0220 -0.2087  0.2439
 1950TIP3    H1 5803   4.423   0.787   3.168 -0.3219 -0.4009 -1.0241
 1950TIP3    H2 5804   4.364   0.899   3.084  0.7828  0.7479 -0.2766
 1951TIP3   OH2 5805   3.533   1.876   2.518 -0.4526  0.0348 -0.0910
 1951TIP3    H1 5806   3.494   1.808   2.572  1.3516 -0.4720  0.5972
 1951TIP3    H2 5807   3.503   1.958   2.557 -1.2376 -0.3406  0.1061
 1952TIP3   OH2 5808   5.392   4.887   1.562  0.3368  0.5539 -0.1875
 1952TIP3    H1 5809   5.397   4.982   1.571 -0.7873  0.8025 -1.8787
 1952TIP3    H2 5810   5.301   4.869   1.538  0.1634 -1.1021  1.6005
 1953TIP3   OH2 5811   5.535   0.846   3.636  0.1647  0.6669 -0.9636
 1953TIP3    H1 5812   5.626   0.817   3.644 -0.1985 -0.4136 -0.7910
 1953TIP3    H2 5813   5.488   0.797   3.703 -0.6648  0.7383 -1.4898
 1954TIP3   OH2 5814   4.094   0.644   4.132  0.1186  0.4031  0.1883
 1954TIP3    H1 5815   4.153   0.684   4.196 -0.0662  0.3013  0.4187
 1954TIP3    H2 5816   4.125   0.678   4.048  1.8367 -1.2789  0.1186
 1955TIP3   OH2 5817   4.470   2.370   4.457  0.2805 -0.0784 -0.4386
 1955TIP3    H1 5818   4.488   2.399   4.546  0.0712  0.0099 -0.4238
 1955TIP3    H2 5819   4.450   2.276   4.465  0.8217 -0.1966 -0.4697
 1956TIP3   OH2 5820   5.793   0.353   1.315  0.2524 -0.2107  0.5211
 1956TIP3    H1 5821   5.751   0.388   1.394  0.3503 -0.9145  0.8846
 1956TIP3    H2 5822   5.740   0.387   1.243 -0.2515 -0.1325  0.9262
 1957TIP3   OH2 5823   5.176   1.040   3.603  0.2280 -0.2728 -0.0679
 1957TIP3    H1 5824   5.226   1.022   3.683  1.4119 -0.7539 -0.8940
 1957TIP3    H2 5825   5.230   1.104   3.555 -1.7367  2.0288  0.7234
 1958TIP3   OH2 5826   7.307   2.165   3.922 -0.3737  0.3993  0.1125
 1958TIP3    H1 5827   7.399   2.172   3.897 -0.8199  1.4104 -1.3712
 1958TIP3    H2 5828   7.287   2.250   3.961 -0.6394  0.1380  0.5361
 1959TIP3   OH2 5829   3.867   1.409   4.285  0.2635  0.1487 -0.2867
 1959TIP3    H1 5830   3.903   1.495   4.263  1.1920 -0.1114  0.2162
 1959TIP3    H2 5831   3.773   1.419   4.272  0.1862  1.6970  1.2441
 1960TIP3   OH2 5832   6.268   2.269   4.510 -0.2442 -0.0073 -0.0352
 1960TIP3    H1 5833   6.328   2.227   4.449 -0.9140 -0.5107 -0.3659
 1960TIP3    H2 5834   6.196   2.300   4.455 -0.1370  0.8664  0.3145
 1961TIP3   OH2 5835   3.284   0.051   5.631  0.3251 -0.1643  0.4266
 1961TIP3    H1 5836   3.190   0.061   5.615  0.0667 -2.0556  0.6915
 1961TIP3    H2 5837   3.323   0.132   5.598 -1.1217 -0.4353 -2.0483
 1962TIP3   OH2 5838   6.734   1.256   4.339  0.1117 -0.2861  0.2781
 1962TIP3    H1 5839   6.655   1.305   4.319  0.4401 -0.0560 -0.4621
 1962TIP3    H2 5840   6.804   1.302   4.292  0.2057 -2.2783 -1.5876
 1963TIP3   OH2 5841   4.346   1.096   4.243  0.6141 -0.1893  0.1616
 1963TIP3    H1 5842   4.292   1.167   4.209 -1.2887 -1.1497  1.1110
 1963TIP3    H2 5843   4.312   1.078   4.330  1.5392 -1.7613  0.2301
 1964TIP3   OH2 5844   4.924   2.707   0.124 -0.2320 -0.3477  0.2379
 1964TIP3    H1 5845   5.017   2.705   0.149 -0.4992 -0.4802  1.2519
 1964TIP3    H2 5846   4.922   2.756   0.042  0.7137 -0.1400  0.3349
 1965TIP3   OH2 5847   2.094   0.991   0.717  0.2438 -0.2984  0.1545
 1965TIP3    H1 5848   2.148   0.913   0.711  2.7729  1.0629  3.3914
 1965TIP3    H2 5849   2.032   0.972   0.788  0.1394  0.2122  0.2037
 1966TIP3   OH2 5850   3.388   1.302   4.794  0.2307  0.2772  0.7397
 1966TIP3    H1 5851   3.472   1.347   4.789  0.5162 -0.3880 -0.7193
 1966TIP3    H2 5852   3.364   1.284   4.703 -0.4326 -1.4603  1.2289
 1967TIP3   OH2 5853   6.623   2.066   3.819  0.0755 -0.5207  0.6758
 1967TIP3    H1 5854   6.647   1.986   3.773  0.0597 -1.5249  2.3966
 1967TIP3    H2 5855   6.545   2.044   3.869 -0.7588  0.9713  0.0878
 1968TIP3   OH2 5856   3.502   0.425   4.235 -0.0896  0.1491  0.8791
 1968TIP3    H1 5857   3.426   0.374   4.265 -0.9096  1.0393  0.3520
 1968TIP3    H2 5858   3.569   0.410   4.301 -0.2271 -1.8432  0.5827
 1969TIP3   OH2 5859   5.316   0.689   3.434  0.8983  0.0620 -0.7806
 1969TIP3    H1 5860   5.358   0.775   3.424 -0.9411  0.8527 -2.0507
 1969TIP3    H2 5861   5.340   0.641   3.355 -1.0576  0.7597 -1.8415
 1970TIP3   OH2 5862   5.160   2.582   2.511 -0.0671  0.9256 -0.4990
 1970TIP3    H1 5863   5.182   2.634   2.434  1.0677  0.2043 -0.6777
 1970TIP3    H2 5864   5.073   2.548   2.494  0.5542  0.0018 -1.8833
 1971TIP3   OH2 5865   5.248   1.443   0.757 -0.2277 -0.2073  0.4057
 1971TIP3    H1 5866   5.339   1.423   0.776 -0.3205  1.1059  2.3761
 1971TIP3    H2 5867   5.250   1.491   0.674  0.7730 -0.9306  0.0122
 1972TIP3   OH2 5868   0.445   1.412   1.774 -0.5940 -0.1565 -0.3269
 1972TIP3    H1 5869   0.385   1.353   1.730 -0.3012 -0.6494 -0.0784
 1972TIP3    H2 5870   0.484   1.358   1.844  0.8435 -0.1250 -1.0871
 1973TIP3   OH2 5871   2.216   5.444   3.618 -0.2049 -0.1572 -0.0909
 1973TIP3    H1 5872   2.284   5.496   3.576  0.0993 -1.6828 -1.5302
 1973TIP3    H2 5873   2.139   5.500   3.618  0.6754  1.0679  0.3079
 1974TIP3   OH2 5874   5.139   0.602   5.967 -0.2431  0.3136 -0.0404
 1974TIP3    H1 5875   5.071   0.536   5.955  1.3065 -1.0885 -1.3519
 1974TIP3    H2 5876   5.191   0.570   6.040  2.5051 -1.7320 -2.7660
 1975TIP3   OH2 5877   5.043   0.689   0.808  0.0978  0.1008 -0.1266
 1975TIP3    H1 5878   5.074   0.745   0.880 -3.0680  0.4161  1.0907
 1975TIP3    H2 5879   5.005   0.613   0.852  3.0749 -2.3860 -1.7224
 1976TIP3   OH2 5880   3.463   0.431   3.013 -0.0881 -0.2488  0.4034
 1976TIP3    H1 5881   3.369   0.416   3.005 -0.2499  0.2365  1.3634
 1976TIP3    H2 5882   3.487   0.478   2.933 -0.6887 -0.1967  0.2535
 1977TIP3   OH2 5883   2.640   6.652   4.097 -0.3104  0.0992 -0.4001
 1977TIP3    H1 5884   2.605   6.728   4.048 -1.5558 -0.7091 -0.7916
 1977TIP3    H2 5885   2.599   6.577   4.055  0.0640 -0.7260  0.7134
 1978TIP3   OH2 5886   1.203   7.360   4.859  0.0364 -0.7572  0.2708
 1978TIP3    H1 5887   1.181   7.272   4.892 -1.0318  0.0403  1.7627
 1978TIP3    H2 5888   1.150   7.369   4.780 -2.4991 -0.1796  1.9764
 1979TIP3   OH2 5889   5.767   0.862   2.624  0.1834  0.0696  0.0954
 1979TIP3    H1 5890   5.696   0.867   2.688 -0.4235 -1.0145 -0.4742
 1979TIP3    H2 5891   5.729   0.813   2.551  1.8203 -1.3775  0.1912
 1980TIP3   OH2 5892   2.046   6.918   5.213  0.1254 -0.2961  0.2575
 1980TIP3    H1 5893   1.964   6.868   5.204 -0.7362  0.5771  2.6714
 1980TIP3    H2 5894   2.092   6.874   5.285  1.0331  0.2077 -0.0196
 1981TIP3   OH2 5895   4.480   0.662   0.409  0.5772  0.5527  0.0860
 1981TIP3    H1 5896   4.488   0.587   0.468 -0.4731 -0.2905 -0.8189
 1981TIP3    H2 5897   4.568   0.700   0.405  0.3447  1.6814  3.5436
 1982TIP3   OH2 5898   4.780   6.271   4.354 -0.2908 -0.8063  0.1433
 1982TIP3    H1 5899   4.831   6.194   4.328  0.3573 -0.2750 -0.1705
 1982TIP3    H2 5900   4.831   6.345   4.321 -0.8866 -0.2425  0.4945
 1983TIP3   OH2 5901   4.674   1.671   4.253  0.5085  0.2405 -0.0423
 1983TIP3    H1 5902   4.746   1.707   4.201  0.4399 -1.9390 -1.7260
 1983TIP3    H2 5903   4.604   1.655   4.190 -1.0203  1.1948  1.3789
 1984TIP3   OH2 5904   5.042   0.833   3.828 -0.2397  0.0015  0.7218
 1984TIP3    H1 5905   5.022   0.821   3.735  1.7774 -0.7034  0.3650
 1984TIP3    H2 5906   5.013   0.751   3.869  1.7371 -0.9932  0.2126
 1985TIP3   OH2 5907   1.118   6.578   3.747 -0.4540 -0.0875  0.1770
 1985TIP3    H1 5908   1.059   6.619   3.684 -0.3110  0.7104  0.5546
 1985TIP3    H2 5909   1.103   6.484   3.736 -0.9648  0.0708 -0.5257
 1986TIP3   OH2 5910   6.791   4.698   6.197 -0.4358  0.1652 -0.7289
 1986TIP3    H1 5911   6.858   4.766   6.186 -0.5377  0.2707 -0.6984
 1986TIP3    H2 5912   6.840   4.616   6.200 -0.1449  0.3819  1.1174
 1987TIP3   OH2 5913   0.021   6.855   4.886 -0.5794  0.4809 -0.1837
 1987TIP3    H1 5914  -0.008   6.942   4.860 -0.3865  0.7489  0.4739
 1987TIP3    H2 5915   0.050   6.813   4.805  0.6576  1.5374 -0.3021
 1988TIP3   OH2 5916   2.751   6.920   3.162 -0.5564  0.3044  0.4876
 1988TIP3    H1 5917   2.824   6.929   3.101 -1.0990 -1.6155 -0.4831
 1988TIP3    H2 5918   2.770   6.840   3.211 -1.2465  0.6158  1.2772
 1989TIP3   OH2 5919   2.063   1.178   3.104  0.3356 -0.3904 -0.1942
 1989TIP3    H1 5920   2.095   1.091   3.079  0.7923 -0.7739  1.6150
 1989TIP3    H2 5921   2.142   1.230   3.116  0.1429 -0.2670  0.5748
 1990TIP3   OH2 5922   4.800   1.551   2.571 -0.0377 -0.3926  0.8248
 1990TIP3    H1 5923   4.763   1.534   2.658 -0.2693 -1.3989  0.5334
 1990TIP3    H2 5924   4.894   1.555   2.585 -0.1742  1.3231  1.4304
 1991TIP3   OH2 5925   3.798   0.617   5.768 -0.0239  0.0117  0.4508
 1991TIP3    H1 5926   3.794   0.537   5.820 -0.3668  0.3976  1.0264
 1991TIP3    H2 5927   3.811   0.587   5.678  0.0165 -0.6818  0.6853
 1992TIP3   OH2 5928   6.430   3.426   3.669 -0.4019  0.3193  0.3438
 1992TIP3    H1 5929   6.379   3.413   3.749  0.8898  0.8452  1.2646
 1992TIP3    H2 5930   6.368   3.466   3.608 -1.0556  1.1294  1.5099
 1993TIP3   OH2 5931   4.816   2.635   3.218 -0.5647 -0.2477  0.3262
 1993TIP3    H1 5932   4.729   2.673   3.200 -0.1394  0.7490  0.3494
 1993TIP3    H2 5933   4.854   2.694   3.283  0.0838 -0.7614  0.4085
 1994TIP3   OH2 5934   2.062   7.033   3.214 -0.2224  0.2103 -0.4176
 1994TIP3    H1 5935   2.002   7.086   3.266 -1.4930  0.6056 -2.2432
 1994TIP3    H2 5936   2.094   7.092   3.146 -0.8632 -1.0424 -1.8541
 1995TIP3   OH2 5937   3.515   7.177   4.456  0.4299  0.6395  0.2065
 1995TIP3    H1 5938   3.427   7.205   4.482  0.8544  0.6664  1.6469
 1995TIP3    H2 5939   3.557   7.257   4.424 -1.0419  0.0942 -3.4178
 1996TIP3   OH2 5940   4.440   1.137   1.888 -0.3290  0.2192 -0.2668
 1996TIP3    H1 5941   4.492   1.103   1.815 -0.5389 -0.5966 -0.0414
 1996TIP3    H2 5942   4.401   1.218   1.854  0.9000  0.7216 -0.5089
 1997TIP3   OH2 5943   3.971   1.214   4.456 -0.0550  0.2658  0.8620
 1997TIP3    H1 5944   3.940   1.289   4.406  1.0953  1.0694  1.3291
 1997TIP3    H2 5945   4.059   1.239   4.485 -0.3216 -0.5897  2.4511
 1998TIP3   OH2 5946   2.949   6.967   4.564  0.0698  0.4091 -0.4921
 1998TIP3    H1 5947   2.983   7.020   4.636 -1.7674  1.1308 -0.1203
 1998TIP3    H2 5948   2.924   6.884   4.606  1.3822 -0.1312 -0.7696
 1999TIP3   OH2 5949   2.688   1.214   2.264 -0.0517  0.1702 -0.4354
 1999TIP3    H1 5950   2.722   1.243   2.179  1.0257 -1.9217 -0.7606
 1999TIP3    H2 5951   2.593   1.209   2.251  0.0996 -0.1124 -1.5171
 2000TIP3   OH2 5952   4.846   0.429   0.284 -0.1105 -0.5334  0.4011
 2000TIP3    H1 5953   4.757   0.444   0.315  0.2077  0.9968  0.6112
 2000TIP3    H2 5954   4.899   0.423   0.363  0.5091  2.1611  0.2576
 2001TIP3   OH2 5955   3.183   7.289   3.414 -0.2791 -0.7898  0.3240
 2001TIP3    H1 5956   3.137   7.344   3.351  0.6798 -1.5292 -1.0472
 2001TIP3    H2 5957   3.118   7.225   3.443 -0.6431 -0.6164 -0.1140
 2002TIP3   OH2 5958   2.060   3.622   1.667 -0.1192 -0.1001  0.2032
 2002TIP3    H1 5959   1.968   3.635   1.643 -0.9574  0.9941  3.8048
 2002TIP3    H2 5960   2.096   3.572   1.594 -3.9687 -2.0293 -0.5134
 2003TIP3   OH2 5961   3.915   2.826   3.441 -0.3766 -0.1720 -0.0770
 2003TIP3    H1 5962   3.846   2.892   3.443 -1.9392 -1.7960 -0.0653
 2003TIP3    H2 5963   3.934   2.808   3.533 -0.3398 -0.1608 -0.0821
 2004TIP3   OH2 5964   3.620   0.931   1.952 -0.2649  0.0833  0.0614
 2004TIP3    H1 5965   3.688   0.987   1.914  0.7708 -0.5337  0.9507
 2004TIP3    H2 5966   3.553   0.926   1.885  0.4514  0.9366 -0.7369
 2005TIP3   OH2 5967   7.014   1.510   0.664  0.3687  0.3989  0.2267
 2005TIP3    H1 5968   7.089   1.457   0.690  0.1755 -0.0832 -0.1896
 2005TIP3    H2 5969   6.993   1.562   0.741 -1.2413 -2.1973  1.5661
 2006TIP3   OH2 5970   5.337   1.084   3.815 -0.7100 -0.0923  0.2978
 2006TIP3    H1 5971   5.352   1.037   3.897 -0.1201 -1.2200 -0.4571
 2006TIP3    H2 5972   5.289   1.163   3.842 -0.6743 -0.5325  1.7040
 2007TIP3   OH2 5973   6.921   0.219   4.206 -0.2553  0.3088 -0.0388
 2007TIP3    H1 5974   6.850   0.158   4.225 -0.5246  0.5426 -0.2881
 2007TIP3    H2 5975   6.994   0.188   4.259  0.1029 -1.1895 -1.3648
 2008TIP3   OH2 5976   6.558  -0.030   1.258 -0.2668 -0.1158  0.0021
 2008TIP3    H1 5977   6.602   0.013   1.331 -0.3761 -0.9959  0.5931
 2008TIP3    H2 5978   6.529   0.042   1.202  1.1109  0.5173  0.0738
 2009TIP3   OH2 5979   6.392   4.507   6.363 -0.0322  0.5652  0.1431
 2009TIP3    H1 5980   6.473   4.548   6.334  1.0991 -0.2321  2.1219
 2009TIP3    H2 5981   6.351   4.572   6.420  0.0839  0.2560  0.5745
 2010TIP3   OH2 5982   4.766   0.379   4.249  0.1810 -0.0387 -1.0244
 2010TIP3    H1 5983   4.697   0.316   4.228  1.6322 -1.8186 -0.6136
 2010TIP3    H2 5984   4.744   0.456   4.197 -2.3258 -0.4087 -0.6073
 2011TIP3   OH2 5985   5.561   5.906   4.252 -0.4062  0.2801 -0.9983
 2011TIP3    H1 5986   5.496   5.971   4.276 -0.3248  0.8931 -2.4030
 2011TIP3    H2 5987   5.562   5.845   4.326 -0.5972  1.7668  0.2662
 2012TIP3   OH2 5988   7.279   0.075   2.984  0.1613  0.2304 -0.0520
 2012TIP3    H1 5989   7.185   0.065   3.002  0.2822 -2.0689 -0.5525
 2012TIP3    H2 5990   7.318   0.095   3.069 -0.5246 -0.8475  0.5260
 2013TIP3   OH2 5991   5.609   1.110   2.816  0.0816 -0.5906 -0.5463
 2013TIP3    H1 5992   5.548   1.042   2.786 -1.8491  0.4615  0.8549
 2013TIP3    H2 5993   5.631   1.159   2.737 -1.1404 -0.8135 -1.0436
 2014TIP3   OH2 5994   7.680   4.001   6.222  0.4166  0.3756  0.1416
 2014TIP3    H1 5995   7.615   3.933   6.204 -0.4535  0.8727  1.3877
 2014TIP3    H2 5996   7.695   3.996   6.316  2.0831  0.3696 -0.1060
 2015TIP3   OH2 5997   5.487   0.893   3.368 -0.5090 -0.0136  0.0711
 2015TIP3    H1 5998   5.454   0.983   3.377 -1.4668 -0.3725  0.2552
 2015TIP3    H2 5999   5.508   0.866   3.457 -0.2153  0.0352  0.0150
 2016TIP3   OH2 6000   6.750   0.525   5.053 -0.4590 -0.1405 -0.2515
 2016TIP3    H1 6001   6.813   0.539   5.124  0.7537  3.2088 -1.9072
 2016TIP3    H2 6002   6.666   0.552   5.090 -0.4171 -1.4924  0.9033
 2017TIP3   OH2 6003   3.998   7.120   3.523  0.2157  0.0184  0.0623
 2017TIP3    H1 6004   4.091   7.098   3.512  0.3729  0.2538  0.8665
 2017TIP3    H2 6005   3.991   7.148   3.615 -0.9648 -1.5982  0.4926
 2018TIP3   OH2 6006   6.304   1.076   3.873 -0.2035  0.3218 -0.8027
 2018TIP3    H1 6007   6.290   1.117   3.958 -1.9449 -0.2443 -0.7952
 2018TIP3    H2 6008   6.366   1.005   3.890 -1.7198 -0.7818  0.3226
 2019TIP3   OH2 6009   6.808   0.758   2.629 -0.0912 -0.4444 -0.8030
 2019TIP3    H1 6010   6.896   0.759   2.591  1.0060 -1.0816  1.6321
 2019TIP3    H2 6011   6.778   0.668   2.618  0.3546 -0.7076  0.0928
 2020TIP3   OH2 6012   6.257   1.086   2.662  0.1782 -1.4716  0.4390
 2020TIP3    H1 6013   6.278   0.996   2.638  1.6476 -1.8386  2.8702
 2020TIP3    H2 6014   6.333   1.138   2.633  0.1109 -1.2904  0.5825
 2021TIP3   OH2 6015   6.580   0.749   1.250  0.5969 -0.3553 -0.1367
 2021TIP3    H1 6016   6.632   0.718   1.324  1.3839  0.4591 -0.3526
 2021TIP3    H2 6017   6.635   0.734   1.173  0.1417 -0.3619 -0.4676
 2022TIP3   OH2 6018   0.498   1.603   1.365 -0.5825  0.4677  0.4347
 2022TIP3    H1 6019   0.502   1.664   1.292 -4.1685 -0.1109 -0.3354
 2022TIP3    H2 6020   0.499   1.516   1.324 -1.0094  0.1107  1.1696
 2023TIP3   OH2 6021   3.332   7.288   1.693  0.5165 -0.4919 -0.1226
 2023TIP3    H1 6022   3.295   7.325   1.773  2.0964  1.6525 -0.3269
 2023TIP3    H2 6023   3.271   7.315   1.624  1.5303  1.6645 -0.2370
 2024TIP3   OH2 6024   5.160   7.090   4.886  0.1754 -0.1826 -0.4862
 2024TIP3    H1 6025   5.200   7.156   4.943  1.3551 -0.6830 -0.7189
 2024TIP3    H2 6026   5.203   7.102   4.801 -0.4387 -0.4863 -0.8404
 2025TIP3   OH2 6027   6.436   1.378   0.691  0.0482 -0.0038  0.4125
 2025TIP3    H1 6028   6.521   1.375   0.646  0.2438  1.8583  0.5931
 2025TIP3    H2 6029   6.405   1.288   0.691  1.4707 -0.5135 -0.7412
 2026TIP3   OH2 6030   6.447   2.162   3.478 -0.3278  0.1232  0.0092
 2026TIP3    H1 6031   6.464   2.078   3.522  2.2954  0.4710 -0.2803
 2026TIP3    H2 6032   6.395   2.212   3.541 -1.5701 -1.5330  0.3571
 2027TIP3   OH2 6033   6.926   1.534   2.555  0.4962  0.0698 -0.1796
 2027TIP3    H1 6034   6.992   1.567   2.616  0.3777 -1.2484  0.6791
 2027TIP3    H2 6035   6.970   1.465   2.506 -0.0921 -0.4855  0.0579
 2028TIP3   OH2 6036   6.319   3.548   2.952 -0.1142  0.1763  0.2856
 2028TIP3    H1 6037   6.320   3.635   2.912  0.5842  0.0318 -0.0247
 2028TIP3    H2 6038   6.381   3.497   2.899 -0.8708 -0.6385  0.1779
 2029TIP3   OH2 6039   6.203   1.295   2.281  0.1333  0.5298  0.0060
 2029TIP3    H1 6040   6.198   1.284   2.376 -1.5966  1.3126  0.0222
 2029TIP3    H2 6041   6.173   1.384   2.265 -1.8849 -0.3710 -1.4524
 2030TIP3   OH2 6042   5.909   1.052   3.371 -0.1957  0.3704  0.2323
 2030TIP3    H1 6043   5.961   1.120   3.413 -1.0730  0.8820  0.5010
 2030TIP3    H2 6044   5.836   1.099   3.331 -0.3588 -0.3222 -0.2906
 2031TIP3   OH2 6045   4.961   0.918   1.801 -0.3501  0.5130 -0.2678
 2031TIP3    H1 6046   4.949   1.010   1.776 -1.8006  0.1586 -0.9300
 2031TIP3    H2 6047   5.055   0.910   1.816  0.0360  1.7214 -1.8149
 2032TIP3   OH2 6048   6.718   2.730   3.695 -0.3062 -0.1551 -0.3296
 2032TIP3    H1 6049   6.622   2.724   3.688 -0.1403 -2.0095 -1.3520
 2032TIP3    H2 6050   6.750   2.650   3.654  1.5828 -0.8689  2.3905
 2033TIP3   OH2 6051   3.738   0.397   1.940 -0.3838 -0.1216  0.2119
 2033TIP3    H1 6052   3.739   0.355   2.026  3.6457 -0.5252  0.0662
 2033TIP3    H2 6053   3.739   0.491   1.959  1.3725 -0.2058  0.6887
 2034TIP3   OH2 6054   2.833   7.112   2.807 -0.2353  0.0152 -0.4216
 2034TIP3    H1 6055   2.811   7.183   2.868 -2.3825  1.0406 -2.2957
 2034TIP3    H2 6056   2.805   7.145   2.721  1.0396 -2.1226 -1.7024
 2035TIP3   OH2 6057   4.973   3.276   2.121  0.1336 -0.6142 -0.0734
 2035TIP3    H1 6058   4.992   3.195   2.170  0.8215  0.4715  1.4975
 2035TIP3    H2 6059   4.902   3.317   2.170  1.1051  0.6926  0.2675
 2036TIP3   OH2 6060   3.530   7.334   2.406 -0.0517 -0.2742 -0.3231
 2036TIP3    H1 6061   3.527   7.294   2.319 -1.8239 -1.6548  0.3410
 2036TIP3    H2 6062   3.443   7.373   2.418  0.0937 -0.2860  0.8939
 2037TIP3   OH2 6063   6.864   0.987   1.965 -0.5174  0.1753 -0.2324
 2037TIP3    H1 6064   6.937   1.046   1.987  0.7555 -1.1647 -0.7509
 2037TIP3    H2 6065   6.852   0.935   2.045 -0.1177 -0.3886 -0.5340
 2038TIP3   OH2 6066   5.176   1.278   4.007  0.2234 -0.0844 -0.2666
 2038TIP3    H1 6067   5.245   1.342   3.990  2.2989 -1.5012  2.4083
 2038TIP3    H2 6068   5.097   1.330   4.022  1.2137  1.6698 -1.0428
 2039TIP3   OH2 6069   5.694   0.289   2.853  0.1398  1.0482 -0.2592
 2039TIP3    H1 6070   5.776   0.339   2.852  0.4857  0.4704 -0.7461
 2039TIP3    H2 6071   5.720   0.199   2.834 -0.3449  0.4635  1.6516
 2040TIP3   OH2 6072   4.502   2.607   2.665 -0.0680  0.2919 -0.6941
 2040TIP3    H1 6073   4.571   2.607   2.598 -0.6840 -2.5605 -1.4107
 2040TIP3    H2 6074   4.547   2.580   2.745  0.3498  2.1322 -0.2793
 2041TIP3   OH2 6075   4.043   7.008   1.539 -0.3826  0.0037 -0.1947
 2041TIP3    H1 6076   4.098   7.011   1.461 -1.6839  2.4896 -1.0665
 2041TIP3    H2 6077   3.972   7.069   1.521 -2.6601 -2.0637  1.5123
 2042TIP3   OH2 6078   5.594   1.439   3.546 -0.7166  0.0088  0.2820
 2042TIP3    H1 6079   5.532   1.507   3.573 -1.1461  1.1538 -3.3693
 2042TIP3    H2 6080   5.538   1.367   3.515 -0.2615  0.2851 -1.2086
 2043TIP3   OH2 6081   0.453   0.542   0.605 -0.4183 -0.0735  0.6025
 2043TIP3    H1 6082   0.472   0.457   0.566 -0.3382  0.3695 -0.3365
 2043TIP3    H2 6083   0.386   0.524   0.671  1.1567 -1.2001  1.9344
 2044TIP3   OH2 6084   0.726   0.894   5.309  0.1023 -0.0516 -0.4622
 2044TIP3    H1 6085   0.818   0.899   5.336 -0.2273  0.6566  0.5611
 2044TIP3    H2 6086   0.686   0.834   5.372 -0.7615  1.9223  0.9260
 2045TIP3   OH2 6087   5.007   0.293   1.637 -0.0218  0.0305  0.2745
 2045TIP3    H1 6088   5.090   0.293   1.685  1.6202 -2.1820 -2.4345
 2045TIP3    H2 6089   4.990   0.200   1.619 -0.4175  0.7861 -3.6323
 2046TIP3   OH2 6090   3.836   6.430   2.880  0.5159  0.0192 -0.2344
 2046TIP3    H1 6091   3.755   6.441   2.829  1.3365  0.0958 -1.5188
 2046TIP3    H2 6092   3.904   6.470   2.827  1.2261  1.0161  1.3903
 2047TIP3   OH2 6093   0.723   0.281   1.029  0.0222  0.0221  0.0066
 2047TIP3    H1 6094   0.639   0.236   1.024 -0.6309  1.1249  0.7599
 2047TIP3    H2 6095   0.739   0.291   1.123 -0.3228  2.1909 -0.1230
 2048TIP3   OH2 6096   5.713   2.366   4.927 -0.6435  0.0094 -0.4962
 2048TIP3    H1 6097   5.784   2.422   4.896  0.0082 -1.9009 -2.6359
 2048TIP3    H2 6098   5.722   2.366   5.022  0.5654  1.9162 -0.5828
 2049TIP3   OH2 6099   1.895   6.488   4.494 -0.4062  0.3901 -0.3888
 2049TIP3    H1 6100   1.831   6.556   4.472  0.3407  1.7783  1.6224
 2049TIP3    H2 6101   1.978   6.522   4.461 -0.5066 -0.9865 -2.1569
 2050TIP3   OH2 6102   1.860   6.747   3.211  0.2704  0.7314 -0.1809
 2050TIP3    H1 6103   1.906   6.711   3.287 -0.4495 -0.8936 -0.5045
 2050TIP3    H2 6104   1.930   6.781   3.155  0.8756  0.9048  0.6696
 2051TIP3   OH2 6105   4.366   7.382   4.894 -0.0488 -0.0973 -0.7898
 2051TIP3    H1 6106   4.385   7.465   4.936  1.4603 -0.7728 -0.0704
 2051TIP3    H2 6107   4.271   7.373   4.898 -0.0758  0.7644  0.7000
 2052TIP3   OH2 6108   3.515   6.979   3.669 -0.6400 -0.2940 -0.1470
 2052TIP3    H1 6109   3.602   6.941   3.662 -1.5386 -2.9690  2.4942
 2052TIP3    H2 6110   3.455   6.907   3.651 -2.3332  0.9313  0.4290
 2053TIP3   OH2 6111   4.903   2.649   2.753 -0.0540 -0.2226 -0.1882
 2053TIP3    H1 6112   4.883   2.625   2.844  1.0728  0.2650  0.1977
 2053TIP3    H2 6113   4.970   2.717   2.760 -0.7644  0.6207 -1.3648
 2054TIP3   OH2 6114   7.622   0.250   3.085 -0.0674 -0.8622 -0.2767
 2054TIP3    H1 6115   7.706   0.294   3.078 -1.1451  1.3186 -0.0675
 2054TIP3    H2 6116   7.643   0.158   3.103  2.2554 -0.6349 -1.6944
 2055TIP3   OH2 6117   4.014   7.219   3.281  0.0241  0.5054 -0.3790
 2055TIP3    H1 6118   3.989   7.230   3.373 -2.2636  2.7721 -1.2192
 2055TIP3    H2 6119   3.979   7.134   3.256 -2.7395  1.5718 -0.2090
 2056TIP3   OH2 6120   7.903   3.030   1.610  0.1157 -0.1202  0.4175
 2056TIP3    H1 6121   7.887   2.975   1.687 -2.6000  1.0203  0.7254
 2056TIP3    H2 6122   7.893   3.120   1.642 -1.3016  0.3587 -1.2848
 2057TIP3   OH2 6123   6.728   0.498   2.644  0.5343  0.1893  0.1225
 2057TIP3    H1 6124   6.633   0.497   2.657  0.5214 -0.4098 -0.0099
 2057TIP3    H2 6125   6.752   0.406   2.636  0.8844  0.4136 -1.6122
 2058TIP3   OH2 6126   5.061   0.517   3.127  0.0223  0.7545 -0.2894
 2058TIP3    H1 6127   5.113   0.594   3.152  0.2135  0.8270 -0.9096
 2058TIP3    H2 6128   5.101   0.486   3.046 -0.4492  0.3780 -0.3797
 2059TIP3   OH2 6129   4.876   0.488   0.908 -0.9302 -0.2063  0.0572
 2059TIP3    H1 6130   4.845   0.400   0.889  0.4371 -0.3097 -1.8245
 2059TIP3    H2 6131   4.947   0.476   0.970  1.4902 -0.7766 -2.6871
 2060TIP3   OH2 6132   6.518   0.041   1.967 -0.1085 -0.0115 -0.4459
 2060TIP3    H1 6133   6.563  -0.009   2.036 -1.0143 -2.7801 -1.8064
 2060TIP3    H2 6134   6.437   0.071   2.009  0.0560 -0.3696  0.1410
 2061TIP3   OH2 6135   0.128   1.177   1.440 -0.7471  0.1029 -0.0180
 2061TIP3    H1 6136   0.172   1.110   1.388 -0.2052  0.4307  0.0166
 2061TIP3    H2 6137   0.075   1.225   1.377 -2.5737 -1.5069  0.2382
 2062TIP3   OH2 6138   7.409   2.407   2.659  0.2566  0.3336 -0.3355
 2062TIP3    H1 6139   7.504   2.399   2.659  0.2257 -0.1521 -1.9012
 2062TIP3    H2 6140   7.383   2.374   2.745  1.4035 -0.9201 -0.4388
 2063TIP3   OH2 6141   6.288   0.277   1.854 -0.0056 -0.1175  0.1883
 2063TIP3    H1 6142   6.199   0.294   1.885  0.1480  0.6413  0.2021
 2063TIP3    H2 6143   6.344   0.326   1.914  0.5136 -1.7559  1.0833
 2064TIP3   OH2 6144   3.784   7.399   3.044  0.5054  0.1872  0.2477
 2064TIP3    H1 6145   3.772   7.435   3.132  1.6984  0.9968  0.0844
 2064TIP3    H2 6146   3.874   7.367   3.042 -0.5387 -2.9554  0.4200
 2065TIP3   OH2 6147   5.964   0.377   5.789 -0.0048  0.4831 -0.4613
 2065TIP3    H1 6148   5.869   0.381   5.775  0.0871  1.8182 -0.7867
 2065TIP3    H2 6149   5.976   0.397   5.882  0.0448  1.9064 -0.7581
 2066TIP3   OH2 6150   7.485   1.608   2.393 -0.1718  0.0463  0.1412
 2066TIP3    H1 6151   7.525   1.695   2.389 -1.9834  1.1618  3.6539
 2066TIP3    H2 6152   7.419   1.608   2.324 -0.7800  1.8354  0.6899
 2067TIP3   OH2 6153   5.880   0.082   2.919  0.2497  0.5185  0.2700
 2067TIP3    H1 6154   5.926   0.021   2.976  1.8884  0.0345 -1.4959
 2067TIP3    H2 6155   5.896   0.168   2.957  1.2189  0.1979  0.6030
 2068TIP3   OH2 6156   6.830   0.328   0.516  0.4703  0.3490  0.1524
 2068TIP3    H1 6157   6.793   0.240   0.510  0.7600  0.2253  0.1675
 2068TIP3    H2 6158   6.758   0.382   0.547 -0.4602  0.6421 -2.4992
 2069TIP3   OH2 6159   7.147   0.398   2.785 -0.1856 -0.5449  0.4668
 2069TIP3    H1 6160   7.218   0.360   2.835 -0.0960  0.2646  0.9504
 2069TIP3    H2 6161   7.135   0.486   2.821 -0.7784 -0.3191 -0.2572
 2070TIP3   OH2 6162   4.555   0.094   3.206 -0.6686  0.1792  0.4199
 2070TIP3    H1 6163   4.491   0.091   3.278  0.3763 -0.0496  1.3417
 2070TIP3    H2 6164   4.571   0.002   3.184  1.1620  0.1269  1.8334
 2071TIP3   OH2 6165   6.671   2.207   5.423  0.0612 -0.0119 -0.1726
 2071TIP3    H1 6166   6.613   2.244   5.489 -0.7925 -1.8434  0.1532
 2071TIP3    H2 6167   6.739   2.162   5.473  1.2074  1.2466 -0.5584
 2072TIP3   OH2 6168   7.770   1.385   2.079 -0.0333 -0.3297  0.6280
 2072TIP3    H1 6169   7.797   1.326   2.009  1.4319  0.3689  0.5925
 2072TIP3    H2 6170   7.763   1.329   2.156  0.9760 -0.6229  0.5136
 2073TIP3   OH2 6171   0.409   2.385   2.112  0.4387 -0.1844  0.5464
 2073TIP3    H1 6172   0.480   2.344   2.063 -1.4134 -0.2073 -2.2753
 2073TIP3    H2 6173   0.425   2.479   2.103  0.1565 -0.1894 -0.1015
 2074TIP3   OH2 6174   1.270   1.020   2.813 -0.4025  0.0391  0.0545
 2074TIP3    H1 6175   1.290   0.962   2.887  0.8733  0.2611 -0.0935
 2074TIP3    H2 6176   1.181   1.051   2.830 -0.6460 -1.0091  0.7661
 2075TIP3   OH2 6177   6.608   0.407   2.118 -0.4782  0.5296  0.2975
 2075TIP3    H1 6178   6.517   0.417   2.089 -0.3615 -1.7726 -1.0298
 2075TIP3    H2 6179   6.601   0.364   2.203 -0.6057 -0.7296 -0.3458
 2076TIP3   OH2 6180   4.206   2.847   3.469 -0.4256 -0.0088  0.0350
 2076TIP3    H1 6181   4.275   2.787   3.443 -0.5805  0.2074 -0.9031
 2076TIP3    H2 6182   4.128   2.815   3.424 -0.4959  0.9254 -0.5065
 2077TIP3   OH2 6183   5.977   0.107   0.665 -0.3093  0.2252  0.8435
 2077TIP3    H1 6184   6.019   0.041   0.609  0.3467  0.1476  1.4267
 2077TIP3    H2 6185   5.913   0.058   0.716 -0.0720  0.0921  1.0176
 2078TIP3   OH2 6186   6.195   2.134   1.019  0.2248  0.3155 -0.1787
 2078TIP3    H1 6187   6.253   2.135   0.943 -0.0075 -1.2796 -0.4125
 2078TIP3    H2 6188   6.130   2.202   1.001 -0.2148 -0.4767 -1.7466
 2079TIP3   OH2 6189   5.452   1.863   1.587 -0.0667  0.1189 -0.3660
 2079TIP3    H1 6190   5.432   1.863   1.681  0.6552 -0.2579 -0.2096
 2079TIP3    H2 6191   5.423   1.777   1.556  0.5236 -0.1096 -0.3017
 2080TIP3   OH2 6192   3.186   5.632   3.788  0.6312 -0.0341 -0.2947
 2080TIP3    H1 6193   3.225   5.556   3.745 -0.0780  0.3190 -1.5793
 2080TIP3    H2 6194   3.238   5.643   3.868  1.8544 -0.8012 -0.9635
 2081TIP3   OH2 6195   7.014   0.038   3.088  0.1329  0.0754  0.0397
 2081TIP3    H1 6196   6.980  -0.049   3.067  0.9036 -0.3851  0.6545
 2081TIP3    H2 6197   7.036   0.033   3.181 -2.3188  1.7557  0.7699
 2082TIP3   OH2 6198   3.981   6.242   3.204  0.0880 -0.2214 -0.0076
 2082TIP3    H1 6199   4.045   6.198   3.148  1.0309  1.2863 -0.1574
 2082TIP3    H2 6200   3.897   6.207   3.176  0.6724 -0.6100 -1.3444
 2083TIP3   OH2 6201   4.643   0.535   1.828 -0.2969  0.2203  0.1689
 2083TIP3    H1 6202   4.696   0.608   1.858 -0.2866 -0.8318  2.8460
 2083TIP3    H2 6203   4.552   0.566   1.837 -0.2509  1.0252 -1.7981
 2084TIP3   OH2 6204   6.194   6.955   3.014  0.1333  0.1390  0.4389
 2084TIP3    H1 6205   6.133   6.898   3.061 -1.3407  1.8303  0.6461
 2084TIP3    H2 6206   6.257   6.895   2.975 -1.3038 -1.6289  0.7358
 2085TIP3   OH2 6207   2.525   6.877   2.213 -0.1205 -0.4703  0.1119
 2085TIP3    H1 6208   2.511   6.790   2.251 -1.9849 -0.2226  0.0290
 2085TIP3    H2 6209   2.577   6.923   2.279  0.2317 -1.3979  0.4973
 2086TIP3   OH2 6210   3.005   7.132   0.458 -0.0066 -0.1034 -0.0949
 2086TIP3    H1 6211   2.986   7.052   0.410  1.7871 -1.2755  1.1162
 2086TIP3    H2 6212   2.924   7.151   0.506 -0.1998 -1.6084  0.2017
 2087TIP3   OH2 6213   7.214   2.537   3.081  0.5415  0.0648 -0.5528
 2087TIP3    H1 6214   7.292   2.563   3.129  0.4467  0.5100 -0.6379
 2087TIP3    H2 6215   7.191   2.451   3.117  1.5241 -0.4230 -1.0858
 2088TIP3   OH2 6216   6.112   1.250   3.760  1.0804  0.0234  0.1029
 2088TIP3    H1 6217   6.198   1.208   3.770  1.6619  1.3360  0.7336
 2088TIP3    H2 6218   6.130   1.344   3.769 -0.3852  0.3191  0.0074
 2089TIP3   OH2 6219   6.612   2.997   4.260 -0.0890  0.4840  0.4089
 2089TIP3    H1 6220   6.587   3.001   4.352 -0.3921  1.9151  0.2655
 2089TIP3    H2 6221   6.564   2.921   4.226 -1.2393  0.9001  1.0550
 2090TIP3   OH2 6222   6.827   0.569   3.445  0.3101 -0.3875  0.0590
 2090TIP3    H1 6223   6.871   0.499   3.396 -0.2316 -0.4636 -0.3158
 2090TIP3    H2 6224   6.834   0.646   3.388 -0.4951 -0.5236 -0.2276
 2091TIP3   OH2 6225   2.212   7.332   2.882  0.4742  0.6146  0.4083
 2091TIP3    H1 6226   2.239   7.419   2.853  0.5957 -0.0166 -1.4646
 2091TIP3    H2 6227   2.278   7.273   2.845 -0.9219 -0.4918 -0.3623
 2092TIP3   OH2 6228   7.603   0.830   2.017 -0.2836 -0.3633 -0.3658
 2092TIP3    H1 6229   7.634   0.830   1.927  1.6296  0.9372  0.2539
 2092TIP3    H2 6230   7.657   0.764   2.061 -1.5990 -1.4039 -0.2767
 2093TIP3   OH2 6231   3.709   1.742   0.676  0.3996  0.6289 -0.5181
 2093TIP3    H1 6232   3.789   1.714   0.720 -0.4117  1.4452  1.5282
 2093TIP3    H2 6233   3.720   1.837   0.665  0.1962  0.5700 -1.2497
 2094TIP3   OH2 6234   6.607   0.674   4.798  0.2722 -0.6829 -0.0480
 2094TIP3    H1 6235   6.586   0.713   4.883  1.6262 -0.7143  0.3221
 2094TIP3    H2 6236   6.653   0.592   4.821 -0.3289 -1.2338 -0.8111
 2095TIP3   OH2 6237   6.098   0.121   3.208  0.3331 -0.3287 -0.1094
 2095TIP3    H1 6238   6.026   0.059   3.195  1.3176 -0.9789 -2.8131
 2095TIP3    H2 6239   6.056   0.207   3.206 -0.8390 -0.8134  2.0775
 2096TIP3   OH2 6240   7.227   0.800   5.304 -0.3312  0.5547  0.0626
 2096TIP3    H1 6241   7.194   0.887   5.286 -2.0454  0.0816  0.8946
 2096TIP3    H2 6242   7.191   0.745   5.233  1.3497  0.6380 -0.8923
 2097TIP3   OH2 6243   1.063   3.674   5.750 -0.1733  0.6406  0.1249
 2097TIP3    H1 6244   0.976   3.688   5.787 -0.3003 -0.5529  0.3208
 2097TIP3    H2 6245   1.071   3.578   5.745  1.1097  0.7442  0.0738
 2098TIP3   OH2 6246   0.116   0.675   1.457 -0.0700  0.4814 -0.1489
 2098TIP3    H1 6247   0.115   0.684   1.362 -2.1031  0.2428 -0.1753
 2098TIP3    H2 6248   0.051   0.608   1.476  0.3249  0.5055  1.4170
 2099TIP3   OH2 6249   4.252   7.298   4.075  0.2699 -0.5391 -0.2128
 2099TIP3    H1 6250   4.277   7.254   3.994 -0.3237 -0.7478 -0.2854
 2099TIP3    H2 6251   4.334   7.314   4.121  0.5582 -0.9066 -0.6066
 2100TIP3   OH2 6252   3.801   1.421   1.381  0.0325 -0.9898  0.1716
 2100TIP3    H1 6253   3.734   1.388   1.441 -0.5946  2.1749  1.3067
 2100TIP3    H2 6254   3.752   1.448   1.303 -0.1852  2.0288  1.2962
 2101TIP3   OH2 6255   4.580   2.000   4.682  0.1668  0.1480  0.1177
 2101TIP3    H1 6256   4.512   2.023   4.618 -0.0372  2.2934  1.0681
 2101TIP3    H2 6257   4.542   1.926   4.731 -0.8475  0.3330 -0.3748
 2102TIP3   OH2 6258   7.775   0.585   1.624 -0.8411 -0.1331  0.4082
 2102TIP3    H1 6259   7.827   0.513   1.659 -1.4145 -0.8912 -0.3006
 2102TIP3    H2 6260   7.758   0.562   1.533 -0.9106  0.9632  0.1323
 2103TIP3   OH2 6261   7.840   0.424   2.950  0.7451 -0.8074  0.7348
 2103TIP3    H1 6262   7.829   0.401   2.858 -0.3245 -0.0717  0.6632
 2103TIP3    H2 6263   7.933   0.441   2.960  0.7891 -0.3525 -0.3502
 2104TIP3   OH2 6264   7.380   0.965   1.995  0.0082 -0.2365 -0.1523
 2104TIP3    H1 6265   7.347   0.957   1.906  0.8329 -0.0479 -0.4755
 2104TIP3    H2 6266   7.473   0.943   1.989  0.3109  0.8413  0.4808
 2105TIP3   OH2 6267   6.082   3.477   1.636  0.3508 -0.4608 -0.8443
 2105TIP3    H1 6268   6.083   3.452   1.728  2.1925 -1.4904 -1.1309
 2105TIP3    H2 6269   5.997   3.446   1.604  0.0500 -0.8283  0.2908
 2106TIP3   OH2 6270   1.139   3.482   0.901  0.5562 -0.0016  0.3123
 2106TIP3    H1 6271   1.130   3.518   0.813 -0.9195  0.8526  0.7911
 2106TIP3    H2 6272   1.107   3.392   0.893 -1.3695  0.6665  0.3706
 2107TIP3   OH2 6273   5.921   0.060   3.519 -0.2862 -0.9647  0.3205
 2107TIP3    H1 6274   5.844   0.116   3.511  0.8449  0.5485 -0.3391
 2107TIP3    H2 6275   5.892  -0.026   3.491 -1.5745 -0.2615 -0.5208
 2108TIP3   OH2 6276   6.452   0.340   3.274 -0.6109  0.6609 -0.3796
 2108TIP3    H1 6277   6.395   0.297   3.210  0.0735  1.4906 -1.5654
 2108TIP3    H2 6278   6.401   0.340   3.355 -0.9864 -1.5661 -0.5686
 2109TIP3   OH2 6279   6.499   1.260   3.020 -0.1871 -0.1949 -0.0514
 2109TIP3    H1 6280   6.440   1.333   3.035  1.0350  1.2978 -2.1824
 2109TIP3    H2 6281   6.441   1.184   3.009 -1.6568  1.0502 -1.1310
 2110TIP3   OH2 6282   3.961   1.641   0.654  0.0903  1.2077  0.0522
 2110TIP3    H1 6283   3.959   1.664   0.561  0.3141  3.2220  0.5240
 2110TIP3    H2 6284   4.052   1.654   0.680  0.1261  0.1852  0.4478
 2111TIP3   OH2 6285   3.984   1.218   1.355  0.1367 -0.4693 -0.1824
 2111TIP3    H1 6286   3.920   1.165   1.308 -0.2602 -0.1440 -0.0089
 2111TIP3    H2 6287   3.935   1.295   1.382  0.2959 -0.7763  0.9916
 2112TIP3   OH2 6288   4.689   0.556   4.089 -0.1844 -0.5318 -0.1945
 2112TIP3    H1 6289   4.715   0.633   4.039 -0.2554  0.1620  0.8165
 2112TIP3    H2 6290   4.610   0.584   4.137 -1.0742 -1.6925 -0.9591
 2113TIP3   OH2 6291   7.713   0.656   2.630 -0.4281 -0.0080  0.1510
 2113TIP3    H1 6292   7.693   0.563   2.631 -0.4054 -0.0130  0.1416
 2113TIP3    H2 6293   7.627   0.699   2.635 -0.3767 -0.0304  1.2101
 2114TIP3   OH2 6294   5.828   1.453   2.714 -0.3003  0.7408 -0.1707
 2114TIP3    H1 6295   5.775   1.397   2.658  0.9716 -0.7961  0.1184
 2114TIP3    H2 6296   5.831   1.407   2.798  2.0411  0.4416 -0.3795
 2115TIP3   OH2 6297   6.772   0.914   1.564 -0.6810  0.3290  0.5316
 2115TIP3    H1 6298   6.709   0.973   1.523  0.0211  1.8648  1.6165
 2115TIP3    H2 6299   6.735   0.826   1.551 -0.8312  0.7855 -2.7564
 2116TIP3   OH2 6300   2.066   1.694   3.985 -0.4785  0.5749 -0.0272
 2116TIP3    H1 6301   2.110   1.704   4.069 -1.3375 -0.7871  0.6083
 2116TIP3    H2 6302   1.976   1.722   4.001 -0.3435  1.5003 -0.8208
 2117TIP3   OH2 6303   6.834   1.787   3.303 -0.4356  0.0143 -0.1005
 2117TIP3    H1 6304   6.786   1.731   3.365 -1.5176  0.2937 -0.6675
 2117TIP3    H2 6305   6.825   1.875   3.340  2.7552 -0.3741  1.7273
 2118TIP3   OH2 6306   7.189   1.643   0.508  0.0948 -0.4140  0.5196
 2118TIP3    H1 6307   7.194   1.732   0.543 -2.2809 -0.2208  0.4796
 2118TIP3    H2 6308   7.107   1.608   0.543  1.3684 -2.8688  1.1491
 2119TIP3   OH2 6309   1.319   7.146   3.667 -0.4125  0.5595 -0.3643
 2119TIP3    H1 6310   1.283   7.212   3.727 -1.1596  0.4046 -0.6398
 2119TIP3    H2 6311   1.271   7.159   3.585  1.1587  1.2996 -1.1896
 2120TIP3   OH2 6312   6.797   0.755   3.223  0.8277  0.1182 -0.2332
 2120TIP3    H1 6313   6.871   0.742   3.164  1.0800 -1.1462  0.3463
 2120TIP3    H2 6314   6.720   0.749   3.166  1.0166 -2.1891 -0.3088
 2121TIP3   OH2 6315   4.905   0.726   2.196 -0.1009  0.1750  0.4211
 2121TIP3    H1 6316   4.905   0.813   2.236 -1.1013  0.1945  0.3951
 2121TIP3    H2 6317   4.997   0.707   2.178  0.1006  1.3163  0.2474
 2122TIP3   OH2 6318   6.516   1.135   2.597  0.4955 -0.7876  0.0546
 2122TIP3    H1 6319   6.585   1.193   2.630  1.5147 -0.5970 -2.3532
 2122TIP3    H2 6320   6.562   1.059   2.563 -0.6191 -1.5467  0.2295
 2123TIP3   OH2 6321   6.649   1.666   2.771 -0.0627 -0.7357 -0.6125
 2123TIP3    H1 6322   6.707   1.725   2.721 -0.5713 -0.8161 -1.3057
 2123TIP3    H2 6323   6.564   1.710   2.771 -0.2456 -1.0888 -0.4517
 2124TIP3   OH2 6324   6.494   4.021   3.899 -0.2479 -0.1034  0.0248
 2124TIP3    H1 6325   6.465   4.111   3.884 -3.7154 -1.2362 -0.4592
 2124TIP3    H2 6326   6.494   3.981   3.812 -1.8964 -1.4230  0.6002
 2125TIP3   OH2 6327   7.207   0.429   4.256  0.3292  0.3493 -0.0388
 2125TIP3    H1 6328   7.194   0.370   4.331 -0.6197  0.9747  0.3057
 2125TIP3    H2 6329   7.118   0.443   4.222  0.3126  2.8343  0.8740
 2126TIP3   OH2 6330   7.012   0.228   5.178  0.1241  0.0789  0.1588
 2126TIP3    H1 6331   7.015   0.312   5.134 -0.1307 -0.2014 -0.3984
 2126TIP3    H2 6332   6.918   0.210   5.190  0.1973  0.3990  1.2881
 2127TIP3   OH2 6333   5.466   0.413   1.759  0.4394 -0.1134 -0.2871
 2127TIP3    H1 6334   5.378   0.403   1.722  0.6347 -3.2229 -0.1053
 2127TIP3    H2 6335   5.461   0.491   1.814 -1.9706  0.2243 -0.9371
 2128TIP3   OH2 6336   4.991   1.728   2.919 -0.3243  0.5235  0.3875
 2128TIP3    H1 6337   5.065   1.719   2.859 -0.1269 -1.0356  0.8335
 2128TIP3    H2 6338   4.915   1.744   2.862  0.0852  0.4252 -0.1883
 2129TIP3   OH2 6339   0.522   2.233   1.680 -0.0890 -0.6774 -0.0203
 2129TIP3    H1 6340   0.472   2.214   1.759 -2.1889 -1.1566 -1.4363
 2129TIP3    H2 6341   0.553   2.147   1.650  1.1685 -0.4414  0.5448
 2130TIP3   OH2 6342   7.055   1.349   2.382  0.1922 -0.5510 -0.3406
 2130TIP3    H1 6343   6.985   1.341   2.317 -0.4967 -0.1233  0.3406
 2130TIP3    H2 6344   7.108   1.422   2.352 -0.4830  0.0459 -0.0971
 2131TIP3   OH2 6345   7.248   0.191   1.392  0.1825 -0.2804  0.4083
 2131TIP3    H1 6346   7.295   0.227   1.468  0.5355  1.8359 -0.7831
 2131TIP3    H2 6347   7.156   0.213   1.409  0.3187  0.6283  0.0047
 2132TIP3   OH2 6348   5.480   0.797   3.030 -0.0331 -0.1495 -0.5736
 2132TIP3    H1 6349   5.538   0.738   3.077  0.0430  1.0625  0.8869
 2132TIP3    H2 6350   5.480   0.878   3.082 -0.4492  1.0009 -2.3106
 2133TIP3   OH2 6351   5.051   1.244   0.790 -0.6813  0.2994 -0.4400
 2133TIP3    H1 6352   5.123   1.295   0.827 -0.5538 -2.4001  3.3100
 2133TIP3    H2 6353   5.075   1.232   0.699  1.8391  2.4738 -0.1325
 2134TIP3   OH2 6354   6.869   2.147   1.586  0.0808 -0.1591 -0.0172
 2134TIP3    H1 6355   6.861   2.227   1.535  0.7617  0.6112  1.0730
 2134TIP3    H2 6356   6.791   2.146   1.642  0.3615  0.0327  0.3765
 2135TIP3   OH2 6357   5.643   3.943   3.764 -0.9568  0.8770 -0.0507
 2135TIP3    H1 6358   5.734   3.952   3.792 -1.4263  3.7462  0.6701
 2135TIP3    H2 6359   5.607   3.877   3.823  0.9369 -1.2987 -1.1981
 2136TIP3   OH2 6360   5.190   0.468   1.410  0.9392  0.3613  0.6116
 2136TIP3    H1 6361   5.284   0.454   1.402  0.8606  0.0912  0.1169
 2136TIP3    H2 6362   5.178   0.501   1.499  1.4529 -0.0128  0.8248
 2137TIP3   OH2 6363   1.538   5.854   6.298 -0.2366  0.4399 -0.0198
 2137TIP3    H1 6364   1.457   5.905   6.293 -0.3063  0.3912  0.5060
 2137TIP3    H2 6365   1.594   5.905   6.357 -0.4301 -0.2583  0.7719
 2138TIP3   OH2 6366   4.806   1.117   1.582 -0.3759  0.0715  0.3722
 2138TIP3    H1 6367   4.822   1.206   1.615 -0.0152  0.6714 -1.3489
 2138TIP3    H2 6368   4.800   1.128   1.487 -2.3847 -1.4481  0.2918
 2139TIP3   OH2 6369   7.112   2.519   2.314 -0.3035  0.3800  0.0179
 2139TIP3    H1 6370   7.148   2.565   2.238  0.6805 -0.4529 -0.0162
 2139TIP3    H2 6371   7.100   2.429   2.284  0.0051  0.0682  0.8244
 2140TIP3   OH2 6372   2.060   2.191   1.958  0.2650  0.2968 -0.8436
 2140TIP3    H1 6373   2.020   2.142   2.029  0.6178  0.4439 -0.5394
 2140TIP3    H2 6374   2.018   2.158   1.879  1.0393 -1.0325 -0.7142
 2141TIP3   OH2 6375   4.228   0.735   4.364 -0.0028 -0.5834 -0.1965
 2141TIP3    H1 6376   4.227   0.825   4.396 -0.7296 -1.0755  1.2387
 2141TIP3    H2 6377   4.174   0.687   4.427  0.0384 -1.9442 -1.1731
 2142TIP3   OH2 6378   0.110   2.410   4.401  0.4360  0.2759  0.1698
 2142TIP3    H1 6379   0.046   2.374   4.340 -1.3286 -0.3970  2.3180
 2142TIP3    H2 6380   0.091   2.504   4.402 -1.4955 -0.0760  1.7720
 2143TIP3   OH2 6381   7.585   1.976   4.344 -0.2685  0.2943  0.0771
 2143TIP3    H1 6382   7.672   1.936   4.340 -0.0192  0.9021 -0.7953
 2143TIP3    H2 6383   7.558   1.984   4.253 -0.8745  0.9057  0.3028
 2144TIP3   OH2 6384   2.022   4.185   4.160 -0.2982  0.0461 -0.4055
 2144TIP3    H1 6385   2.023   4.093   4.185 -1.7398 -0.0179 -0.5361
 2144TIP3    H2 6386   2.047   4.186   4.068 -3.3783 -0.5541 -1.3180
 2145TIP3   OH2 6387   1.743   1.813   3.330 -0.4326 -0.4516  0.5311
 2145TIP3    H1 6388   1.693   1.807   3.249  0.1073  0.2674  0.1362
 2145TIP3    H2 6389   1.695   1.876   3.383  0.0652  0.2779  0.1316
 2146TIP3   OH2 6390   1.830   0.578   5.126 -0.2223 -0.0897  0.1300
 2146TIP3    H1 6391   1.789   0.608   5.207  2.4277  2.1462  0.7213
 2146TIP3    H2 6392   1.909   0.532   5.154 -0.5405 -1.4176 -1.1039
 2147TIP3   OH2 6393   7.383   2.511   3.875 -0.0623 -0.3379  0.1386
 2147TIP3    H1 6394   7.319   2.467   3.931 -1.3511  1.5976  0.2183
 2147TIP3    H2 6395   7.399   2.595   3.918  1.1207 -0.0241 -0.8828
 2148TIP3   OH2 6396   4.160   3.668   2.652  0.4793 -0.3015  0.4399
 2148TIP3    H1 6397   4.166   3.742   2.592 -0.0444 -0.7039 -0.1186
 2148TIP3    H2 6398   4.075   3.629   2.634  1.2245 -1.7344 -0.1028
 2149TIP3   OH2 6399   2.684   4.228   2.957  0.6673  0.4699 -0.4405
 2149TIP3    H1 6400   2.610   4.232   3.017 -1.1627 -0.1643 -2.5935
 2149TIP3    H2 6401   2.709   4.135   2.955  0.3874  0.4062 -1.0533
 2150TIP3   OH2 6402   6.417   0.531   4.629  0.4340  0.6516 -0.0001
 2150TIP3    H1 6403   6.447   0.617   4.659  0.4242  0.7612 -0.3034
 2150TIP3    H2 6404   6.470   0.513   4.552 -2.5500  2.3667 -2.6041
 2151TIP3   OH2 6405   3.431   2.725   3.281  0.5542  0.3839  0.2665
 2151TIP3    H1 6406   3.373   2.795   3.312  2.1418  2.0376 -0.3539
 2151TIP3    H2 6407   3.423   2.656   3.346 -0.8096  1.2907  1.0804
 2152TIP3   OH2 6408   6.144   6.916   4.046  0.1128  0.3865  0.0190
 2152TIP3    H1 6409   6.085   6.960   4.107  1.4995 -0.6337  2.1487
 2152TIP3    H2 6410   6.169   6.984   3.983 -3.2664  0.8535 -0.9636
 2153TIP3   OH2 6411   0.802   0.350   1.744  0.0138  0.5795 -0.2731
 2153TIP3    H1 6412   0.769   0.282   1.804  3.6993 -0.1683  1.0415
 2153TIP3    H2 6413   0.784   0.316   1.657  0.7030 -1.5249  0.3809
 2154TIP3   OH2 6414   3.874   0.391   2.922 -1.2399  0.2053  0.2562
 2154TIP3    H1 6415   3.932   0.451   2.875 -0.0615 -0.8117  0.3691
 2154TIP3    H2 6416   3.837   0.335   2.854 -3.3425  1.8559  0.0001
 2155TIP3   OH2 6417   2.459   5.320   1.071 -0.0146  0.4674  0.0496
 2155TIP3    H1 6418   2.396   5.291   1.005  0.1806 -1.6087  0.7274
 2155TIP3    H2 6419   2.538   5.268   1.054  0.6705  1.2564  0.7652
 2156TIP3   OH2 6420   5.988   0.634   2.370  0.2082  0.1348 -0.0927
 2156TIP3    H1 6421   5.927   0.685   2.316  0.7797 -0.1525 -1.0188
 2156TIP3    H2 6422   5.977   0.543   2.340 -0.1836 -0.1782  0.9566
 2157TIP3   OH2 6423   0.351   1.042   6.103  0.1125 -0.3618  0.0047
 2157TIP3    H1 6424   0.371   0.994   6.023  1.7846  1.4003 -0.6515
 2157TIP3    H2 6425   0.373   0.981   6.174  0.2143 -1.3095 -0.8379
 2158TIP3   OH2 6426   1.854   0.539   1.730 -0.5162  0.5685 -0.2652
 2158TIP3    H1 6427   1.936   0.556   1.778 -0.4548 -0.8558  0.1462
 2158TIP3    H2 6428   1.827   0.453   1.759 -1.4494  0.4539 -1.4537
 2159TIP3   OH2 6429   0.332   0.307   2.573  0.4727  0.6756 -0.5188
 2159TIP3    H1 6430   0.318   0.396   2.605 -1.3620 -0.4221  1.8733
 2159TIP3    H2 6431   0.387   0.266   2.641  0.3586 -0.3434 -1.0342
 2160TIP3   OH2 6432   2.639   1.939   5.492 -0.2965  0.1891 -0.1424
 2160TIP3    H1 6433   2.610   1.852   5.465  0.8926 -0.5472  0.8950
 2160TIP3    H2 6434   2.718   1.923   5.544  1.2438  2.0395 -1.8379
 2161TIP3   OH2 6435   1.360   1.754   5.126  0.0516  0.0223  0.1916
 2161TIP3    H1 6436   1.318   1.794   5.050 -3.1857 -0.6163  1.5801
 2161TIP3    H2 6437   1.306   1.780   5.200  2.3168 -0.5972  2.1195
 2162TIP3   OH2 6438   4.646   7.216   2.566 -0.0407  0.6423 -0.0414
 2162TIP3    H1 6439   4.619   7.132   2.529  2.9238 -0.4493  0.1917
 2162TIP3    H2 6440   4.643   7.277   2.491 -0.2688 -0.1079 -0.6505
 2163TIP3   OH2 6441   1.180   0.887   4.718  0.2351 -0.6055  0.1933
 2163TIP3    H1 6442   1.236   0.918   4.648 -0.2694  0.5223  0.2597
 2163TIP3    H2 6443   1.124   0.963   4.738 -0.7619 -1.4506  0.6534
 2164TIP3   OH2 6444   2.857   1.757   3.492 -0.4228  0.7277  0.1607
 2164TIP3    H1 6445   2.942   1.773   3.451  0.3140 -0.1653  1.3028
 2164TIP3    H2 6446   2.848   1.825   3.558 -0.5232  0.7146  0.1612
 2165TIP3   OH2 6447   1.016   2.032   3.770  0.5021 -0.2871  0.2505
 2165TIP3    H1 6448   1.010   2.103   3.835 -0.2385 -1.3098  1.3070
 2165TIP3    H2 6449   1.050   1.958   3.819  0.4411 -0.9225 -0.6619
 2166TIP3   OH2 6450   1.588   2.621   3.219 -0.3409  0.1948 -0.0463
 2166TIP3    H1 6451   1.679   2.601   3.196 -0.3338 -1.6267  1.4639
 2166TIP3    H2 6452   1.539   2.544   3.191 -1.3555  0.9623 -0.3946
 2167TIP3   OH2 6453   2.364   0.765   3.713 -0.7589 -0.3899  0.0054
 2167TIP3    H1 6454   2.380   0.803   3.800 -0.2468  0.7629 -0.5910
 2167TIP3    H2 6455   2.449   0.769   3.669 -1.1559 -0.4279 -0.7669
 2168TIP3   OH2 6456   2.784   1.458   2.969 -0.0007  0.2288  0.1352
 2168TIP3    H1 6457   2.741   1.403   3.034  0.9104 -1.7097 -0.8561
 2168TIP3    H2 6458   2.875   1.465   3.000  0.5559 -1.0835 -1.0953
 2169TIP3   OH2 6459   2.995   0.880   3.508 -0.6293 -0.2908 -0.3354
 2169TIP3    H1 6460   2.972   0.788   3.498 -0.6263 -0.6516  2.3618
 2169TIP3    H2 6461   3.074   0.892   3.456  0.5637 -2.3617  0.9478
 2170TIP3   OH2 6462   0.483   0.156   1.031  0.2968 -0.4091 -0.3484
 2170TIP3    H1 6463   0.457   0.064   1.017  1.9649 -1.0092  0.3508
 2170TIP3    H2 6464   0.422   0.188   1.097  2.1130 -2.2155  2.3183
 2171TIP3   OH2 6465   1.666   1.006   3.793  0.5145 -0.4481 -0.0925
 2171TIP3    H1 6466   1.652   1.072   3.861  2.4304 -0.0767 -0.0212
 2171TIP3    H2 6467   1.589   1.013   3.737 -1.2779 -1.0076  2.2278
 2172TIP3   OH2 6468   1.326   0.662   5.030  0.3100 -0.0045  0.2925
 2172TIP3    H1 6469   1.332   0.641   4.937 -0.8698  0.9662 -0.0190
 2172TIP3    H2 6470   1.329   0.578   5.075 -4.4261 -0.9678 -0.9152
 2173TIP3   OH2 6471   2.795   2.940   1.029 -0.1437 -0.4332 -0.0582
 2173TIP3    H1 6472   2.722   2.996   1.006  0.3512 -0.5172 -1.8964
 2173TIP3    H2 6473   2.870   2.999   1.035  0.4401 -0.8937 -2.3030
 2174TIP3   OH2 6474   0.480   2.269   4.756  0.4151  0.3619  0.3531
 2174TIP3    H1 6475   0.499   2.280   4.849  0.2979 -1.0896  0.5658
 2174TIP3    H2 6476   0.468   2.174   4.745 -1.2314  0.6709 -0.8054
 2175TIP3   OH2 6477   1.452   1.324   3.130 -0.0187 -0.1473  0.2134
 2175TIP3    H1 6478   1.444   1.406   3.081 -1.9026  0.2956  1.1839
 2175TIP3    H2 6479   1.542   1.324   3.162  0.5740  0.5935 -1.4423
 2176TIP3   OH2 6480   1.163   3.193   2.558 -0.3788  0.2994 -0.2422
 2176TIP3    H1 6481   1.176   3.104   2.593 -0.3509 -0.2214 -1.5388
 2176TIP3    H2 6482   1.130   3.243   2.633 -0.8127 -0.9097  0.4062
 2177TIP3   OH2 6483   2.970   2.957   2.837 -0.3811  0.1039  1.2193
 2177TIP3    H1 6484   3.027   2.941   2.912 -0.4257  0.6952  1.3851
 2177TIP3    H2 6485   2.909   2.883   2.836  0.6629 -0.7503  0.7763
 2178TIP3   OH2 6486   0.213   2.174   4.624 -0.2857  0.2048  0.5114
 2178TIP3    H1 6487   0.300   2.133   4.631 -0.0613  0.8667  1.7962
 2178TIP3    H2 6488   0.229   2.254   4.574 -0.3739 -0.2490 -0.2600
 2179TIP3   OH2 6489   2.691   1.146   3.112 -0.5725 -0.0854  0.0195
 2179TIP3    H1 6490   2.774   1.174   3.073 -0.7459 -1.3455 -1.2624
 2179TIP3    H2 6491   2.707   1.057   3.142 -0.9407  0.2907  1.3950
 2180TIP3   OH2 6492   7.521   1.503   2.135  0.5644 -0.2664  0.8622
 2180TIP3    H1 6493   7.612   1.476   2.147  1.0939  1.1753  0.1194
 2180TIP3    H2 6494   7.491   1.454   2.058  0.9574 -0.1041  0.6089
 2181TIP3   OH2 6495   2.278   0.783   3.353 -0.0321 -0.1530  0.1401
 2181TIP3    H1 6496   2.243   0.769   3.442  1.5970 -4.4472  0.2426
 2181TIP3    H2 6497   2.206   0.757   3.296 -1.0152  2.4294  0.1496
 2182TIP3   OH2 6498   6.650   6.782   4.135 -0.4831  0.5063 -0.0414
 2182TIP3    H1 6499   6.692   6.743   4.059 -0.1515  1.6186 -0.4460
 2182TIP3    H2 6500   6.596   6.853   4.099  0.0658  1.3622  0.7943
 2183TIP3   OH2 6501   1.914   3.828   5.419 -0.3104 -0.1584  0.5994
 2183TIP3    H1 6502   1.962   3.793   5.344  0.3963  1.3345  0.3408
 2183TIP3    H2 6503   1.874   3.909   5.387 -0.9244 -0.0775  1.5248
 2184TIP3   OH2 6504   7.781   1.660   1.766  0.1387 -0.8663  0.0091
 2184TIP3    H1 6505   7.700   1.610   1.765  0.3228 -1.1882 -2.5622
 2184TIP3    H2 6506   7.837   1.617   1.701  1.1820  1.2453 -0.5447
 2185TIP3   OH2 6507   7.411   2.531   3.298 -0.2379 -0.0993  0.2796
 2185TIP3    H1 6508   7.457   2.460   3.253  0.5369  0.2206  0.5635
 2185TIP3    H2 6509   7.421   2.510   3.391  1.2639  1.1724  0.4142
 2186TIP3   OH2 6510   0.894   4.509   1.907 -0.3092 -0.1307 -0.2679
 2186TIP3    H1 6511   0.904   4.602   1.929 -1.7125 -0.1392  0.4830
 2186TIP3    H2 6512   0.859   4.509   1.818 -0.1829  0.0622 -0.3179
 2187TIP3   OH2 6513   0.716   1.803   2.150 -0.1890 -0.0561  0.1427
 2187TIP3    H1 6514   0.664   1.877   2.119 -0.1173 -0.6690 -1.4911
 2187TIP3    H2 6515   0.659   1.758   2.212 -0.7040  0.6368  0.1834
 2188TIP3   OH2 6516   1.948   3.381   4.632  0.5497  0.1639 -0.5996
 2188TIP3    H1 6517   1.954   3.310   4.569  0.6211  0.1389 -0.5646
 2188TIP3    H2 6518   2.005   3.450   4.598  0.5864  0.1514 -0.5645
 2189TIP3   OH2 6519   3.669   1.806   4.631  0.9432  0.2502  0.2175
 2189TIP3    H1 6520   3.707   1.894   4.626  0.7985  0.3058  0.0732
 2189TIP3    H2 6521   3.575   1.821   4.623  0.9349  0.0632 -0.0423
 2190TIP3   OH2 6522   6.997   3.698   3.066  0.2241 -0.0482 -0.3992
 2190TIP3    H1 6523   6.967   3.698   3.157 -1.9755 -0.8331 -1.0933
 2190TIP3    H2 6524   6.949   3.770   3.025 -1.0570 -1.5686 -1.6266
 2191TIP3   OH2 6525   2.539   0.614   2.755 -0.2756 -0.1213 -0.0452
 2191TIP3    H1 6526   2.523   0.651   2.842 -0.0174 -0.4307  0.1346
 2191TIP3    H2 6527   2.472   0.654   2.699 -0.9348 -0.5151  0.4598
 2192TIP3   OH2 6528   0.413   6.619   3.198  0.4925 -0.1552 -0.5149
 2192TIP3    H1 6529   0.380   6.655   3.280  0.8745  0.8427 -0.7975
 2192TIP3    H2 6530   0.434   6.528   3.219  0.3371  0.0197  0.4238
 2193TIP3   OH2 6531   2.173   1.061   3.847  0.2778 -0.8948  0.3508
 2193TIP3    H1 6532   2.221   1.103   3.918  0.7422 -0.1424 -0.3950
 2193TIP3    H2 6533   2.094   1.114   3.836  0.8416 -0.2249 -0.5611
 2194TIP3   OH2 6534   2.093   1.210   4.550  0.6644  0.0450  0.3794
 2194TIP3    H1 6535   2.003   1.220   4.583  0.5275 -1.1918  0.4010
 2194TIP3    H2 6536   2.148   1.221   4.628  0.7878  4.3336 -0.1617
 2195TIP3   OH2 6537   0.022   3.414   6.345 -0.3364 -0.1275 -0.1567
 2195TIP3    H1 6538   0.024   3.509   6.331  0.7282 -0.0219  0.6612
 2195TIP3    H2 6539  -0.011   3.404   6.434  0.1588 -0.4953 -0.0129
 2196TIP3   OH2 6540   7.109   1.404   3.270 -0.0702 -0.3179  0.1784
 2196TIP3    H1 6541   7.168   1.443   3.335  1.5414 -1.4322 -0.5793
 2196TIP3    H2 6542   7.168   1.367   3.203 -1.6734  0.5013 -1.7410
 2197TIP3   OH2 6543   1.812   3.365   2.878 -0.1349  0.2232  0.3801
 2197TIP3    H1 6544   1.797   3.274   2.852 -1.8957  0.9085 -1.1611
 2197TIP3    H2 6545   1.875   3.398   2.814  1.9403 -0.3993  2.0497
 2198TIP3   OH2 6546   0.728   0.200   2.973  0.8837  0.0734  0.1770
 2198TIP3    H1 6547   0.705   0.272   3.032 -2.1908  0.0798 -0.9212
 2198TIP3    H2 6548   0.707   0.121   3.024 -0.3285  0.0545 -0.3398
 2199TIP3   OH2 6549   3.067   3.548   2.245 -0.4393 -0.0851  0.4755
 2199TIP3    H1 6550   3.109   3.594   2.318  0.9172 -0.8528  0.1817
 2199TIP3    H2 6551   2.974   3.573   2.252 -0.3581 -0.2624  2.5579
 2200TIP3   OH2 6552   0.427   2.147   4.250  0.2374 -0.4951 -0.2984
 2200TIP3    H1 6553   0.512   2.186   4.268 -0.2835  0.0717  0.9898
 2200TIP3    H2 6554   0.388   2.133   4.337 -1.7459  0.9868 -0.9175
 2201TIP3   OH2 6555   0.012   0.683   3.889 -0.0360  0.3403  0.1508
 2201TIP3    H1 6556   0.059   0.644   3.815 -0.4199 -0.5852  0.3793
 2201TIP3    H2 6557   0.056   0.647   3.966  3.0142  4.4212  0.4919
 2202TIP3   OH2 6558   6.735   0.971   4.276 -0.0453  0.0733  0.3424
 2202TIP3    H1 6559   6.736   1.067   4.282 -1.3213 -0.0212  2.9327
 2202TIP3    H2 6560   6.757   0.941   4.364 -0.4657 -2.0195 -0.2338
 2203TIP3   OH2 6561   0.241   0.833   3.079  0.1083 -0.0080  0.4562
 2203TIP3    H1 6562   0.305   0.809   3.012  0.0096  0.3848  0.2206
 2203TIP3    H2 6563   0.258   0.926   3.095 -0.3008  0.0572  0.5046
 2204TIP3   OH2 6564   0.400   3.271   4.184  0.4677 -0.2702  0.3000
 2204TIP3    H1 6565   0.329   3.325   4.149 -2.4361 -3.4638  0.9421
 2204TIP3    H2 6566   0.396   3.286   4.279 -0.8897 -2.1345  0.5657
 2205TIP3   OH2 6567   0.550   1.654   2.330 -0.2791  0.0958 -0.5549
 2205TIP3    H1 6568   0.480   1.706   2.370  0.9002  0.8244  0.5972
 2205TIP3    H2 6569   0.608   1.633   2.403  2.4097  2.2286 -1.9974
 2206TIP3   OH2 6570   1.394   1.777   3.349  0.2498 -0.3290  0.5241
 2206TIP3    H1 6571   1.300   1.789   3.367  0.1571 -1.9517  1.1696
 2206TIP3    H2 6572   1.409   1.684   3.363  1.9916 -0.0524  0.5122
 2207TIP3   OH2 6573   1.492   0.012   4.553 -0.2344 -0.9849 -0.5615
 2207TIP3    H1 6574   1.414   0.059   4.524 -0.8838 -1.5977  0.1574
 2207TIP3    H2 6575   1.469  -0.021   4.641  0.3731 -2.2130 -0.8429
 2208TIP3   OH2 6576   0.734   1.598   2.515  0.2548  0.0568  0.0373
 2208TIP3    H1 6577   0.825   1.614   2.537  0.2535  0.9522 -0.6091
 2208TIP3    H2 6578   0.709   1.524   2.571  1.9518 -1.5101 -1.2177
 2209TIP3   OH2 6579   2.232   3.068   3.887  0.1714  0.2180 -0.4419
 2209TIP3    H1 6580   2.157   3.082   3.830  0.2325 -1.0509 -0.8489
 2209TIP3    H2 6581   2.195   3.042   3.971  0.0901  1.8519  0.0461
 2210TIP3   OH2 6582   0.904   2.422   5.338  0.0270  1.0349  0.8962
 2210TIP3    H1 6583   0.894   2.453   5.428 -2.4703  1.4837  0.5070
 2210TIP3    H2 6584   0.819   2.439   5.298  0.7683 -0.1713 -1.2403
 2211TIP3   OH2 6585   1.075   1.536   3.248 -0.2976 -0.0837  0.1268
 2211TIP3    H1 6586   1.107   1.568   3.163 -0.1283 -0.7739 -0.0704
 2211TIP3    H2 6587   1.152   1.496   3.289 -0.5964 -0.5741  0.2112
 2212TIP3   OH2 6588   0.653   2.476   3.527 -0.2100  0.0990  0.1361
 2212TIP3    H1 6589   0.666   2.571   3.526  1.1597 -0.0645  1.2961
 2212TIP3    H2 6590   0.612   2.457   3.442  1.1619  1.5014 -0.8801
 2213TIP3   OH2 6591   0.956   0.894   3.172  0.3515 -0.8204 -1.0382
 2213TIP3    H1 6592   0.919   0.847   3.097  3.5877 -0.9420 -2.6172
 2213TIP3    H2 6593   0.989   0.976   3.134 -0.7550  0.5253  0.8240
 2214TIP3   OH2 6594   7.597   1.667   3.084  0.4910  0.0338 -0.3378
 2214TIP3    H1 6595   7.684   1.651   3.118  0.5036 -0.9970 -0.8143
 2214TIP3    H2 6596   7.564   1.580   3.060 -0.6858  0.4003 -0.1060
 2215TIP3   OH2 6597   1.132   2.156   5.136  0.7562 -0.2677  0.7566
 2215TIP3    H1 6598   1.196   2.111   5.191  0.4097  0.1610  1.5188
 2215TIP3    H2 6599   1.075   2.086   5.104  0.9444 -0.5183  0.9622
 2216TIP3   OH2 6600   3.212   3.882   3.384 -0.0646 -0.3533  0.4123
 2216TIP3    H1 6601   3.271   3.824   3.432  0.2373  1.1262  1.9101
 2216TIP3    H2 6602   3.124   3.853   3.409  0.0887  0.3518  1.8427
 2217TIP3   OH2 6603   4.139   1.246   3.999  0.3815 -0.2739  0.0362
 2217TIP3    H1 6604   4.137   1.281   4.088 -1.2164  0.9076 -0.4313
 2217TIP3    H2 6605   4.067   1.183   3.996 -0.2169  0.4118 -0.6682
 2218TIP3   OH2 6606   2.571   1.208   3.521  0.5046 -1.0066  0.8454
 2218TIP3    H1 6607   2.649   1.151   3.525  1.0102 -0.4155 -0.3352
 2218TIP3    H2 6608   2.498   1.150   3.542  1.3707 -1.3247  3.1349
 2219TIP3   OH2 6609   1.028   1.775   1.845  0.0645 -0.2982  0.1913
 2219TIP3    H1 6610   1.113   1.819   1.836  0.8704 -1.7865  0.3578
 2219TIP3    H2 6611   1.028   1.710   1.775 -1.4214  0.4397 -0.5115
 2220TIP3   OH2 6612   2.287   2.467   3.857 -0.3656  0.5141 -0.0357
 2220TIP3    H1 6613   2.249   2.520   3.926  1.5540 -1.5675  2.7319
 2220TIP3    H2 6614   2.379   2.493   3.854 -0.0355 -0.6522 -0.5745
 2221TIP3   OH2 6615   0.717   3.105   5.878  0.4390  0.2814 -0.1966
 2221TIP3    H1 6616   0.802   3.062   5.888  1.1545  1.1178 -2.3512
 2221TIP3    H2 6617   0.654   3.042   5.913  1.8822 -0.6392  0.7957
 2222TIP3   OH2 6618   2.149   2.013   2.957  0.7368 -0.5281  0.2424
 2222TIP3    H1 6619   2.225   2.009   2.898 -0.7310 -1.2919 -1.6663
 2222TIP3    H2 6620   2.106   2.095   2.934  0.6238 -0.4195  0.8498
 2223TIP3   OH2 6621   4.127   1.533   2.856 -0.1658 -0.4590  0.0485
 2223TIP3    H1 6622   4.062   1.603   2.867 -0.0970 -0.1642 -1.3703
 2223TIP3    H2 6623   4.162   1.519   2.944 -1.4989  0.0074  0.6718
 2224TIP3   OH2 6624   0.822   2.835   2.351  0.4037 -0.0489  0.0680
 2224TIP3    H1 6625   0.871   2.770   2.302 -0.7323 -0.3103 -0.7448
 2224TIP3    H2 6626   0.731   2.824   2.322  0.1483  1.6760  0.1456
 2225TIP3   OH2 6627   1.591   1.666   3.114  0.2416  0.7083  0.3954
 2225TIP3    H1 6628   1.526   1.736   3.124 -0.3591  0.2109  0.0192
 2225TIP3    H2 6629   1.566   1.621   3.033  0.4632 -0.1071  0.7716
 2226TIP3   OH2 6630   1.004   0.495   0.890  0.5530  0.1444 -0.4154
 2226TIP3    H1 6631   0.911   0.469   0.887  0.4678  0.3983 -0.0104
 2226TIP3    H2 6632   1.010   0.569   0.830 -0.0385  1.7695  1.4718
 2227TIP3   OH2 6633   0.049   1.990   2.703 -0.8232  0.1026 -0.2104
 2227TIP3    H1 6634   0.046   2.077   2.742  1.7717  0.0809  0.0858
 2227TIP3    H2 6635  -0.004   1.935   2.761 -0.8521  1.0693  0.6767
 2228TIP3   OH2 6636   7.672   1.709   1.435 -0.9339  0.1722 -0.1521
 2228TIP3    H1 6637   7.669   1.657   1.354 -0.2215  1.0430 -0.7510
 2228TIP3    H2 6638   7.723   1.656   1.496  0.7649  0.6682 -1.1324
 2229TIP3   OH2 6639   0.604   2.251   5.024  0.0526  0.3583  0.3116
 2229TIP3    H1 6640   0.567   2.163   5.029 -2.0599  1.3148  2.7204
 2229TIP3    H2 6641   0.667   2.255   5.097  1.4954  0.2648 -0.9076
 2230TIP3   OH2 6642   1.400   1.221   2.466  0.2068  0.7300 -0.1468
 2230TIP3    H1 6643   1.361   1.302   2.432 -0.3042  0.6163  0.1712
 2230TIP3    H2 6644   1.415   1.167   2.388  1.4682  1.5155 -0.4801
 2231TIP3   OH2 6645   5.669   6.306   3.244  0.4611 -0.0849 -0.3095
 2231TIP3    H1 6646   5.596   6.361   3.216  0.1670  0.7371  1.9479
 2231TIP3    H2 6647   5.632   6.217   3.246 -0.3355  0.2454  0.2551
 2232TIP3   OH2 6648   0.995   2.522   3.772  0.1638 -0.0086  0.5019
 2232TIP3    H1 6649   1.078   2.569   3.775  0.3535 -0.3643  1.0776
 2232TIP3    H2 6650   0.930   2.587   3.799  0.0299  0.7217 -1.5522
 2233TIP3   OH2 6651   3.435   0.116   2.010  0.2892 -0.1256  0.2371
 2233TIP3    H1 6652   3.362   0.168   1.975 -1.0178 -1.0398  1.5501
 2233TIP3    H2 6653   3.393   0.048   2.062  2.1375  0.9169  3.2270
 2234TIP3   OH2 6654   1.232   3.226   3.286 -0.4047 -0.3359  0.1374
 2234TIP3    H1 6655   1.313   3.175   3.281 -0.8509 -0.9422 -1.1850
 2234TIP3    H2 6656   1.259   3.310   3.322  0.4893 -1.1885  1.5335
 2235TIP3   OH2 6657   2.791   1.044   3.574 -0.3989 -0.6764  0.0870
 2235TIP3    H1 6658   2.874   0.995   3.570 -0.3537 -0.6056  0.1581
 2235TIP3    H2 6659   2.817   1.131   3.605 -0.4177 -0.4697 -0.4688
 2236TIP3   OH2 6660   2.768   4.613   5.797 -0.2572 -0.1579 -0.1872
 2236TIP3    H1 6661   2.770   4.604   5.892  2.7741 -0.4557 -0.2565
 2236TIP3    H2 6662   2.743   4.705   5.782 -1.7350 -0.3728  0.8580
 2237TIP3   OH2 6663   7.574   1.098   4.996 -0.0160 -0.4893  0.0840
 2237TIP3    H1 6664   7.506   1.066   5.055 -0.7387  1.2147  0.2139
 2237TIP3    H2 6665   7.644   1.034   5.003 -0.6106 -0.9758  1.8467
 2238TIP3   OH2 6666   2.711   2.969   1.941 -0.2355 -0.0123 -0.0691
 2238TIP3    H1 6667   2.801   2.999   1.947  0.3645 -1.9860  1.2828
 2238TIP3    H2 6668   2.662   3.028   1.999  0.6485 -0.5352  1.2375
 2239TIP3   OH2 6669   2.108   2.138   3.389  0.1035 -0.1060  0.3672
 2239TIP3    H1 6670   2.025   2.155   3.433  0.9029  0.2128  1.7770
 2239TIP3    H2 6671   2.092   2.161   3.297 -1.7171 -1.2365  0.3911
 2240TIP3   OH2 6672   2.594   0.229   2.886  0.3138  0.0274 -0.6233
 2240TIP3    H1 6673   2.562   0.191   2.804  2.2005 -0.7112 -1.0537
 2240TIP3    H2 6674   2.658   0.295   2.859 -1.6032  2.2630  0.1831
 2241TIP3   OH2 6675   1.043   1.602   2.981 -0.1526 -0.6085  0.4101
 2241TIP3    H1 6676   0.961   1.621   3.026  0.2035  2.5932 -0.2222
 2241TIP3    H2 6677   1.030   1.514   2.945 -3.9229  0.4045 -0.9622
 2242TIP3   OH2 6678   2.695   3.300   2.764  0.1100 -0.6240 -0.6455
 2242TIP3    H1 6679   2.702   3.327   2.672  0.4102 -0.6099 -0.6183
 2242TIP3    H2 6680   2.711   3.380   2.814 -0.9507 -0.4375 -0.5915
 2243TIP3   OH2 6681   0.942   1.759   6.260 -0.1634 -0.1532  0.5825
 2243TIP3    H1 6682   1.001   1.811   6.315  0.8539  0.3164 -0.8908
 2243TIP3    H2 6683   0.864   1.813   6.251  0.4350  0.6428  0.0011
 2244TIP3   OH2 6684   1.423   2.990   3.005  0.0498 -0.3006 -0.3505
 2244TIP3    H1 6685   1.328   2.991   2.993 -0.0860 -0.3378  0.7054
 2244TIP3    H2 6686   1.438   2.926   3.075  0.8859 -0.5855 -0.7803
 2245TIP3   OH2 6687   1.633   2.787   4.133  0.2336  0.9457  0.1868
 2245TIP3    H1 6688   1.639   2.860   4.195 -2.3359  0.8728  0.5697
 2245TIP3    H2 6689   1.566   2.814   4.071  2.6152  0.9171 -2.4809
 2246TIP3   OH2 6690   0.070   1.788   3.527  0.4567 -0.1237  0.2193
 2246TIP3    H1 6691  -0.012   1.833   3.550 -1.3192 -2.2206 -1.7192
 2246TIP3    H2 6692   0.076   1.798   3.432  2.8874  0.6578  0.4348
 2247TIP3   OH2 6693   7.205   1.903   6.124 -0.1373 -0.5082  0.1193
 2247TIP3    H1 6694   7.156   1.860   6.194 -0.8435  1.8839  1.1338
 2247TIP3    H2 6695   7.138   1.930   6.061 -0.1244  2.2004  1.2038
 2248TIP3   OH2 6696   3.604   1.659   3.562  0.2992  0.3587 -0.7803
 2248TIP3    H1 6697   3.564   1.587   3.515  0.3241 -0.6150  0.6512
 2248TIP3    H2 6698   3.538   1.729   3.561 -1.0716 -0.8797  0.6908
 2249TIP3   OH2 6699   3.643   2.336   2.668 -0.1605 -0.2964  0.2454
 2249TIP3    H1 6700   3.737   2.348   2.664 -0.4565  1.6180 -1.9487
 2249TIP3    H2 6701   3.617   2.376   2.751  0.6763  1.4384 -0.3021
 2250TIP3   OH2 6702   6.324   7.445   5.573  0.0650 -0.1855  0.4482
 2250TIP3    H1 6703   6.339   7.391   5.495 -0.0639 -0.6983  0.7723
 2250TIP3    H2 6704   6.269   7.390   5.629  0.1136  0.2028  0.8759
 2251TIP3   OH2 6705   7.337   1.338   4.513 -0.3805 -0.0832  0.1118
 2251TIP3    H1 6706   7.267   1.308   4.455 -0.8149  0.0372  0.5762
 2251TIP3    H2 6707   7.297   1.341   4.600  0.4744 -0.9945  0.5485
 2252TIP3   OH2 6708   1.245   2.734   4.699 -0.1404 -0.1687  0.0468
 2252TIP3    H1 6709   1.321   2.718   4.643 -0.4863 -0.1007 -0.4504
 2252TIP3    H2 6710   1.171   2.734   4.638 -0.5350 -0.2177  0.5246
 2253TIP3   OH2 6711   2.571   2.543   2.284  0.1045 -0.0423 -0.0653
 2253TIP3    H1 6712   2.563   2.477   2.215  2.1321 -1.5379  1.0828
 2253TIP3    H2 6713   2.509   2.515   2.351 -2.2862  1.7249 -1.4472
 2254TIP3   OH2 6714   1.017   0.419   2.885  0.5052  0.2488 -0.0375
 2254TIP3    H1 6715   1.094   0.393   2.934  1.5222  0.4383 -1.5013
 2254TIP3    H2 6716   0.981   0.337   2.851  0.3566  0.2084  0.2180
 2255TIP3   OH2 6717   7.759   2.298   2.894 -0.5998 -0.1989 -0.6332
 2255TIP3    H1 6718   7.733   2.333   2.809  0.3970  0.9650 -0.4714
 2255TIP3    H2 6719   7.767   2.375   2.951  0.4418 -0.7838  0.0417
 2256TIP3   OH2 6720   1.268   1.684   2.805  0.0241  0.1814 -0.2712
 2256TIP3    H1 6721   1.210   1.747   2.762 -2.5165 -2.5867 -1.1287
 2256TIP3    H2 6722   1.215   1.647   2.875  2.3944  0.8935  1.9752
 2257TIP3   OH2 6723   0.616   2.781   4.627 -0.0735 -0.2672  0.1652
 2257TIP3    H1 6724   0.597   2.690   4.649 -0.0104  0.2139  2.3072
 2257TIP3    H2 6725   0.671   2.775   4.549 -0.5331 -2.0384 -0.0597
 2258TIP3   OH2 6726   6.756   7.111   4.073 -0.2935  0.0452  0.2293
 2258TIP3    H1 6727   6.842   7.069   4.066 -1.0685 -1.2370 -1.8137
 2258TIP3    H2 6728   6.755   7.175   4.002 -1.0867 -0.0436  0.1633
 2259TIP3   OH2 6729   1.545   1.104   5.334  0.3525  0.1947 -0.3164
 2259TIP3    H1 6730   1.464   1.055   5.350  0.8644  0.1277  2.1774
 2259TIP3    H2 6731   1.604   1.040   5.293  0.2854 -0.6875  0.9499
 2260TIP3   OH2 6732   0.999   1.145   3.048  0.3708  0.3826  0.0908
 2260TIP3    H1 6733   1.032   1.185   2.968 -0.7700  3.8658  1.2634
 2260TIP3    H2 6734   1.072   1.151   3.110  0.4969 -0.1921 -0.0020
 2261TIP3   OH2 6735   1.519   1.962   3.206  0.4911  0.0617  0.1522
 2261TIP3    H1 6736   1.481   1.905   3.274  0.0649 -0.1487 -0.2585
 2261TIP3    H2 6737   1.462   1.949   3.130 -0.4922  2.1761  0.5123
 2262TIP3   OH2 6738   2.997   0.261   3.214  0.0140 -0.3558  0.4856
 2262TIP3    H1 6739   2.902   0.258   3.217 -0.0285  0.7759  0.4671
 2262TIP3    H2 6740   3.018   0.290   3.125  0.3286  0.6680  0.8790
 2263TIP3   OH2 6741   0.495   0.349   4.233 -0.3539 -0.1155 -0.5394
 2263TIP3    H1 6742   0.527   0.418   4.292  1.5860 -0.6273 -0.9823
 2263TIP3    H2 6743   0.493   0.391   4.147 -0.5507 -0.2007 -0.5775
 2264TIP3   OH2 6744   4.227   4.891   0.260  0.1055 -0.0994  0.0683
 2264TIP3    H1 6745   4.264   4.970   0.219 -0.8598 -0.3242 -1.2639
 2264TIP3    H2 6746   4.304   4.839   0.285  0.7184  0.4393 -0.6596
 2265TIP3   OH2 6747   0.796   0.374   3.623  0.0122  0.0715  0.1244
 2265TIP3    H1 6748   0.756   0.375   3.710  0.1600 -1.0971  0.2168
 2265TIP3    H2 6749   0.756   0.299   3.579  0.1725  0.4703 -0.7024
 2266TIP3   OH2 6750   6.433   6.401   2.677  0.2237  0.3130  0.3489
 2266TIP3    H1 6751   6.449   6.387   2.584 -1.7590 -1.1648  0.2112
 2266TIP3    H2 6752   6.467   6.490   2.693  1.8490  0.0637 -1.4375
 2267TIP3   OH2 6753   1.224   0.469   4.343  1.1249  0.0053  0.0088
 2267TIP3    H1 6754   1.168   0.544   4.365 -0.0619 -1.0334  0.5760
 2267TIP3    H2 6755   1.312   0.496   4.369  0.9051  1.6513 -0.8698
 2268TIP3   OH2 6756   1.095   3.890   3.548  0.1521  0.4529 -0.6448
 2268TIP3    H1 6757   1.164   3.924   3.491 -0.8203  1.8810 -0.9741
 2268TIP3    H2 6758   1.035   3.844   3.489  0.8098 -0.7959 -0.3573
 2269TIP3   OH2 6759   6.715   1.442   1.878  0.5541 -0.0574  0.1268
 2269TIP3    H1 6760   6.789   1.383   1.892  0.1444 -0.4414  0.7303
 2269TIP3    H2 6761   6.671   1.444   1.963  0.3421  0.8129 -0.0054
 2270TIP3   OH2 6762   6.058   0.493   3.660  0.0408  0.0782 -0.0013
 2270TIP3    H1 6763   5.997   0.422   3.676  0.6824 -0.2782  0.9048
 2270TIP3    H2 6764   6.078   0.528   3.747  2.1861 -0.6973 -0.1611
 2271TIP3   OH2 6765   0.853   2.695   3.975 -0.5772 -0.0568  0.5858
 2271TIP3    H1 6766   0.832   2.771   3.921 -0.9176 -2.3272 -2.6834
 2271TIP3    H2 6767   0.768   2.661   4.004 -0.5529 -0.3492  0.3225
 2272TIP3   OH2 6768   2.526   4.476   3.393 -0.0219  0.5476  0.0098
 2272TIP3    H1 6769   2.534   4.516   3.306 -2.1916  1.0831  0.0117
 2272TIP3    H2 6770   2.569   4.392   3.384 -0.3819  0.5105 -1.6685
 2273TIP3   OH2 6771   2.205   1.991   3.895  0.4792 -0.0548 -0.0558
 2273TIP3    H1 6772   2.194   1.896   3.899  2.4020 -0.3527 -1.1608
 2273TIP3    H2 6773   2.116   2.026   3.889 -0.1635 -1.9382 -2.2782
 2274TIP3   OH2 6774   2.849   2.077   2.812 -0.2429 -0.3103  0.0316
 2274TIP3    H1 6775   2.769   2.025   2.804 -0.7614  0.4103  0.4990
 2274TIP3    H2 6776   2.866   2.110   2.723  1.4918 -3.3153 -0.8117
 2275TIP3   OH2 6777   0.732   4.094   2.111 -0.1886  0.1958  0.0813
 2275TIP3    H1 6778   0.673   4.035   2.157  0.2531 -1.1599 -1.0558
 2275TIP3    H2 6779   0.797   4.119   2.177  0.3433 -1.5841  0.2554
 2276TIP3   OH2 6780   2.348   2.306   3.073  0.8661  0.7083  0.6441
 2276TIP3    H1 6781   2.350   2.334   3.165  1.3280 -1.7441  1.4126
 2276TIP3    H2 6782   2.413   2.237   3.067  1.7750  1.7131 -1.8731
 2277TIP3   OH2 6783   2.024   2.979   4.115  0.6631 -0.5665 -0.4264
 2277TIP3    H1 6784   1.992   3.001   4.028 -0.5059 -0.2259  0.0744
 2277TIP3    H2 6785   2.011   3.059   4.166  2.0890 -0.5048 -0.1381
 2278TIP3   OH2 6786   2.237   1.199   2.471 -0.3143  0.6411 -0.1664
 2278TIP3    H1 6787   2.299   1.129   2.491  1.2122  1.4829 -1.7744
 2278TIP3    H2 6788   2.152   1.164   2.497  0.7122 -0.8853  1.2674
 2279TIP3   OH2 6789   1.954   1.924   3.140 -0.6307  0.0948 -0.4453
 2279TIP3    H1 6790   1.944   1.829   3.139  0.8769 -0.0816 -0.5842
 2279TIP3    H2 6791   2.007   1.943   3.062 -0.8172  1.0355 -0.3494
 2280TIP3   OH2 6792   0.336   1.324   3.486 -0.4525  0.4554 -0.2354
 2280TIP3    H1 6793   0.412   1.382   3.485  0.7744 -1.1058 -0.1391
 2280TIP3    H2 6794   0.260   1.382   3.480  0.7229  2.0978  0.5370
 2281TIP3   OH2 6795   7.370   1.064   3.176 -0.1384  0.1220 -0.1211
 2281TIP3    H1 6796   7.383   0.981   3.221 -0.8818  0.7140  1.2021
 2281TIP3    H2 6797   7.278   1.062   3.149 -0.0348  0.3236 -0.4873
 2282TIP3   OH2 6798   1.677   2.506   4.107 -0.0900  0.6039  0.1205
 2282TIP3    H1 6799   1.680   2.597   4.138 -0.3455  0.4675  0.5468
 2282TIP3    H2 6800   1.712   2.510   4.018  2.5461  0.7080  1.0961
 2283TIP3   OH2 6801   7.277   7.437   4.154 -0.2527 -0.5137  0.6087
 2283TIP3    H1 6802   7.227   7.355   4.158 -1.2630  0.1918  4.0558
 2283TIP3    H2 6803   7.217   7.503   4.189  0.9408  1.5307 -1.1111
 2284TIP3   OH2 6804   2.809   2.280   3.888 -0.1541 -0.4890  0.0355
 2284TIP3    H1 6805   2.741   2.220   3.919  2.0775 -2.6071  1.0526
 2284TIP3    H2 6806   2.849   2.314   3.968 -2.3609  3.6579 -0.4875
 2285TIP3   OH2 6807   2.278   0.542   4.514 -0.2871  0.2932 -0.1924
 2285TIP3    H1 6808   2.256   0.480   4.583 -0.9787  0.0309 -0.6416
 2285TIP3    H2 6809   2.203   0.540   4.455  0.4772  0.1851 -1.1826
 2286TIP3   OH2 6810   3.013   0.153   3.953  0.3380  0.1006  0.0095
 2286TIP3    H1 6811   3.063   0.111   3.884 -0.4313 -0.1544 -0.3981
 2286TIP3    H2 6812   2.931   0.179   3.912  0.9500  2.3964  0.1408
 2287TIP3   OH2 6813   0.799   2.483   5.596 -0.0664 -0.1510 -0.2031
 2287TIP3    H1 6814   0.789   2.557   5.656  0.4970 -0.2131 -0.0286
 2287TIP3    H2 6815   0.793   2.406   5.651  0.7148 -0.2025 -0.1818
 2288TIP3   OH2 6816   7.818   7.308   2.085 -0.2821  0.2628  0.0293
 2288TIP3    H1 6817   7.898   7.274   2.045 -0.5867  0.6658 -0.9374
 2288TIP3    H2 6818   7.842   7.329   2.175  0.7144  0.4461 -0.2818
 2289TIP3   OH2 6819   5.135   7.312   3.566 -0.3390 -0.3904 -0.1607
 2289TIP3    H1 6820   5.089   7.230   3.586 -1.4633 -0.1682 -1.6995
 2289TIP3    H2 6821   5.081   7.379   3.608  0.5579 -0.4344  1.0631
 2290TIP3   OH2 6822   2.122   0.989   6.023  0.2203 -0.7695 -0.1842
 2290TIP3    H1 6823   2.113   0.984   6.118  0.2779  0.7617 -0.0972
 2290TIP3    H2 6824   2.214   0.970   6.007  0.7333  1.3098  0.2461
 2291TIP3   OH2 6825   1.845   3.447   1.990  0.6843 -0.4641  0.2660
 2291TIP3    H1 6826   1.937   3.420   1.998  0.4305 -1.2169  0.6793
 2291TIP3    H2 6827   1.817   3.411   1.906  1.2804  1.3206 -0.7300
 2292TIP3   OH2 6828   2.410   3.426   3.195  0.0053  0.0551 -0.7530
 2292TIP3    H1 6829   2.346   3.363   3.227  0.2584 -1.1723 -2.6229
 2292TIP3    H2 6830   2.357   3.494   3.153 -0.1840  0.3425 -0.0642
 2293TIP3   OH2 6831   1.257   1.566   4.897 -0.2271 -0.1785 -0.1865
 2293TIP3    H1 6832   1.188   1.526   4.950  0.3481 -1.4259 -0.3897
 2293TIP3    H2 6833   1.337   1.520   4.921  0.0085 -0.9145 -2.2972
 2294TIP3   OH2 6834   1.837   2.749   5.476  0.6666  0.1732  0.8023
 2294TIP3    H1 6835   1.767   2.700   5.520  0.3272 -0.5290 -0.5050
 2294TIP3    H2 6836   1.820   2.840   5.500 -1.0837  0.0886 -0.0100
 2295TIP3   OH2 6837   7.875   1.689   4.165  0.3508  0.2861 -0.0733
 2295TIP3    H1 6838   7.881   1.598   4.135  1.6505  0.7457 -1.2381
 2295TIP3    H2 6839   7.914   1.740   4.095 -2.2913  1.9638 -0.3754
 2296TIP3   OH2 6840   2.865   4.817   0.555  0.2918  0.1084  0.4992
 2296TIP3    H1 6841   2.919   4.740   0.538  0.3930  0.2475  0.1892
 2296TIP3    H2 6842   2.778   4.782   0.573  0.0676 -0.0171 -0.7874
 2297TIP3   OH2 6843   0.356   1.743   5.810  0.0424  0.1218  0.1947
 2297TIP3    H1 6844   0.277   1.750   5.758 -0.2089  2.8407  0.8510
 2297TIP3    H2 6845   0.347   1.661   5.858 -2.5495  0.5737  0.5238
 2298TIP3   OH2 6846   0.934   2.777   4.271  0.1666  0.2041 -0.2671
 2298TIP3    H1 6847   0.958   2.711   4.207  0.0639 -1.1143  1.0316
 2298TIP3    H2 6848   0.841   2.795   4.253 -0.5570 -1.9753  1.0457
 2299TIP3   OH2 6849   1.209   1.832   4.896  0.3440 -0.0970 -0.4739
 2299TIP3    H1 6850   1.252   1.850   4.812 -0.9925 -1.1418 -1.4076
 2299TIP3    H2 6851   1.223   1.738   4.910 -0.1776 -0.0983  0.0592
 2300TIP3   OH2 6852   2.000   1.580   2.284 -0.5693 -0.3154  0.2888
 2300TIP3    H1 6853   2.053   1.501   2.297 -2.6152 -1.7080  0.4316
 2300TIP3    H2 6854   2.031   1.617   2.201  0.1332 -1.4819  0.0260
 2301TIP3   OH2 6855   2.875   2.496   3.723  0.3457  0.2858  0.4602
 2301TIP3    H1 6856   2.866   2.404   3.747  2.0054  0.0028  0.0279
 2301TIP3    H2 6857   2.910   2.494   3.634 -0.4852  1.3435  0.0931
 2302TIP3   OH2 6858   2.347   4.683   4.446  0.2251  0.1351 -0.3099
 2302TIP3    H1 6859   2.329   4.775   4.425  0.3406  0.0117 -0.9461
 2302TIP3    H2 6860   2.278   4.659   4.508 -0.8755  0.1342 -1.5081
 2303TIP3   OH2 6861   6.849   7.107   4.366  0.3601  0.3165 -0.2201
 2303TIP3    H1 6862   6.775   7.139   4.417  0.9282 -0.1309  0.9119
 2303TIP3    H2 6863   6.820   7.112   4.275 -1.1723 -0.1519  0.2224
 2304TIP3   OH2 6864   1.885   4.469   2.329 -0.1113  0.3830  0.6345
 2304TIP3    H1 6865   1.888   4.526   2.252  1.8671 -0.1277  0.2922
 2304TIP3    H2 6866   1.851   4.386   2.296  2.1271 -0.3010 -0.0429
 2305TIP3   OH2 6867   1.140   1.212   2.012 -0.1713 -0.1637  0.3522
 2305TIP3    H1 6868   1.073   1.144   2.020 -1.1480  0.6860 -0.3722
 2305TIP3    H2 6869   1.101   1.289   2.052  2.2023 -0.8417  4.1548
 2306TIP3   OH2 6870   1.104   0.249   0.623 -0.2856  0.1548  0.2502
 2306TIP3    H1 6871   1.059   0.229   0.541  0.4974  0.0239 -0.1502
 2306TIP3    H2 6872   1.046   0.216   0.691 -0.7816 -0.0388 -0.2637
 2307TIP3   OH2 6873   3.574   2.184   5.024 -0.3644  0.5296  0.9080
 2307TIP3    H1 6874   3.522   2.125   4.969 -0.7742  1.8058 -0.0919
 2307TIP3    H2 6875   3.525   2.190   5.106 -0.9339  0.4131  0.5805
 2308TIP3   OH2 6876   0.475   2.338   4.041 -0.2248 -0.0990  0.6455
 2308TIP3    H1 6877   0.513   2.276   3.979 -1.4744 -0.5232  0.2925
 2308TIP3    H2 6878   0.444   2.285   4.114 -0.8255  0.1633  0.5849
 2309TIP3   OH2 6879   3.054   1.716   4.726 -0.4565 -0.5784 -0.5051
 2309TIP3    H1 6880   3.021   1.706   4.637  1.6842  0.3239 -1.4280
 2309TIP3    H2 6881   3.146   1.688   4.721  0.9599  3.6429  0.4271
 2310TIP3   OH2 6882   0.289   1.767   2.790 -0.3344  0.2480 -0.1925
 2310TIP3    H1 6883   0.216   1.756   2.851 -0.7487 -1.7929 -1.0556
 2310TIP3    H2 6884   0.326   1.680   2.780  2.1756  1.2421  0.1552
 2311TIP3   OH2 6885   1.932   3.286   3.722 -0.3251 -0.7869  1.0754
 2311TIP3    H1 6886   1.998   3.348   3.690  0.4253 -1.5079  1.2146
 2311TIP3    H2 6887   1.857   3.299   3.664  0.4937 -1.0472 -0.0782
 2312TIP3   OH2 6888   7.717   2.943   2.279 -0.1983 -0.6623 -0.4413
 2312TIP3    H1 6889   7.687   2.867   2.328 -2.4451 -0.5056 -1.5142
 2312TIP3    H2 6890   7.671   3.017   2.318  0.9065 -0.0188 -0.3185
 2313TIP3   OH2 6891   2.266   2.936   4.239  0.4610  0.8856  0.8335
 2313TIP3    H1 6892   2.198   2.942   4.171 -0.4785  0.4447  1.7252
 2313TIP3    H2 6893   2.338   2.890   4.197 -0.2488  0.3047  0.2331
 2314TIP3   OH2 6894   2.283   0.209   2.756 -0.4375  0.4183  0.1200
 2314TIP3    H1 6895   2.364   0.230   2.709 -1.1868  0.4613 -1.1624
 2314TIP3    H2 6896   2.244   0.294   2.777 -0.4249  0.3877  0.2717
 2315TIP3   OH2 6897   2.753   1.890   4.020  0.1174  0.0949 -0.3884
 2315TIP3    H1 6898   2.725   1.979   3.998 -1.2315 -0.4585 -0.9769
 2315TIP3    H2 6899   2.686   1.834   3.982  1.1567 -1.2020 -0.3379
 2316TIP3   OH2 6900   1.547   2.040   3.538  0.0274  0.3550 -0.5877
 2316TIP3    H1 6901   1.627   2.026   3.588 -0.7660 -0.0643  0.5792
 2316TIP3    H2 6902   1.483   1.980   3.577 -0.4500 -0.4016 -2.4707
 2317TIP3   OH2 6903   4.185   6.011   0.513 -0.0995 -0.1791 -0.0186
 2317TIP3    H1 6904   4.185   5.918   0.489  1.7882 -0.4885  1.1733
 2317TIP3    H2 6905   4.140   6.053   0.439 -0.3051 -1.9284 -0.9415
 2318TIP3   OH2 6906   2.304   0.193   4.750 -0.3752 -0.0731 -0.2523
 2318TIP3    H1 6907   2.315   0.141   4.670  0.3868 -0.0774 -0.1483
 2318TIP3    H2 6908   2.387   0.184   4.796 -0.0382  1.6511 -0.4777
 2319TIP3   OH2 6909   1.300   2.914   3.605  0.0510 -0.2699 -0.4827
 2319TIP3    H1 6910   1.272   2.852   3.673 -1.5008 -1.9873 -2.5801
 2319TIP3    H2 6911   1.220   2.933   3.556  0.9615  1.6482 -1.2575
 2320TIP3   OH2 6912   0.895   0.755   4.652  0.3365 -0.4061  0.1733
 2320TIP3    H1 6913   0.947   0.702   4.713 -0.9563  0.1634  1.8168
 2320TIP3    H2 6914   0.885   0.839   4.697 -0.9700 -0.0976 -0.6861
 2321TIP3   OH2 6915   3.047   2.652   3.922 -0.0174 -0.0340  0.1005
 2321TIP3    H1 6916   2.974   2.616   3.872  1.4275  0.4390 -2.4218
 2321TIP3    H2 6917   3.006   2.700   3.994 -2.2229  1.0520 -1.8322
 2322TIP3   OH2 6918   7.132   2.307   3.249 -0.0718 -0.6109 -0.6682
 2322TIP3    H1 6919   7.039   2.288   3.261 -0.4122  1.1547 -0.4379
 2322TIP3    H2 6920   7.165   2.325   3.336  0.3508 -0.6017 -0.8284
 2323TIP3   OH2 6921   1.216   6.177   1.678  0.2460  0.1962 -0.8016
 2323TIP3    H1 6922   1.138   6.231   1.667 -0.2350  0.2334  2.2124
 2323TIP3    H2 6923   1.282   6.238   1.712  0.2530 -0.6834  0.8215
 2324TIP3   OH2 6924   3.335   3.522   3.109 -0.1346  0.1708 -0.3292
 2324TIP3    H1 6925   3.250   3.502   3.148 -0.4102  1.5598 -0.1802
 2324TIP3    H2 6926   3.390   3.548   3.183  0.5424 -1.0469 -0.3783
 2325TIP3   OH2 6927   3.953   1.464   2.099  0.0691 -0.7236 -0.3119
 2325TIP3    H1 6928   3.950   1.523   2.175 -1.4889  0.8361 -1.5666
 2325TIP3    H2 6929   3.928   1.378   2.134 -0.2266 -0.1075  1.0128
 2326TIP3   OH2 6930   5.323   5.469   4.383 -0.2226 -0.1726 -0.0265
 2326TIP3    H1 6931   5.283   5.392   4.344  0.2522 -0.5020  0.1285
 2326TIP3    H2 6932   5.399   5.435   4.430  1.0297  0.5952 -1.4426
 2327TIP3   OH2 6933   1.766   1.578   2.122 -0.2725 -0.2140  0.2445
 2327TIP3    H1 6934   1.830   1.598   2.191  0.3649 -0.3227 -0.3060
 2327TIP3    H2 6935   1.795   1.630   2.047 -1.0860  0.0673  0.1273
 2328TIP3   OH2 6936   2.090   2.785   3.319  0.0337  0.1395  0.1514
 2328TIP3    H1 6937   2.072   2.701   3.362  2.1717 -0.7437 -0.6414
 2328TIP3    H2 6938   2.137   2.836   3.385 -0.4086  0.3678  0.2952
 2329TIP3   OH2 6939   2.468   1.414   3.709  0.0051  0.0933  1.0025
 2329TIP3    H1 6940   2.376   1.442   3.710  0.0467  0.2582  0.4439
 2329TIP3    H2 6941   2.481   1.377   3.621 -0.0361 -1.6459  1.7182
 2330TIP3   OH2 6942   4.628   2.722   3.685 -0.0322  0.3424  0.0263
 2330TIP3    H1 6943   4.613   2.694   3.775 -1.3201 -0.0816 -0.3094
 2330TIP3    H2 6944   4.719   2.698   3.667  0.4076  0.9467  1.3970
 2331TIP3   OH2 6945   4.764   3.572   2.503 -0.3542  0.0191  0.3040
 2331TIP3    H1 6946   4.687   3.628   2.508  0.1734  0.8936 -0.9311
 2331TIP3    H2 6947   4.835   3.624   2.542 -0.6581 -1.3447  2.7857
 2332TIP3   OH2 6948   1.222   7.352   3.841 -0.0963 -0.5081  1.1228
 2332TIP3    H1 6949   1.178   7.396   3.768 -0.9915 -2.6289  0.3598
 2332TIP3    H2 6950   1.182   7.389   3.919  0.1261  1.0117  0.5350
 2333TIP3   OH2 6951   2.802   2.397   5.456 -0.8398  0.2386 -0.2183
 2333TIP3    H1 6952   2.803   2.346   5.537 -0.6236  0.5617 -0.0193
 2333TIP3    H2 6953   2.886   2.378   5.415 -0.2694  1.3659  0.4306
 2334TIP3   OH2 6954   0.384   5.483   5.943  0.6002 -0.4627 -0.2225
 2334TIP3    H1 6955   0.289   5.487   5.952  0.6171 -0.9539  0.2122
 2334TIP3    H2 6956   0.418   5.527   6.021  0.7297 -0.2865 -0.3779
 2335TIP3   OH2 6957   2.588   3.180   3.097 -0.6104 -0.0046 -0.0442
 2335TIP3    H1 6958   2.598   3.130   3.016 -0.2441  0.2348 -0.1469
 2335TIP3    H2 6959   2.512   3.236   3.081 -0.3397  0.2794 -0.3472
 2336TIP3   OH2 6960   2.205   1.454   3.917  0.5641 -0.5136 -0.1991
 2336TIP3    H1 6961   2.178   1.544   3.937  0.7715 -0.9371  2.2300
 2336TIP3    H2 6962   2.183   1.442   3.825 -4.0037  0.4608  0.6093
 2337TIP3   OH2 6963   3.143   1.146   1.941 -0.2109  0.2795  0.0143
 2337TIP3    H1 6964   3.226   1.192   1.937 -0.1264  0.0725 -0.6452
 2337TIP3    H2 6965   3.165   1.060   1.977 -0.1743  0.3021  0.0458
 2338TIP3   OH2 6966   1.799   1.459   3.906  0.1079 -0.3396 -0.6250
 2338TIP3    H1 6967   1.815   1.455   3.812  1.9036  0.4154 -0.3630
 2338TIP3    H2 6968   1.863   1.522   3.939 -0.4009 -0.7097  1.1244
 2339TIP3   OH2 6969   4.658   1.276   2.482 -0.1571 -0.1446  0.3033
 2339TIP3    H1 6970   4.627   1.360   2.447  0.2494 -0.2261 -0.2612
 2339TIP3    H2 6971   4.595   1.212   2.449 -1.3403  0.1142  1.9771
 2340TIP3   OH2 6972   3.206   1.052   2.857  0.5365  0.5368 -0.1656
 2340TIP3    H1 6973   3.187   1.008   2.940  1.4927 -0.3158 -0.3898
 2340TIP3    H2 6974   3.286   1.011   2.826  0.4871  1.2401 -1.2452
 2341TIP3   OH2 6975   4.628   4.332   2.700  0.0980 -0.6794 -0.0971
 2341TIP3    H1 6976   4.588   4.418   2.683  0.9000 -0.2653  0.0497
 2341TIP3    H2 6977   4.595   4.307   2.787  0.3153 -0.2448  0.1140
 2342TIP3   OH2 6978   3.533   1.674   2.271  0.3543 -0.4191  0.2009
 2342TIP3    H1 6979   3.540   1.704   2.361  2.2358  1.8211 -0.6273
 2342TIP3    H2 6980   3.471   1.733   2.230 -1.3486 -2.1191  0.2670
 2343TIP3   OH2 6981   1.678   1.705   2.545  0.7193  0.2265  0.4711
 2343TIP3    H1 6982   1.633   1.725   2.463 -0.5292  1.2554  1.4007
 2343TIP3    H2 6983   1.753   1.764   2.547  0.1405  0.9559  0.5840
 2344TIP3   OH2 6984   3.756   2.755   4.197 -0.1565  0.6157  0.0952
 2344TIP3    H1 6985   3.667   2.738   4.226  0.3437  0.0685  1.3496
 2344TIP3    H2 6986   3.811   2.725   4.269  1.1133 -0.5540 -1.3075
 2345TIP3   OH2 6987   1.396   2.461   4.449  0.0436 -0.6482 -0.3476
 2345TIP3    H1 6988   1.477   2.431   4.409 -1.3174 -2.8062 -1.6199
 2345TIP3    H2 6989   1.407   2.444   4.543  0.9731 -1.1281 -0.5420
 2346TIP3   OH2 6990   0.972   1.100   4.718 -0.0782 -0.0127 -0.4159
 2346TIP3    H1 6991   0.892   1.107   4.666  1.5850  0.3466 -3.0241
 2346TIP3    H2 6992   1.004   1.190   4.725  1.1249 -0.3814 -1.0894
 2347TIP3   OH2 6993   0.203   2.273   2.484  0.0581  0.3235  0.2512
 2347TIP3    H1 6994   0.262   2.342   2.456 -0.2376 -0.4057 -2.3277
 2347TIP3    H2 6995   0.260   2.198   2.502  0.1289  0.3806  0.2653
 2348TIP3   OH2 6996   1.847   2.246   2.825  0.3096  0.6322  0.1703
 2348TIP3    H1 6997   1.929   2.259   2.873  0.0930  0.1232  0.6814
 2348TIP3    H2 6998   1.865   2.280   2.737  0.9475  0.8698  0.3916
 2349TIP3   OH2 6999   0.850   3.503   1.476 -0.0988  0.2753 -0.1863
 2349TIP3    H1 7000   0.855   3.594   1.445 -0.6368  0.5544  0.5476
 2349TIP3    H2 7001   0.798   3.508   1.556  0.5587 -0.5732  0.2963
 2350TIP3   OH2 7002   1.733   2.552   3.847 -0.1642 -0.0628 -0.4386
 2350TIP3    H1 7003   1.655   2.497   3.835  0.2397 -1.7499  3.6690
 2350TIP3    H2 7004   1.806   2.493   3.827  0.1624  0.0892  0.2942
 2351TIP3   OH2 7005   3.907   2.961   4.497  0.4168 -0.1331 -0.7215
 2351TIP3    H1 7006   3.977   2.973   4.560 -1.4030 -0.4551  1.4181
 2351TIP3    H2 7007   3.907   2.867   4.478 -0.9851 -0.5359  1.1610
 2352TIP3   OH2 7008   2.788   2.682   0.774  0.2942  0.3547  0.2632
 2352TIP3    H1 7009   2.845   2.615   0.736  1.0968  0.7195  0.8098
 2352TIP3    H2 7010   2.700   2.659   0.742  0.9145  0.5446 -1.6568
 2353TIP3   OH2 7011   0.886   0.033   4.087 -0.1534 -0.7642  0.3618
 2353TIP3    H1 7012   0.864  -0.039   4.028 -0.7945 -1.1379  1.0505
 2353TIP3    H2 7013   0.979   0.049   4.072 -0.6793  0.3262 -2.0487
 2354TIP3   OH2 7014   3.015   2.452   1.831 -0.0547  0.3730  0.5297
 2354TIP3    H1 7015   2.978   2.466   1.744 -0.2432 -3.0238  0.0019
 2354TIP3    H2 7016   3.110   2.446   1.816  0.1825  2.5527  0.9838
 2355TIP3   OH2 7017   1.856   3.713   4.659 -0.6751 -0.5180 -0.2772
 2355TIP3    H1 7018   1.932   3.723   4.602  0.2221  1.5873  1.2180
 2355TIP3    H2 7019   1.884   3.648   4.724 -0.1559  0.2389  0.2590
 2356TIP3   OH2 7020   3.134   2.338   3.780 -0.3114  0.3647  0.2510
 2356TIP3    H1 7021   3.070   2.387   3.729 -1.2098 -0.1524  0.8539
 2356TIP3    H2 7022   3.081   2.286   3.841  0.7275  0.8965  1.6398
 2357TIP3   OH2 7023   1.873   3.356   4.024  0.2004 -0.0486 -0.0699
 2357TIP3    H1 7024   1.947   3.315   4.068  2.7175  1.4832 -2.6595
 2357TIP3    H2 7025   1.877   3.323   3.934 -1.7909  0.6538 -0.4406
 2358TIP3   OH2 7026   1.541   2.513   2.825 -0.3136 -0.2916 -0.5382
 2358TIP3    H1 7027   1.578   2.484   2.908 -0.2890  0.3153 -0.3375
 2358TIP3    H2 7028   1.517   2.432   2.780 -0.6473 -0.6095  0.2054
 2359TIP3   OH2 7029   3.819   2.574   2.488 -0.0924 -0.1942 -1.0283
 2359TIP3    H1 7030   3.847   2.549   2.400 -1.7829 -0.8781 -1.4009
 2359TIP3    H2 7031   3.724   2.563   2.486 -0.1110 -0.5441  0.9899
 2360TIP3   OH2 7032   1.507   2.732   2.672  0.4069 -0.7976  0.3760
 2360TIP3    H1 7033   1.448   2.705   2.602  0.0625 -1.8953  1.0743
 2360TIP3    H2 7034   1.521   2.653   2.724  2.2225 -0.4763  0.4260
 2361TIP3   OH2 7035   2.616   0.816   3.600  0.5623 -0.0081 -0.0116
 2361TIP3    H1 7036   2.657   0.754   3.539 -2.9951 -0.9164 -1.5666
 2361TIP3    H2 7037   2.672   0.893   3.597  3.0353 -1.7692 -0.8373
 2362TIP3   OH2 7038   3.953   1.733   2.930 -0.3639 -0.4370  0.0801
 2362TIP3    H1 7039   3.886   1.685   2.979  1.9195 -0.2166  3.5795
 2362TIP3    H2 7040   3.951   1.821   2.967  0.6982  0.0364 -0.9803
 2363TIP3   OH2 7041   3.036   1.048   0.950 -0.1406 -0.1314  0.0004
 2363TIP3    H1 7042   3.124   1.023   0.976 -0.0020 -0.3639 -0.6856
 2363TIP3    H2 7043   3.047   1.129   0.900 -0.4121  0.3574  0.7268
 2364TIP3   OH2 7044   2.073   4.319   3.019  0.3223  0.4780  0.2145
 2364TIP3    H1 7045   2.072   4.338   3.113 -0.5351  0.1648  0.2612
 2364TIP3    H2 7046   2.098   4.403   2.979  0.5795  0.6405  0.7094
 2365TIP3   OH2 7047   3.520   4.187   3.234 -0.0242  0.0996 -0.1262
 2365TIP3    H1 7048   3.438   4.203   3.280  1.2125  0.4147  2.0048
 2365TIP3    H2 7049   3.493   4.170   3.143 -2.5039 -0.7885  0.7290
 2366TIP3   OH2 7050   2.964   3.504   3.608 -0.0938 -0.0955 -0.3634
 2366TIP3    H1 7051   3.051   3.533   3.636 -0.5827  1.2049 -0.1576
 2366TIP3    H2 7052   2.957   3.414   3.640  1.0785 -0.1184 -0.1697
 2367TIP3   OH2 7053   2.776   1.218   3.974 -0.1493  0.1235  0.0937
 2367TIP3    H1 7054   2.828   1.298   3.984  0.2887 -0.2748  0.9964
 2367TIP3    H2 7055   2.693   1.249   3.938 -0.2386  1.0839  1.0928
 2368TIP3   OH2 7056   2.655   3.424   3.696  0.0483  0.4132  0.0825
 2368TIP3    H1 7057   2.716   3.397   3.628 -0.0388 -0.5508  0.3703
 2368TIP3    H2 7058   2.570   3.426   3.653  0.1415  0.8403 -0.0883
 2369TIP3   OH2 7059   3.577   1.515   4.084 -1.5694 -0.0665 -0.2596
 2369TIP3    H1 7060   3.595   1.497   4.176 -0.8834 -1.6191 -0.6889
 2369TIP3    H2 7061   3.490   1.478   4.068 -1.9391  0.7264 -0.0891
 2370TIP3   OH2 7062   5.406   1.641   3.591  0.5374  0.1012  0.1164
 2370TIP3    H1 7063   5.321   1.630   3.634  0.8946 -1.4374  0.4565
 2370TIP3    H2 7064   5.413   1.735   3.574 -1.0602  0.2771  0.4364
 2371TIP3   OH2 7065   0.608   6.245   4.596 -0.1315  0.5621 -0.2147
 2371TIP3    H1 7066   0.539   6.183   4.574  0.3761 -1.3312  3.3252
 2371TIP3    H2 7067   0.686   6.211   4.551 -0.1859 -0.6064  0.5502
 2372TIP3   OH2 7068   2.740   1.824   0.901 -0.3255  0.0712 -0.2958
 2372TIP3    H1 7069   2.687   1.806   0.823  1.4240 -0.1367 -1.4626
 2372TIP3    H2 7070   2.782   1.741   0.922 -0.6052  0.1859  0.7290
 2373TIP3   OH2 7071   2.309   0.482   3.872 -0.2680  0.6968 -0.1457
 2373TIP3    H1 7072   2.316   0.400   3.824 -0.2253  0.0060  1.0254
 2373TIP3    H2 7073   2.395   0.493   3.914 -1.3934 -0.4649  2.5492
 2374TIP3   OH2 7074   0.769   6.981   3.282  0.2384  0.2389  0.0591
 2374TIP3    H1 7075   0.789   6.959   3.191  0.7518 -1.9183  0.6626
 2374TIP3    H2 7076   0.711   6.910   3.311  1.6303 -0.1521  1.9614
 2375TIP3   OH2 7077   5.410   5.639   0.048  0.3901 -0.0100  0.8286
 2375TIP3    H1 7078   5.391   5.731   0.031  0.6000 -0.0602  0.3204
 2375TIP3    H2 7079   5.472   5.640   0.121 -1.0271  0.1818  2.0594
 2376TIP3   OH2 7080   4.389   2.248   3.301  0.4352  0.5092  0.2858
 2376TIP3    H1 7081   4.327   2.223   3.370  0.8968  0.5994  0.7359
 2376TIP3    H2 7082   4.393   2.172   3.244  1.2984 -0.2009  1.2627
 2377TIP3   OH2 7083   3.378   1.532   4.476  0.4180 -0.0930 -0.2056
 2377TIP3    H1 7084   3.346   1.601   4.418  0.0245 -2.1322 -2.4561
 2377TIP3    H2 7085   3.386   1.576   4.561  0.3473  2.7625 -1.5925
 2378TIP3   OH2 7086   2.620   2.070   3.668 -0.1956  0.0679  0.8378
 2378TIP3    H1 7087   2.538   2.103   3.706 -0.0574  1.2519  0.1325
 2378TIP3    H2 7088   2.602   2.065   3.574 -0.0869 -1.5484  0.8946
 2379TIP3   OH2 7089   1.975   4.545   4.622 -0.1219  0.5848  0.1387
 2379TIP3    H1 7090   1.954   4.457   4.589  0.3832  0.3360  0.4742
 2379TIP3    H2 7091   1.894   4.575   4.663  0.0552 -0.2163  1.1044
 2380TIP3   OH2 7092   2.415   2.037   1.652  0.2427 -0.2257 -0.4243
 2380TIP3    H1 7093   2.437   2.011   1.741  0.0613  1.6747  0.2112
 2380TIP3    H2 7094   2.496   2.023   1.602  0.2575 -1.5719 -0.0234
 2381TIP3   OH2 7095   4.735   3.223   3.604  0.2978  0.4964 -0.8047
 2381TIP3    H1 7096   4.793   3.269   3.664  0.2016  0.3174 -0.5731
 2381TIP3    H2 7097   4.698   3.292   3.549  0.0029  0.7197 -0.3277
 2382TIP3   OH2 7098   2.171   2.405   4.795  0.0137 -0.1927  0.8880
 2382TIP3    H1 7099   2.104   2.474   4.799 -0.2131 -0.4757  2.8993
 2382TIP3    H2 7100   2.126   2.328   4.831  0.5753 -1.1150 -0.3919
 2383TIP3   OH2 7101   3.384   2.404   4.734 -0.4005 -0.3339  0.1339
 2383TIP3    H1 7102   3.395   2.399   4.639 -1.3654 -1.8678  0.0729
 2383TIP3    H2 7103   3.289   2.399   4.747 -0.1343 -3.3050  1.2959
 2384TIP3   OH2 7104   3.185   0.747   3.706  0.1982 -0.9515  0.2461
 2384TIP3    H1 7105   3.160   0.683   3.640 -0.9837 -0.4230  0.1788
 2384TIP3    H2 7106   3.264   0.788   3.670 -1.3572  0.5024 -1.6409
 2385TIP3   OH2 7107   2.290   1.388   4.186  0.3768  0.5943  0.2877
 2385TIP3    H1 7108   2.268   1.387   4.093  0.2691 -0.9596  0.3216
 2385TIP3    H2 7109   2.208   1.365   4.230 -0.1460  3.4840  0.9066
 2386TIP3   OH2 7110   1.833   2.920   2.931 -0.7052 -0.0359  0.0632
 2386TIP3    H1 7111   1.912   2.898   2.980  0.4439  0.7398 -1.4086
 2386TIP3    H2 7112   1.783   2.975   2.991  0.9703  1.4252  0.1787
 2387TIP3   OH2 7113   1.713   1.155   3.209  0.6589  0.4661 -0.2375
 2387TIP3    H1 7114   1.776   1.086   3.232 -0.2985 -0.2382  0.3492
 2387TIP3    H2 7115   1.687   1.192   3.293  0.8316  1.2470 -0.5280
 2388TIP3   OH2 7116   0.631   4.617   2.883  0.2374  0.7257 -0.7786
 2388TIP3    H1 7117   0.572   4.668   2.938 -0.5342  0.3557 -1.2625
 2388TIP3    H2 7118   0.678   4.683   2.832 -1.0745  0.9373 -1.7259
 2389TIP3   OH2 7119   1.824   2.559   3.052  0.4795  0.4167 -0.4769
 2389TIP3    H1 7120   1.903   2.613   3.060  1.2800 -0.5883 -1.5034
 2389TIP3    H2 7121   1.794   2.573   2.962 -0.2394  0.4043 -0.2439
 2390TIP3   OH2 7122   4.633   3.167   3.959  0.5763 -0.0932  0.1670
 2390TIP3    H1 7123   4.613   3.125   3.875 -1.1715 -0.7751  0.8983
 2390TIP3    H2 7124   4.619   3.260   3.944 -0.6970 -0.3154 -0.0358
 2391TIP3   OH2 7125   1.949   2.133   3.833  0.6207  0.4372 -0.0113
 2391TIP3    H1 7126   1.894   2.157   3.908  0.2335 -1.7028  0.4040
 2391TIP3    H2 7127   1.905   2.058   3.793  1.6908  0.5412 -1.4219
 2392TIP3   OH2 7128   1.169   2.766   2.544  0.2436 -0.3567 -0.2440
 2392TIP3    H1 7129   1.196   2.790   2.633  2.1495 -2.7262 -0.1612
 2392TIP3    H2 7130   1.074   2.758   2.550 -0.1890  3.8985  0.4693
 2393TIP3   OH2 7131   3.042   3.274   1.623  0.0096 -0.3079 -0.6567
 2393TIP3    H1 7132   3.005   3.340   1.680 -1.0330 -2.4262  1.2157
 2393TIP3    H2 7133   3.000   3.287   1.539 -1.9647 -0.1082  0.3479
 2394TIP3   OH2 7134   3.228   3.806   1.781 -0.3733 -0.0921 -0.3999
 2394TIP3    H1 7135   3.201   3.849   1.862  1.0278 -0.8748  0.5039
 2394TIP3    H2 7136   3.231   3.713   1.804 -0.4364 -0.3733 -1.4959
 2395TIP3   OH2 7137   3.627   2.456   2.906  0.4560 -0.7560 -0.2126
 2395TIP3    H1 7138   3.655   2.548   2.905  0.7252 -0.8224  1.0283
 2395TIP3    H2 7139   3.680   2.415   2.973 -0.6843 -1.4968  0.2549
 2396TIP3   OH2 7140   2.245   3.369   4.542  0.1953  0.2972 -0.2280
 2396TIP3    H1 7141   2.223   3.462   4.535  2.2313  0.7151 -1.3232
 2396TIP3    H2 7142   2.238   3.336   4.453  3.0513  0.2502 -0.4830
 2397TIP3   OH2 7143   3.225   2.591   2.080  0.4675  0.3030 -0.0244
 2397TIP3    H1 7144   3.143   2.543   2.083  1.1700 -0.9250 -0.2326
 2397TIP3    H2 7145   3.199   2.683   2.073 -0.8804 -0.0701  0.0428
 2398TIP3   OH2 7146   0.516   3.174   2.826  0.5312  0.2211  0.0693
 2398TIP3    H1 7147   0.509   3.246   2.889  1.3007  0.3722 -0.0190
 2398TIP3    H2 7148   0.452   3.195   2.758  0.6422  0.7406  0.1248
 2399TIP3   OH2 7149   1.895   1.025   3.380  0.0340 -0.4456  0.1298
 2399TIP3    H1 7150   1.916   0.947   3.432 -0.8726 -0.7641  0.0228
 2399TIP3    H2 7151   1.976   1.077   3.382  0.1065 -0.5884  1.5885
 2400TIP3   OH2 7152   7.037   6.983   4.093  0.1647 -0.4683  0.2512
 2400TIP3    H1 7153   7.013   6.916   4.158 -1.7908  1.2171  1.3084
 2400TIP3    H2 7154   7.019   6.941   4.009 -0.9634 -1.3251  0.8916
 2401TIP3   OH2 7155   0.138   7.453   3.375  0.3014  0.6927 -0.7152
 2401TIP3    H1 7156   0.144   7.358   3.377 -1.3525  0.5865  0.5572
 2401TIP3    H2 7157   0.095   7.473   3.292 -1.5643  0.1439  0.0762
 2402TIP3   OH2 7158   7.602   2.503   6.385  0.3062 -0.1521 -0.2026
 2402TIP3    H1 7159   7.638   2.481   6.471  0.0322 -2.1479 -0.5939
 2402TIP3    H2 7160   7.538   2.435   6.367 -2.6401  2.4869 -0.2135
 2403TIP3   OH2 7161   4.191   1.119   2.151 -0.1798  0.6556  0.0570
 2403TIP3    H1 7162   4.138   1.078   2.083  0.4088 -0.5143  0.3043
 2403TIP3    H2 7163   4.136   1.117   2.229 -0.0702  0.1347  0.1227
 2404TIP3   OH2 7164   4.153   3.407   3.016 -0.2863  0.3715  0.1822
 2404TIP3    H1 7165   4.162   3.320   3.056 -2.4179 -0.2900 -0.6949
 2404TIP3    H2 7166   4.238   3.449   3.031 -0.1795 -0.7727  3.1484
 2405TIP3   OH2 7167   2.801   4.174   1.379  0.1207  0.3309 -0.1215
 2405TIP3    H1 7168   2.724   4.206   1.330  0.0336 -0.8454 -0.7734
 2405TIP3    H2 7169   2.765   4.139   1.460 -0.0635 -0.3634 -0.4951
 2406TIP3   OH2 7170   3.371   0.936   3.054  0.0595 -0.0398  0.0061
 2406TIP3    H1 7171   3.447   0.884   3.079 -0.2215 -0.1542  0.6258
 2406TIP3    H2 7172   3.408   1.020   3.025  0.4325 -0.1582  0.1296
 2407TIP3   OH2 7173   2.846   2.814   1.600  0.7034  0.3672 -0.7853
 2407TIP3    H1 7174   2.910   2.872   1.642  1.1850 -0.2269 -0.6826
 2407TIP3    H2 7175   2.779   2.873   1.566 -0.4468  0.7965  2.0676
 2408TIP3   OH2 7176   2.311   1.018   3.573  0.5086 -0.1141  0.0675
 2408TIP3    H1 7177   2.292   0.928   3.546  1.6335 -0.5988  0.8367
 2408TIP3    H2 7178   2.297   1.018   3.667  0.2651  0.5856  0.0307
 2409TIP3   OH2 7179   1.287   0.593   2.547 -0.1507 -0.8304 -0.1364
 2409TIP3    H1 7180   1.235   0.590   2.467 -0.6365  0.0249  0.1406
 2409TIP3    H2 7181   1.327   0.680   2.546  0.2544 -1.0083  0.2943
 2410TIP3   OH2 7182   3.079   3.575   2.711 -0.7480 -0.1869 -0.3134
 2410TIP3    H1 7183   3.106   3.483   2.717 -0.3553 -0.0464  0.0639
 2410TIP3    H2 7184   3.138   3.621   2.770  0.2009  0.5620 -1.8040
 2411TIP3   OH2 7185   2.892   2.542   2.609 -0.9121  0.3888 -0.1605
 2411TIP3    H1 7186   2.800   2.545   2.633 -0.6031  1.3169  0.9392
 2411TIP3    H2 7187   2.940   2.553   2.692  0.2121 -2.6912 -0.3549
 2412TIP3   OH2 7188   3.045   0.963   3.100  0.3165  0.3145  0.8423
 2412TIP3    H1 7189   2.961   0.961   3.147  0.1067  1.1730  0.4923
 2412TIP3    H2 7190   3.103   0.909   3.154 -1.2002 -2.6406 -0.3502
 2413TIP3   OH2 7191   4.310   4.781   6.074  0.4009 -0.0662 -0.5047
 2413TIP3    H1 7192   4.298   4.761   6.166 -0.8323  1.0655 -0.4034
 2413TIP3    H2 7193   4.347   4.701   6.036 -1.5334 -1.4613  0.4636
 2414TIP3   OH2 7194   2.060   4.264   3.284 -0.5115 -0.2281 -0.4683
 2414TIP3    H1 7195   2.082   4.252   3.377  1.2620  1.8244 -0.5962
 2414TIP3    H2 7196   2.113   4.199   3.238  0.2739  0.2222 -0.2115
 2415TIP3   OH2 7197   2.176   2.079   1.521  0.2884 -0.0709 -0.2743
 2415TIP3    H1 7198   2.173   2.173   1.501  1.6480  0.0851  0.1966
 2415TIP3    H2 7199   2.266   2.064   1.547 -0.4046 -1.1288  1.5612
 2416TIP3   OH2 7200   2.071   1.168   2.158  0.2675 -0.2244  0.9619
 2416TIP3    H1 7201   2.041   1.095   2.212 -0.2910  0.2371  1.2815
 2416TIP3    H2 7202   1.994   1.197   2.110  0.6311 -0.2515  0.3526
 2417TIP3   OH2 7203   3.471   4.225   2.947  0.3876 -0.7429 -0.0747
 2417TIP3    H1 7204   3.501   4.313   2.924  0.6899 -0.6706  0.5985
 2417TIP3    H2 7205   3.376   4.231   2.949  0.3984 -0.5071 -0.3221
 2418TIP3   OH2 7206   2.918   3.265   3.772 -0.7775 -0.1416 -0.2990
 2418TIP3    H1 7207   2.832   3.245   3.807 -1.3237 -0.0722 -1.5955
 2418TIP3    H2 7208   2.975   3.267   3.849 -1.9893  0.1788  0.5995
 2419TIP3   OH2 7209   1.923   0.958   3.676 -0.0414 -0.0599  0.0220
 2419TIP3    H1 7210   1.829   0.975   3.682 -0.1261 -0.2528 -0.6552
 2419TIP3    H2 7211   1.964   1.043   3.693 -0.3937  0.3544 -1.1638
 2420TIP3   OH2 7212   0.626   3.294   1.410  0.6053  0.3704 -0.3503
 2420TIP3    H1 7213   0.688   3.342   1.464 -0.5187  0.3733  0.9702
 2420TIP3    H2 7214   0.633   3.334   1.323 -0.3537  2.9541  0.7342
 2421TIP3   OH2 7215   1.903   3.144   1.131  0.1140  0.4836  0.1680
 2421TIP3    H1 7216   1.970   3.128   1.064  0.0835 -2.3207  0.7567
 2421TIP3    H2 7217   1.880   3.057   1.164 -2.2380  1.5643  1.5376
 2422TIP3   OH2 7218   4.280   2.036   3.542 -0.4025 -0.1565 -0.0409
 2422TIP3    H1 7219   4.202   2.071   3.584 -0.3997 -0.4826  0.2328
 2422TIP3    H2 7220   4.353   2.083   3.583 -0.4945  0.5944 -0.7374
 2423TIP3   OH2 7221   1.031   2.810   3.244 -0.8507 -0.4804 -0.3638
 2423TIP3    H1 7222   1.116   2.772   3.267 -1.0324  0.1784  1.4116
 2423TIP3    H2 7223   1.033   2.898   3.281 -1.6170  0.1939 -1.8756
 2424TIP3   OH2 7224   2.363   1.864   1.933  0.0716 -0.0536 -0.4987
 2424TIP3    H1 7225   2.295   1.863   1.865 -0.7916 -2.3532  0.3257
 2424TIP3    H2 7226   2.355   1.950   1.973 -2.5639 -0.3225 -0.2973
 2425TIP3   OH2 7227   0.874   0.844   2.334 -0.1358 -0.2321 -0.0294
 2425TIP3    H1 7228   0.963   0.878   2.340 -0.0109 -0.7518  1.2387
 2425TIP3    H2 7229   0.871   0.800   2.249  0.5788  0.4697 -0.4179
 2426TIP3   OH2 7230   3.341   1.295   3.191  0.2693 -0.6560 -0.1394
 2426TIP3    H1 7231   3.250   1.311   3.166 -0.1384  1.4095  2.4587
 2426TIP3    H2 7232   3.380   1.254   3.114 -1.6719  2.5963 -2.9892
 2427TIP3   OH2 7233   1.129   1.875   3.432  0.2522 -0.2138 -0.1961
 2427TIP3    H1 7234   1.094   1.964   3.434  1.1963  0.1659 -0.1848
 2427TIP3    H2 7235   1.058   1.821   3.466 -1.3035  0.1790 -2.7246
 2428TIP3   OH2 7236   7.852   1.624   3.203  0.4186 -0.0892  0.3805
 2428TIP3    H1 7237   7.898   1.704   3.228 -0.8928  0.5571  0.7347
 2428TIP3    H2 7238   7.920   1.556   3.205  1.5612  1.0247 -0.0453
 2429TIP3   OH2 7239   1.957   2.638   2.606  0.5057  0.1509  0.4380
 2429TIP3    H1 7240   1.894   2.601   2.545  0.3541  0.4543  0.4083
 2429TIP3    H2 7241   1.917   2.720   2.636  0.2256 -0.3800  1.5463
 2430TIP3   OH2 7242   3.015   2.062   4.253  0.5769  0.3994  0.0818
 2430TIP3    H1 7243   2.954   2.134   4.236 -0.5783 -0.9674 -1.8585
 2430TIP3    H2 7244   2.960   1.984   4.249  1.8855 -0.6262  1.7401
 2431TIP3   OH2 7245   4.070   1.270   3.729 -0.1499 -0.0689 -0.0501
 2431TIP3    H1 7246   4.110   1.274   3.817 -3.4567 -1.7751  1.6296
 2431TIP3    H2 7247   4.144   1.282   3.669  2.8537 -2.5442  2.8830
 2432TIP3   OH2 7248   2.297   3.896   1.004 -0.3648  0.2544  0.4529
 2432TIP3    H1 7249   2.369   3.955   1.027  0.8167 -0.4538 -1.3176
 2432TIP3    H2 7250   2.261   3.932   0.924  1.9221 -2.6344 -2.0391
 2433TIP3   OH2 7251   1.623   1.755   1.602 -0.3379  0.8230  0.1856
 2433TIP3    H1 7252   1.568   1.776   1.527  0.0203  1.5480  0.1175
 2433TIP3    H2 7253   1.642   1.662   1.594  0.8784  1.1943 -1.4129
 2434TIP3   OH2 7254   3.350   1.010   1.085 -0.1173  0.8672 -0.3888
 2434TIP3    H1 7255   3.361   1.066   1.008 -0.9984 -1.1994 -2.1092
 2434TIP3    H2 7256   3.429   0.954   1.084 -2.1904 -2.2126 -2.5327
 2435TIP3   OH2 7257   7.312   1.674   3.255  0.9105  0.3619 -0.5299
 2435TIP3    H1 7258   7.337   1.621   3.330  0.8792 -0.4030 -1.0590
 2435TIP3    H2 7259   7.300   1.612   3.184 -1.8041  0.7636 -0.4865
 2436TIP3   OH2 7260   2.844   0.954   3.960 -0.0435  0.1770 -0.3283
 2436TIP3    H1 7261   2.749   0.953   3.975  0.0048  0.4839  0.0031
 2436TIP3    H2 7262   2.860   1.040   3.921  0.0446 -0.0241 -0.7326
 2437TIP3   OH2 7263   2.545   2.554   5.578  0.0245 -0.3448 -0.5866
 2437TIP3    H1 7264   2.613   2.486   5.584  0.5270  0.3617  2.4609
 2437TIP3    H2 7265   2.465   2.510   5.606  0.4239  0.3924  1.7620
 2438TIP3   OH2 7266   3.833   5.468   1.804  0.2973 -0.2317  0.6047
 2438TIP3    H1 7267   3.876   5.523   1.870  0.4259 -1.1419  1.2930
 2438TIP3    H2 7268   3.904   5.415   1.768  0.3413  0.7491 -0.7561
 2439TIP3   OH2 7269   0.700   2.081   2.828  0.6976  0.7317  0.3197
 2439TIP3    H1 7270   0.629   2.032   2.787 -1.4063  2.4834  1.7295
 2439TIP3    H2 7271   0.748   2.016   2.879  0.2984 -0.5206 -0.8469
 2440TIP3   OH2 7272   2.134   1.158   3.415 -0.4454  0.0151  0.0729
 2440TIP3    H1 7273   2.168   1.192   3.332 -0.2752  3.5180  1.4833
 2440TIP3    H2 7274   2.212   1.130   3.462 -0.3610 -0.2933 -0.2504
 2441TIP3   OH2 7275   1.918   0.531   1.155 -0.2143  0.0214 -0.0898
 2441TIP3    H1 7276   1.976   0.525   1.080  1.2520  0.0544  1.0322
 2441TIP3    H2 7277   1.912   0.442   1.189 -0.3069  0.1247  0.1727
 2442TIP3   OH2 7278   1.763   2.655   6.331 -0.4700 -0.3156  0.2957
 2442TIP3    H1 7279   1.833   2.591   6.339 -1.2802 -1.2816 -0.1180
 2442TIP3    H2 7280   1.786   2.707   6.254  0.4185  0.1904  0.8962
 2443TIP3   OH2 7281   2.093   0.595   3.172  0.0141  0.3358 -0.2982
 2443TIP3    H1 7282   2.132   0.604   3.085 -1.5641  0.9612 -0.9421
 2443TIP3    H2 7283   2.124   0.509   3.203 -0.6990 -0.6134 -2.1311
 2444TIP3   OH2 7284   1.425   0.321   3.669 -0.2444 -0.1232  0.3303
 2444TIP3    H1 7285   1.338   0.297   3.636  0.0935  0.8329 -1.3419
 2444TIP3    H2 7286   1.409   0.394   3.728 -0.5048  0.7774 -0.8168
 2445TIP3   OH2 7287   3.092   2.629   3.097  0.3825 -0.2300  0.0012
 2445TIP3    H1 7288   3.075   2.640   3.191 -0.1297 -1.5510  0.0737
 2445TIP3    H2 7289   3.165   2.567   3.093 -0.5945 -1.3528 -0.5062
 2446TIP3   OH2 7290   2.504   1.255   3.961 -0.3890  0.0557 -0.2517
 2446TIP3    H1 7291   2.465   1.316   4.023  0.4829 -1.0180  1.3961
 2446TIP3    H2 7292   2.479   1.289   3.875  0.0069  2.6871  0.6083
 2447TIP3   OH2 7293   0.020   2.682   5.171  0.1651 -0.8535 -0.4844
 2447TIP3    H1 7294   0.077   2.759   5.169 -1.1476  0.1637  0.0014
 2447TIP3    H2 7295   0.074   2.611   5.138  1.6055  0.1513 -0.3451
 2448TIP3   OH2 7296   1.055   2.712   2.977  0.4022  0.3616 -0.0252
 2448TIP3    H1 7297   1.094   2.625   2.969 -0.2012  0.0148  0.7367
 2448TIP3    H2 7298   1.065   2.734   3.069 -3.2720 -0.7509  0.7411
 2449TIP3   OH2 7299   2.388   3.918   4.125  0.5305  0.1704  0.2928
 2449TIP3    H1 7300   2.465   3.949   4.078  0.1056 -1.2758 -1.4424
 2449TIP3    H2 7301   2.414   3.832   4.158 -0.9272 -1.2038 -1.9937
 2450TIP3   OH2 7302   0.560   2.167   3.126  0.5103  0.6927  0.0451
 2450TIP3    H1 7303   0.557   2.238   3.062  2.7909 -0.3404 -1.2830
 2450TIP3    H2 7304   0.564   2.088   3.073 -2.6183 -0.5396  1.4957
 2451TIP3   OH2 7305   1.308   4.167   4.548  0.6888 -0.1443 -0.0722
 2451TIP3    H1 7306   1.338   4.077   4.561 -0.9794 -1.0802 -2.3684
 2451TIP3    H2 7307   1.361   4.200   4.475  0.5378  0.3521  0.0421
 2452TIP3   OH2 7308   3.066   1.982   1.898 -0.2443  0.3339  0.4132
 2452TIP3    H1 7309   3.005   1.932   1.951  0.2301  0.3236  0.9516
 2452TIP3    H2 7310   3.096   2.053   1.955 -0.5927  0.9855 -0.2062
 2453TIP3   OH2 7311   3.230   0.560   3.282 -0.3518  0.1990 -0.3408
 2453TIP3    H1 7312   3.207   0.519   3.198  3.3165  1.4183 -2.0533
 2453TIP3    H2 7313   3.280   0.494   3.328 -0.4759  0.3100 -0.0466
 2454TIP3   OH2 7314   4.861   1.055   3.159 -0.6738  0.3844 -0.4365
 2454TIP3    H1 7315   4.881   1.027   3.248 -0.0766  0.9150 -0.4047
 2454TIP3    H2 7316   4.924   1.124   3.140 -0.9267  0.4146 -1.1992
 2455TIP3   OH2 7317   0.988   5.899   3.769  0.1601  0.3615 -0.0231
 2455TIP3    H1 7318   0.968   5.830   3.706  0.8262  0.7845 -0.6969
 2455TIP3    H2 7319   0.950   5.868   3.851 -2.0116  0.4629 -0.9514
 2456TIP3   OH2 7320   2.599   2.544   2.678 -0.5205  0.0681  0.2746
 2456TIP3    H1 7321   2.583   2.500   2.761  0.5479 -1.2255 -0.1816
 2456TIP3    H2 7322   2.526   2.516   2.622 -0.3476 -0.3966  0.2757
 2457TIP3   OH2 7323   1.838   2.273   5.021  0.3632  0.4657  0.3253
 2457TIP3    H1 7324   1.764   2.299   5.077  1.2134  0.1471  1.6235
 2457TIP3    H2 7325   1.916   2.302   5.069  1.1139  0.1053 -0.6566
 2458TIP3   OH2 7326   2.453   3.655   5.704  0.1596 -0.7586 -0.2377
 2458TIP3    H1 7327   2.422   3.570   5.734  1.2759 -1.1327 -0.1368
 2458TIP3    H2 7328   2.373   3.700   5.674 -0.6474 -1.2340  1.1399
 2459TIP3   OH2 7329   0.612   6.802   3.434 -0.0473 -0.8342 -0.1722
 2459TIP3    H1 7330   0.643   6.840   3.517  1.7839 -1.8850 -0.3543
 2459TIP3    H2 7331   0.528   6.762   3.457 -0.8325  1.1662  0.5681
 2460TIP3   OH2 7332   3.740   5.720   1.050  0.1019 -0.2114 -0.1194
 2460TIP3    H1 7333   3.701   5.711   1.136  1.2458  1.1638  0.5670
 2460TIP3    H2 7334   3.714   5.641   1.003 -1.3966 -0.4797  1.1343
 2461TIP3   OH2 7335   0.676   0.790   4.494 -1.1041  0.2352 -0.4077
 2461TIP3    H1 7336   0.613   0.833   4.552 -1.9351 -0.2034 -0.9723
 2461TIP3    H2 7337   0.749   0.766   4.551 -0.5617  2.5297 -0.1203
 2462TIP3   OH2 7338   5.509   3.153   2.585  0.5879 -0.0306 -0.0451
 2462TIP3    H1 7339   5.455   3.090   2.634 -0.6800 -0.2184 -1.6377
 2462TIP3    H2 7340   5.551   3.101   2.517  2.3249  0.2314  0.8135
 2463TIP3   OH2 7341   0.217   7.004   5.473 -0.0903  0.0365 -0.3278
 2463TIP3    H1 7342   0.277   7.078   5.468 -0.7642  0.6310  0.2647
 2463TIP3    H2 7343   0.184   6.994   5.384 -0.9583  1.2552 -0.1486
 2464TIP3   OH2 7344   2.839   0.645   4.708 -0.4502 -0.0313  0.0241
 2464TIP3    H1 7345   2.874   0.658   4.620 -1.5438 -0.2361 -0.4515
 2464TIP3    H2 7346   2.751   0.612   4.694 -0.8702  0.5530  1.1993
 2465TIP3   OH2 7347   2.998   2.602   4.628  0.5792 -0.2623 -0.4116
 2465TIP3    H1 7348   3.055   2.556   4.690 -0.1689 -0.1883  0.3454
 2465TIP3    H2 7349   2.931   2.643   4.683 -0.4950 -0.7568 -1.3260
 2466TIP3   OH2 7350   1.794   0.557   4.501  0.0035  0.4284 -0.1467
 2466TIP3    H1 7351   1.871   0.553   4.446 -0.7805 -0.2566 -1.2163
 2466TIP3    H2 7352   1.821   0.517   4.584  1.2387  1.6244  0.0423
 2467TIP3   OH2 7353   0.913   3.589   2.114  0.1912  0.4451  0.4351
 2467TIP3    H1 7354   0.973   3.610   2.042  1.3228  0.5567  1.3915
 2467TIP3    H2 7355   0.929   3.497   2.132 -2.4612 -0.4609 -1.6222
 2468TIP3   OH2 7356   7.512   2.283   0.888  0.4382 -0.0327  0.0024
 2468TIP3    H1 7357   7.426   2.261   0.926  1.1569 -0.6334  1.3378
 2468TIP3    H2 7358   7.500   2.273   0.794 -2.3406  4.7271 -0.3129
 2469TIP3   OH2 7359   7.100   1.550   2.874 -0.5929  0.1845  0.2424
 2469TIP3    H1 7360   7.025   1.563   2.932 -0.9750 -1.2500  0.0925
 2469TIP3    H2 7361   7.100   1.626   2.816 -0.4629  1.4335  1.8406
 2470TIP3   OH2 7362   5.410   5.022   3.301  0.3904  0.3278  0.3785
 2470TIP3    H1 7363   5.484   5.025   3.362 -0.3488  2.9392  1.2213
 2470TIP3    H2 7364   5.441   5.066   3.223  0.4551 -0.6183 -0.1365
 2471TIP3   OH2 7365   2.514   4.511   2.207  0.1819  0.0259 -0.4575
 2471TIP3    H1 7366   2.592   4.566   2.206  0.8200 -0.8454 -0.0524
 2471TIP3    H2 7367   2.493   4.501   2.300  0.5512 -1.0447 -0.4738
 2472TIP3   OH2 7368   1.441   2.318   4.690 -0.0240 -0.0759 -0.1671
 2472TIP3    H1 7369   1.448   2.250   4.757  2.0274  0.2561 -0.0061
 2472TIP3    H2 7370   1.436   2.400   4.740 -0.1713  0.0576 -0.4027
 2473TIP3   OH2 7371   3.707   1.730   2.785  0.3170 -0.2737 -0.7921
 2473TIP3    H1 7372   3.755   1.804   2.823  1.0065  0.1390 -2.4291
 2473TIP3    H2 7373   3.615   1.749   2.802  0.6221 -0.3623  1.1236
 2474TIP3   OH2 7374   3.078   1.616   3.756  0.0059 -0.2945 -0.4033
 2474TIP3    H1 7375   3.067   1.632   3.663  1.5237  0.7194 -0.4380
 2474TIP3    H2 7376   3.172   1.601   3.767 -0.4560 -2.6971  0.6386
 2475TIP3   OH2 7377   3.774   3.671   2.998  0.4962  0.1702 -0.2975
 2475TIP3    H1 7378   3.732   3.593   2.960  0.2620  0.1898 -0.0795
 2475TIP3    H2 7379   3.712   3.742   2.980 -1.0274 -0.3221  2.7010
 2476TIP3   OH2 7380   3.911   4.416   2.570  0.3846  0.1950 -0.3900
 2476TIP3    H1 7381   3.822   4.382   2.572  0.8343 -1.1455 -2.0879
 2476TIP3    H2 7382   3.964   4.343   2.539  1.9132  1.3462 -0.5500
 2477TIP3   OH2 7383   3.755   1.990   2.875  0.0389  0.0337  0.0724
 2477TIP3    H1 7384   3.785   2.040   2.799  1.0928 -1.2787 -0.4184
 2477TIP3    H2 7385   3.666   2.021   2.892 -0.8651 -0.8484 -2.7910
 2478TIP3   OH2 7386   2.863   1.819   2.081  0.3624 -0.4694  0.1959
 2478TIP3    H1 7387   2.795   1.882   2.105  0.4467 -0.4678  0.4365
 2478TIP3    H2 7388   2.871   1.762   2.158 -1.4713 -2.3310 -0.9415
 2479TIP3   OH2 7389   2.299   3.953   3.106 -0.2663  0.0279  0.0902
 2479TIP3    H1 7390   2.362   3.923   3.171 -0.8550  1.1598  1.2210
 2479TIP3    H2 7391   2.215   3.949   3.151 -1.1725 -2.3814 -1.7012
 2480TIP3   OH2 7392   2.214   0.092   3.384  0.1238  0.1092  0.0516
 2480TIP3    H1 7393   2.184   0.056   3.300  2.0073 -0.9934 -0.1839
 2480TIP3    H2 7394   2.157   0.167   3.400 -1.0043 -0.3519 -1.6558
 2481TIP3   OH2 7395   4.381   5.803   0.010 -0.0364  0.2077  0.2924
 2481TIP3    H1 7396   4.470   5.771  -0.005  0.0202 -0.0994  1.3055
 2481TIP3    H2 7397   4.391   5.898   0.016  0.3468  0.1163  1.2283
 2482TIP3   OH2 7398   3.688   0.774   3.452 -1.3196  0.3669  0.0909
 2482TIP3    H1 7399   3.783   0.786   3.449 -0.8686 -2.3019  1.8999
 2482TIP3    H2 7400   3.659   0.833   3.522 -0.9106  0.5076  0.1433
 2483TIP3   OH2 7401   4.152   2.479   4.093 -0.3447  0.4070  0.0957
 2483TIP3    H1 7402   4.231   2.487   4.147 -0.3046  0.5374  0.0155
 2483TIP3    H2 7403   4.081   2.470   4.157 -0.2348  0.0252  0.1660
 2484TIP3   OH2 7404   2.700   1.670   2.310 -0.4322  0.0841 -0.2010
 2484TIP3    H1 7405   2.681   1.609   2.382  0.1558  1.1198  0.8396
 2484TIP3    H2 7406   2.620   1.669   2.256 -0.9456 -0.5610  0.5552
 2485TIP3   OH2 7407   4.222   1.734   5.538  0.1108 -0.2069  0.0457
 2485TIP3    H1 7408   4.232   1.822   5.501  0.0068 -0.8314 -1.5354
 2485TIP3    H2 7409   4.276   1.679   5.481 -1.6739 -1.5161 -0.3973
 2486TIP3   OH2 7410   2.709   1.209   4.246 -0.2183  0.2065  0.1517
 2486TIP3    H1 7411   2.733   1.202   4.154  1.4162  0.5792  0.5336
 2486TIP3    H2 7412   2.670   1.296   4.253  1.5452  1.0189  0.1982
 2487TIP3   OH2 7413   1.625   1.364   4.062  0.1230  0.0910 -0.0641
 2487TIP3    H1 7414   1.651   1.412   4.140 -1.3572 -0.0416  0.5244
 2487TIP3    H2 7415   1.671   1.408   3.990  2.8057 -0.8087  1.0284
 2488TIP3   OH2 7416   3.027   1.005   4.818  0.2554  0.4661 -0.1955
 2488TIP3    H1 7417   3.060   1.086   4.857  2.7425 -0.0374 -1.1736
 2488TIP3    H2 7418   3.061   1.006   4.728  0.9251 -1.9620 -0.0084
 2489TIP3   OH2 7419   3.728   1.934   3.556 -0.7808 -0.1899 -0.2805
 2489TIP3    H1 7420   3.716   1.971   3.643 -1.5190 -0.3354 -0.3196
 2489TIP3    H2 7421   3.648   1.884   3.539  0.4822 -2.4049  0.0438
 2490TIP3   OH2 7422   3.993   1.628   2.304  0.3615  0.0755  0.0018
 2490TIP3    H1 7423   3.935   1.624   2.380  0.7692 -3.2018  0.2220
 2490TIP3    H2 7424   4.080   1.643   2.341  0.0863  1.9764 -0.1001
 2491TIP3   OH2 7425   2.882   1.993   3.618 -0.3550  0.7818  0.5909
 2491TIP3    H1 7426   2.918   1.974   3.705  1.0046  0.7680  0.0409
 2491TIP3    H2 7427   2.799   2.038   3.636  0.4303  1.7528  1.9034
 2492TIP3   OH2 7428   5.082   3.599   2.350 -0.5047  0.6059 -0.6458
 2492TIP3    H1 7429   5.067   3.563   2.263 -0.3933  0.4925 -0.6190
 2492TIP3    H2 7430   5.108   3.523   2.403  0.8847  0.9277 -0.8575
 2493TIP3   OH2 7431   4.738   1.795   2.107 -0.2470 -0.5882 -0.4413
 2493TIP3    H1 7432   4.721   1.710   2.146  0.1196 -0.3826  0.1647
 2493TIP3    H2 7433   4.790   1.842   2.172 -0.5944  0.1615 -0.6916
 2494TIP3   OH2 7434   0.684   0.833   2.915  0.2992 -0.5584 -0.0318
 2494TIP3    H1 7435   0.730   0.749   2.920  0.2004 -0.8661 -3.0443
 2494TIP3    H2 7436   0.743   0.889   2.864 -1.4141 -0.1051 -1.5892
 2495TIP3   OH2 7437   3.366   3.264   2.939  0.2021 -0.1976  0.3898
 2495TIP3    H1 7438   3.344   3.311   3.019  1.7369 -0.3268  0.9149
 2495TIP3    H2 7439   3.418   3.189   2.969  1.0156 -0.0968 -0.7253
 2496TIP3   OH2 7440   2.487   3.861   3.298  0.4237  0.0530  0.0511
 2496TIP3    H1 7441   2.577   3.889   3.284  0.8078 -0.7529  0.8783
 2496TIP3    H2 7442   2.494   3.774   3.337 -0.7105 -0.0601  0.0339
 2497TIP3   OH2 7443   1.364   3.889   5.301  0.4504  0.3944 -0.8843
 2497TIP3    H1 7444   1.449   3.897   5.258  0.3122 -1.3483 -1.5391
 2497TIP3    H2 7445   1.308   3.952   5.257  1.5103  1.9030 -0.1288
 2498TIP3   OH2 7446   2.855   1.299   3.656  0.7621 -0.2996 -0.1438
 2498TIP3    H1 7447   2.841   1.339   3.742  2.3329 -1.0125  0.4665
 2498TIP3    H2 7448   2.894   1.369   3.604  0.5236 -0.0849 -0.0353
 2499TIP3   OH2 7449   1.742   2.120   3.193  0.2937 -0.0177  0.2401
 2499TIP3    H1 7450   1.815   2.059   3.186  1.2183  0.9044  1.5419
 2499TIP3    H2 7451   1.665   2.065   3.206  0.7916 -0.9859 -0.8243
 2500TIP3   OH2 7452   4.411   2.087   4.467  0.3539 -0.3063  0.2982
 2500TIP3    H1 7453   4.420   2.005   4.418  0.0608  0.0258 -0.3180
 2500TIP3    H2 7454   4.328   2.076   4.515  0.1711 -0.2590 -0.0040
 2501TIP3   OH2 7455   0.184   2.524   2.884  0.7098  0.4077 -0.3527
 2501TIP3    H1 7456   0.141   2.556   2.805  1.1025  0.7258 -0.4339
 2501TIP3    H2 7457   0.175   2.595   2.948  0.8106  0.3370 -0.2586
 2502TIP3   OH2 7458   2.668   3.329   1.585 -0.2612  0.1902 -0.2020
 2502TIP3    H1 7459   2.575   3.323   1.564 -0.1806 -3.7069  0.2031
 2502TIP3    H2 7460   2.713   3.315   1.502 -0.0537 -3.3060  0.4319
 2503TIP3   OH2 7461   4.321   5.151   1.910 -0.1275  0.0028 -0.5176
 2503TIP3    H1 7462   4.385   5.195   1.854 -0.1710  1.3236  0.4429
 2503TIP3    H2 7463   4.240   5.153   1.859  0.0551  0.3412 -0.8004
 2504TIP3   OH2 7464   3.417   2.385   3.844  0.8166  0.1356 -0.5000
 2504TIP3    H1 7465   3.323   2.369   3.856  1.0915  0.0009  1.6416
 2504TIP3    H2 7466   3.427   2.479   3.854  1.3537 -0.2203  2.8097
 2505TIP3   OH2 7467   2.958   2.407   1.021 -0.3568 -0.3645  0.8834
 2505TIP3    H1 7468   3.050   2.379   1.029 -0.2198 -0.1220  0.1556
 2505TIP3    H2 7469   2.922   2.350   0.952 -0.4602  0.2846  0.4004
 2506TIP3   OH2 7470   1.931   4.228   0.868  0.5399  0.5345  0.6903
 2506TIP3    H1 7471   1.919   4.206   0.776  0.0633 -0.0898  0.9032
 2506TIP3    H2 7472   1.929   4.324   0.870 -2.4876  0.5442  0.4328
 2507TIP3   OH2 7473   0.066   2.762   1.562  0.0557 -0.4386 -0.1438
 2507TIP3    H1 7474   0.044   2.853   1.544  0.1291 -0.1897  1.0218
 2507TIP3    H2 7475   0.138   2.742   1.502 -1.0323 -0.2224 -1.5370
 2508TIP3   OH2 7476   2.578   1.351   0.934  0.5082  0.5405 -0.2470
 2508TIP3    H1 7477   2.568   1.372   1.027  0.8199  0.8948 -0.2887
 2508TIP3    H2 7478   2.532   1.422   0.889  1.2371  0.9306 -0.3836
 2509TIP3   OH2 7479   5.390   1.809   2.388  0.1131 -0.0638  0.0502
 2509TIP3    H1 7480   5.327   1.872   2.354 -0.3900 -1.3798 -1.5393
 2509TIP3    H2 7481   5.405   1.748   2.316  0.6557 -1.6949  1.4837
 2510TIP3   OH2 7482   4.780   1.863   3.394  0.3078 -0.2915 -0.3183
 2510TIP3    H1 7483   4.686   1.845   3.387  0.4138 -0.5470 -1.0439
 2510TIP3    H2 7484   4.821   1.803   3.332  0.8496  0.8155 -1.0336
 2511TIP3   OH2 7485   2.894   0.850   4.510 -0.2286  0.0885 -0.4894
 2511TIP3    H1 7486   2.990   0.859   4.514 -0.1462 -0.7897 -0.4442
 2511TIP3    H2 7487   2.862   0.940   4.520  0.6449  0.7019 -2.6712
 2512TIP3   OH2 7488   5.959   7.386   3.065  0.1173 -0.0719  0.0834
 2512TIP3    H1 7489   5.983   7.322   2.998 -0.1452 -1.2921  1.1380
 2512TIP3    H2 7490   5.888   7.344   3.115 -0.2227  1.1306  0.6496
 2513TIP3   OH2 7491   2.300   0.819   2.082 -0.1833  0.8784 -0.2132
 2513TIP3    H1 7492   2.348   0.891   2.123  1.2264  0.1973 -0.6390
 2513TIP3    H2 7493   2.285   0.757   2.153 -0.4394  1.0935 -0.0787
 2514TIP3   OH2 7494   3.740   1.030   2.973  0.3246 -0.2928  0.0976
 2514TIP3    H1 7495   3.793   0.996   3.045 -0.5396 -2.2581 -0.1792
 2514TIP3    H2 7496   3.711   0.953   2.925 -1.6945  0.8236 -0.5374
 2515TIP3   OH2 7497   2.307   0.247   3.694  0.2033  0.0156  0.3475
 2515TIP3    H1 7498   2.377   0.195   3.655  0.2395  0.2079  0.1594
 2515TIP3    H2 7499   2.292   0.206   3.779  1.0221  0.3973  0.6806
 2516TIP3   OH2 7500   2.494   0.567   3.031 -1.0324  0.1745  0.0615
 2516TIP3    H1 7501   2.501   0.640   3.093 -0.2980  1.6533 -1.7148
 2516TIP3    H2 7502   2.585   0.550   3.004 -1.3916 -0.0622 -1.0193
 2517TIP3   OH2 7503   2.162   2.335   4.279 -0.2310  0.0335 -0.2232
 2517TIP3    H1 7504   2.141   2.343   4.372  0.0098 -1.0681 -0.0619
 2517TIP3    H2 7505   2.161   2.240   4.262  0.2623  0.1941 -1.2118
 2518TIP3   OH2 7506   3.081   2.917   1.411  0.9130 -0.4724  0.2974
 2518TIP3    H1 7507   3.086   2.946   1.502  1.8757  0.0566  0.0876
 2518TIP3    H2 7508   3.095   2.996   1.359 -2.1157 -0.3002 -0.3702
 2519TIP3   OH2 7509   3.211   1.990   2.655  0.0958  0.1793  0.1646
 2519TIP3    H1 7510   3.174   2.020   2.572  1.0992 -1.5116 -0.9375
 2519TIP3    H2 7511   3.295   2.035   2.661 -0.6116  1.4146  0.9960
 2520TIP3   OH2 7512   2.784   3.532   3.417 -0.1282 -0.0488  0.1877
 2520TIP3    H1 7513   2.842   3.541   3.342  0.5321  1.6334  0.8611
 2520TIP3    H2 7514   2.841   3.540   3.493 -0.9263 -0.7210  0.8748
 2521TIP3   OH2 7515   2.690   3.818   0.151  0.2496  0.3114 -0.0985
 2521TIP3    H1 7516   2.758   3.771   0.200  0.2051 -0.2088 -0.5379
 2521TIP3    H2 7517   2.623   3.752   0.133 -1.3328  1.2559  2.0712
 2522TIP3   OH2 7518   2.132   3.235   2.949  0.0568 -0.9315 -0.2043
 2522TIP3    H1 7519   2.135   3.249   2.855  0.6749 -0.8358 -0.1736
 2522TIP3    H2 7520   2.106   3.319   2.986  0.9382 -0.6486 -0.2157
 2523TIP3   OH2 7521   2.477   0.921   4.018 -0.7263  0.2648 -0.1934
 2523TIP3    H1 7522   2.441   1.003   3.985 -2.3923 -1.3493 -2.5707
 2523TIP3    H2 7523   2.408   0.885   4.074 -1.7981 -1.4831 -2.5293
 2524TIP3   OH2 7524   1.414   2.992   3.973  0.2658  0.0616 -0.3110
 2524TIP3    H1 7525   1.355   2.923   3.943  1.1536 -1.1499  0.6449
 2524TIP3    H2 7526   1.391   3.006   4.065  1.3095 -0.2842  0.0163
 2525TIP3   OH2 7527   2.212   1.397   3.245  0.1736  0.5544  0.4008
 2525TIP3    H1 7528   2.242   1.451   3.171 -0.5926  0.1404 -0.2253
 2525TIP3    H2 7529   2.268   1.423   3.318 -0.2509  2.2914  0.1431
 2526TIP3   OH2 7530   6.035   4.830   2.277  0.0880  0.4498 -0.4237
 2526TIP3    H1 7531   6.068   4.799   2.361  1.7136  2.4641 -0.2771
 2526TIP3    H2 7532   6.114   4.844   2.224 -0.8941 -0.2895 -2.1178
 2527TIP3   OH2 7533   3.902   2.640   1.138  0.3358 -0.0027  0.0758
 2527TIP3    H1 7534   3.819   2.688   1.145  0.6167  0.6348 -0.8960
 2527TIP3    H2 7535   3.899   2.577   1.210 -1.1416 -0.1959 -0.1315
 2528TIP3   OH2 7536   5.727   1.554   2.002  0.1209 -0.0679  0.1332
 2528TIP3    H1 7537   5.814   1.557   1.961  0.4042 -0.4876  0.7001
 2528TIP3    H2 7538   5.723   1.468   2.044 -0.4019  0.1254  0.4876
 2529TIP3   OH2 7539   3.235   0.833   3.254 -0.1805  0.0042  0.1409
 2529TIP3    H1 7540   3.247   0.739   3.255  2.9949  0.3794  0.4956
 2529TIP3    H2 7541   3.292   0.864   3.184  0.2477  1.8410  1.2712
 2530TIP3   OH2 7542   5.521   1.465   1.288 -0.0497 -0.7993  0.5359
 2530TIP3    H1 7543   5.460   1.519   1.238 -0.4728 -0.5838  1.2807
 2530TIP3    H2 7544   5.587   1.527   1.320  0.1251 -0.9126  0.3994
 2531TIP3   OH2 7545   2.951   2.374   1.339  0.0296  0.3278  0.1036
 2531TIP3    H1 7546   2.969   2.280   1.341 -0.7889  0.0821 -2.2596
 2531TIP3    H2 7547   3.026   2.414   1.383  1.1234 -1.3448 -0.1867
 2532TIP3   OH2 7548   0.783   1.514   3.085 -0.1157  0.5010  0.1085
 2532TIP3    H1 7549   0.762   1.558   3.168  0.3452 -0.4535  0.7368
 2532TIP3    H2 7550   0.800   1.423   3.110 -1.2423 -0.0876 -1.1989
 2533TIP3   OH2 7551   1.784   1.171   4.860 -0.0393 -0.2858 -0.1108
 2533TIP3    H1 7552   1.695   1.183   4.825  0.1027 -0.7698 -0.6312
 2533TIP3    H2 7553   1.812   1.086   4.827  0.8009  0.0712 -0.3351
 2534TIP3   OH2 7554   3.154   2.434   0.804 -0.0512 -0.0993  0.3252
 2534TIP3    H1 7555   3.223   2.438   0.738 -0.2625  0.5671  0.1480
 2534TIP3    H2 7556   3.108   2.518   0.798 -0.9544 -0.5789  0.3561
 2535TIP3   OH2 7557   3.882   3.133   2.268  0.1887  0.0805  0.4803
 2535TIP3    H1 7558   3.898   3.040   2.252 -1.2727 -0.4772  2.0832
 2535TIP3    H2 7559   3.811   3.135   2.332 -0.0596  2.3138  0.2031
 2536TIP3   OH2 7560   5.036   2.990   2.227 -0.3070 -0.0740  0.2200
 2536TIP3    H1 7561   4.953   2.981   2.181 -0.3499  1.6170 -0.0643
 2536TIP3    H2 7562   5.014   3.033   2.309  0.2183 -0.1048  0.3833
 2537TIP3   OH2 7563   4.890   2.446   1.969  0.0613  0.2494 -0.2101
 2537TIP3    H1 7564   4.871   2.530   2.012  0.7968 -0.0606  0.7283
 2537TIP3    H2 7565   4.804   2.413   1.944 -0.3722  0.5519  0.8215
 2538TIP3   OH2 7566   6.323   2.861   6.477  0.4207  0.1107  0.1356
 2538TIP3    H1 7567   6.373   2.942   6.464  1.6194 -0.8633 -1.6851
 2538TIP3    H2 7568   6.257   2.862   6.407  0.2216 -0.3129  0.3168
 2539TIP3   OH2 7569   3.867   2.100   0.890  0.1067  0.3162  0.3277
 2539TIP3    H1 7570   3.846   2.073   0.801 -0.7886  0.6321  0.4309
 2539TIP3    H2 7571   3.962   2.106   0.892  0.2304 -1.4600 -0.0859
 2540TIP3   OH2 7572   2.558   1.443   4.228  0.0125  0.2296 -0.4432
 2540TIP3    H1 7573   2.545   1.536   4.243 -1.0765 -0.1906  1.3224
 2540TIP3    H2 7574   2.470   1.409   4.210  0.1342 -0.7603  0.7383
 2541TIP3   OH2 7575   5.094   1.064   2.367 -0.0039 -0.3891  0.0954
 2541TIP3    H1 7576   5.096   1.104   2.454  1.0377 -2.7065  1.1780
 2541TIP3    H2 7577   5.002   1.047   2.351 -0.2843  0.7993  0.3758
 2542TIP3   OH2 7578   4.107   2.022   2.273  0.1023 -0.0362  0.2078
 2542TIP3    H1 7579   4.180   2.003   2.331 -0.1504  1.4347  1.0370
 2542TIP3    H2 7580   4.147   2.053   2.192  0.4076  0.3172  0.4958
 2543TIP3   OH2 7581   3.075   4.459   3.724  0.4358 -0.7406 -0.0396
 2543TIP3    H1 7582   3.161   4.420   3.708  0.2485 -1.1362 -0.0962
 2543TIP3    H2 7583   3.089   4.553   3.714  1.0466 -0.7390  0.7923
 2544TIP3   OH2 7584   4.119   0.732   1.714  0.1334 -0.3538 -0.1898
 2544TIP3    H1 7585   4.172   0.792   1.766  0.3798 -0.5015 -0.2679
 2544TIP3    H2 7586   4.159   0.733   1.628  0.7547 -1.3955  0.0767
 2545TIP3   OH2 7587   4.955   1.989   2.253  0.3770 -0.3804  0.7060
 2545TIP3    H1 7588   5.037   2.035   2.271  0.8602 -0.4805 -1.1652
 2545TIP3    H2 7589   4.971   1.940   2.172 -1.6496 -0.0591  0.0640
 2546TIP3   OH2 7590   3.567   1.397   4.339  0.0187 -0.1146 -0.3353
 2546TIP3    H1 7591   3.550   1.306   4.362  2.6752 -0.7652 -0.7750
 2546TIP3    H2 7592   3.523   1.448   4.407 -0.6530 -1.7398  0.4727
 2547TIP3   OH2 7593   4.579   0.342   2.305  0.2610  0.0184  0.0700
 2547TIP3    H1 7594   4.509   0.348   2.370  0.0977  0.5062 -0.1441
 2547TIP3    H2 7595   4.611   0.432   2.297 -1.7882  0.5794 -2.7856
 2548TIP3   OH2 7596   2.908   4.253   2.767  0.4029 -0.3463  0.3819
 2548TIP3    H1 7597   2.867   4.183   2.715 -0.6145  0.8600 -0.4693
 2548TIP3    H2 7598   2.843   4.273   2.835  0.9535 -0.6365  1.0041
 2549TIP3   OH2 7599   3.780   1.818   1.704  0.3264 -0.2408  0.1346
 2549TIP3    H1 7600   3.870   1.787   1.718 -0.1510 -2.1491 -0.7423
 2549TIP3    H2 7601   3.767   1.886   1.769  1.7505 -1.3463  1.6259
 2550TIP3   OH2 7602   3.703   3.134   3.665  0.5591  0.0894  0.1177
 2550TIP3    H1 7603   3.754   3.076   3.722  0.6713 -0.2426 -0.3173
 2550TIP3    H2 7604   3.650   3.186   3.725  2.7637  1.7553  0.6788
 2551TIP3   OH2 7605   5.615   1.104   3.914  0.0333  0.4065 -0.0750
 2551TIP3    H1 7606   5.622   1.099   4.009 -0.5078  0.2996 -0.0410
 2551TIP3    H2 7607   5.638   1.194   3.893  2.7745 -0.2398 -0.0766
 2552TIP3   OH2 7608   5.029   1.650   4.626 -0.5239  0.3876 -0.0576
 2552TIP3    H1 7609   5.055   1.739   4.650  1.2775 -0.1299 -0.0137
 2552TIP3    H2 7610   5.098   1.594   4.661  0.5985 -0.6641 -3.7334
 2553TIP3   OH2 7611   4.898   3.757   4.018  0.1408 -0.4518  0.4997
 2553TIP3    H1 7612   4.900   3.732   3.925  0.0287 -0.8659  0.6054
 2553TIP3    H2 7613   4.978   3.808   4.030 -0.1186  0.0643  0.0503
 2554TIP3   OH2 7614   5.972   2.395   2.644  0.3367  0.3354  0.3821
 2554TIP3    H1 7615   5.967   2.331   2.715  1.3830 -2.0713 -1.6461
 2554TIP3    H2 7616   5.894   2.378   2.591  0.2871  1.1833  0.1728
 2555TIP3   OH2 7617   4.240   1.656   2.581  0.4772  0.4548  0.2355
 2555TIP3    H1 7618   4.210   1.607   2.658 -1.0438  0.7049 -0.1692
 2555TIP3    H2 7619   4.314   1.605   2.548 -0.3872 -0.9979  0.4578
 2556TIP3   OH2 7620   3.269   2.268   3.450  0.1882  0.0458  0.4024
 2556TIP3    H1 7621   3.180   2.236   3.439  1.0551 -1.6790 -2.0988
 2556TIP3    H2 7622   3.301   2.223   3.528 -1.1779  0.8447  1.4443
 2557TIP3   OH2 7623   2.898   0.452   1.790 -0.1670 -0.1808 -0.1144
 2557TIP3    H1 7624   2.810   0.415   1.793  0.1376 -0.8559  0.8499
 2557TIP3    H2 7625   2.884   0.546   1.803 -0.9873  0.1627 -3.2442
 2558TIP3   OH2 7626   5.894   4.187   3.821 -0.0563 -0.1393  0.8577
 2558TIP3    H1 7627   5.874   4.175   3.914  3.8127  2.0834  2.1241
 2558TIP3    H2 7628   5.904   4.098   3.787 -1.3870 -0.9870  2.5808
 2559TIP3   OH2 7629   5.855   1.727   3.507 -0.0471 -0.4318  0.6565
 2559TIP3    H1 7630   5.775   1.754   3.463  1.1399  0.4140 -1.0102
 2559TIP3    H2 7631   5.847   1.632   3.514 -0.3313 -0.5751 -1.2650
 2560TIP3   OH2 7632   6.617   2.051   1.694  0.5969 -0.2932 -0.1077
 2560TIP3    H1 7633   6.595   1.957   1.693 -0.5365 -0.0492  0.5665
 2560TIP3    H2 7634   6.562   2.089   1.625 -0.7187  0.2402  1.2146
 2561TIP3   OH2 7635   3.930   3.105   1.627 -0.3631  0.1058 -0.0627
 2561TIP3    H1 7636   3.923   3.153   1.544 -0.5229  0.6730  0.2774
 2561TIP3    H2 7637   4.016   3.128   1.661 -0.0874 -0.5360 -0.3220
 2562TIP3   OH2 7638   0.503   1.133   2.902 -0.0262  0.0379  0.1805
 2562TIP3    H1 7639   0.550   1.103   2.980 -0.0632  0.7793  0.4932
 2562TIP3    H2 7640   0.572   1.154   2.839 -0.0229 -1.5091 -0.3479
 2563TIP3   OH2 7641   4.943   3.586   3.042 -0.1918  0.1563 -0.5267
 2563TIP3    H1 7642   4.919   3.677   3.024 -0.2363 -0.0272 -1.4352
 2563TIP3    H2 7643   4.988   3.557   2.963  0.3834 -0.4226  0.0050
 2564TIP3   OH2 7644   5.075   2.775   4.935  0.2134 -0.7050  0.1828
 2564TIP3    H1 7645   5.081   2.713   4.863  0.9971 -0.5424  0.1046
 2564TIP3    H2 7646   5.128   2.850   4.908  0.0229 -0.3875  0.6683
 2565TIP3   OH2 7647   2.850   2.276   4.204  0.1543 -0.0291  0.6492
 2565TIP3    H1 7648   2.756   2.266   4.218  0.1204 -0.1840  0.3258
 2565TIP3    H2 7649   2.884   2.308   4.287 -0.3848  1.3320  0.3563
 2566TIP3   OH2 7650   4.206   1.938   2.546 -0.0109 -0.0725 -0.6641
 2566TIP3    H1 7651   4.135   1.958   2.607 -4.0318 -1.1595 -4.7137
 2566TIP3    H2 7652   4.227   1.846   2.562  0.4875  0.2426  0.5282
 2567TIP3   OH2 7653   3.783   3.206   5.036  0.0678  0.1496  0.1140
 2567TIP3    H1 7654   3.741   3.291   5.047 -0.9671 -0.4655  1.0524
 2567TIP3    H2 7655   3.711   3.143   5.042  0.6193 -0.7213 -2.0381
 2568TIP3   OH2 7656   5.726   0.443   1.591  0.8006  0.2535  0.0120
 2568TIP3    H1 7657   5.655   0.418   1.651  1.2836 -0.1438  0.4298
 2568TIP3    H2 7658   5.724   0.538   1.591  0.1375  0.2421 -0.1328
 2569TIP3   OH2 7659   5.687   0.752   1.347 -0.1306  0.0425  0.4415
 2569TIP3    H1 7660   5.777   0.783   1.347 -0.3668  0.7332 -0.3917
 2569TIP3    H2 7661   5.635   0.829   1.326 -0.9022 -0.4045  0.6948
 2570TIP3   OH2 7662   2.322   7.105   1.632  0.5831 -0.1484  0.2894
 2570TIP3    H1 7663   2.327   7.030   1.692 -0.2053  0.8304  1.6089
 2570TIP3    H2 7664   2.238   7.145   1.651  1.2749  1.4478  0.0462
 2571TIP3   OH2 7665   6.096   1.601   2.585 -0.0793 -0.4262  0.2083
 2571TIP3    H1 7666   6.149   1.528   2.553 -0.5100 -0.3588 -0.6748
 2571TIP3    H2 7667   6.060   1.571   2.668 -0.1297 -1.1500 -0.0788
 2572TIP3   OH2 7668   2.461   1.981   4.878  0.0770  0.2885 -0.3546
 2572TIP3    H1 7669   2.427   1.992   4.789 -1.1285  1.5077  0.2392
 2572TIP3    H2 7670   2.544   2.028   4.878  0.6754 -0.7383 -1.1623
 2573TIP3   OH2 7671   4.715   2.972   2.676 -0.0794  0.3035  0.2438
 2573TIP3    H1 7672   4.787   3.008   2.624  0.5610 -0.2728  0.7300
 2573TIP3    H2 7673   4.697   2.887   2.636  1.2169 -0.6755  1.6880
 2574TIP3   OH2 7674   5.915   5.043   3.403  0.0563 -0.4808  0.2496
 2574TIP3    H1 7675   5.909   5.136   3.425 -1.8874 -0.2346 -1.1366
 2574TIP3    H2 7676   5.992   5.036   3.348 -0.1261  0.4251 -0.1306
 2575TIP3   OH2 7677   2.750   4.658   2.254  0.1395  0.5925  0.1827
 2575TIP3    H1 7678   2.777   4.747   2.230  0.1277  0.7264  0.6523
 2575TIP3    H2 7679   2.784   4.647   2.343  0.1269  0.1320  0.1284
 2576TIP3   OH2 7680   1.790   2.269   4.562  0.5356  0.6637 -0.0558
 2576TIP3    H1 7681   1.733   2.290   4.488  1.1690 -0.0925 -0.7603
 2576TIP3    H2 7682   1.784   2.174   4.572  3.8598  0.1741 -1.9595
 2577TIP3   OH2 7683   3.911   3.679   2.110 -0.3174 -0.0202 -0.3232
 2577TIP3    H1 7684   3.885   3.586   2.106 -0.9845  0.1927 -1.0174
 2577TIP3    H2 7685   3.925   3.695   2.204  3.6499 -1.8347 -0.5064
 2578TIP3   OH2 7686   5.714   1.182   3.245  0.2357 -0.5825 -0.4792
 2578TIP3    H1 7687   5.671   1.208   3.164 -0.2443 -1.2485 -0.4407
 2578TIP3    H2 7688   5.641   1.162   3.305  0.5505  1.0576  0.5000
 2579TIP3   OH2 7689   3.963   2.449   1.347  0.7154  0.1086 -0.7027
 2579TIP3    H1 7690   3.933   2.515   1.409  1.9905  1.4154 -1.4362
 2579TIP3    H2 7691   3.915   2.370   1.370  0.4347  0.8474  1.2934
 2580TIP3   OH2 7692   5.862   1.450   3.497 -0.6039  0.3193 -0.1777
 2580TIP3    H1 7693   5.770   1.432   3.518 -1.1045  1.8906 -0.8951
 2580TIP3    H2 7694   5.906   1.366   3.506 -1.9055 -0.2449  1.2749
 2581TIP3   OH2 7695   2.189   1.842   3.401  0.9377  0.6938  0.0990
 2581TIP3    H1 7696   2.170   1.935   3.385  0.6920  0.7162  0.5070
 2581TIP3    H2 7697   2.179   1.800   3.316  0.0206  0.8685  0.1142
 2582TIP3   OH2 7698   2.451   0.219   1.587  0.6315 -0.1120 -0.2183
 2582TIP3    H1 7699   2.430   0.309   1.613  1.1622  0.2509 -1.0317
 2582TIP3    H2 7700   2.457   0.222   1.492  1.1368 -0.9058 -0.2132
 2583TIP3   OH2 7701   7.028   2.323   4.459 -0.0078  0.3154 -0.3229
 2583TIP3    H1 7702   7.072   2.364   4.533 -0.2655 -1.9962  1.1664
 2583TIP3    H2 7703   7.098   2.309   4.395  0.6703  0.2854  0.4083
 2584TIP3   OH2 7704   4.300   1.854   2.932 -0.3863 -0.1022 -0.2693
 2584TIP3    H1 7705   4.259   1.803   2.863 -1.7860  0.6121  0.0203
 2584TIP3    H2 7706   4.273   1.810   3.013  1.6778 -1.2520 -0.1724
 2585TIP3   OH2 7707   3.152   0.898   1.543  0.0901  0.1099  0.0894
 2585TIP3    H1 7708   3.100   0.932   1.616  0.3635  1.9170 -0.5176
 2585TIP3    H2 7709   3.243   0.914   1.570  0.2624 -0.9596  0.1660
 2586TIP3   OH2 7710   0.828   7.195   1.918 -0.7893  0.6251 -0.6425
 2586TIP3    H1 7711   0.921   7.174   1.909 -1.1580 -0.9103 -0.8803
 2586TIP3    H2 7712   0.787   7.157   1.840 -1.9509 -0.6744  0.5842
 2587TIP3   OH2 7713   6.164   1.879   1.855  0.3903  0.2409  0.1129
 2587TIP3    H1 7714   6.108   1.953   1.877 -0.6768 -0.3371 -0.5766
 2587TIP3    H2 7715   6.229   1.875   1.925 -0.5985  0.7666  1.0682
 2588TIP3   OH2 7716   4.262   1.393   3.145  0.1597  0.0477 -0.2425
 2588TIP3    H1 7717   4.284   1.323   3.083 -1.2716 -0.1238 -0.5805
 2588TIP3    H2 7718   4.169   1.380   3.164 -0.4295  2.5463 -1.2176
 2589TIP3   OH2 7719   3.368   2.166   2.231  0.1432  0.0791  0.6344
 2589TIP3    H1 7720   3.432   2.214   2.284 -0.3719  0.4250  0.9458
 2589TIP3    H2 7721   3.355   2.220   2.153  0.9358 -0.4525  0.1275
 2590TIP3   OH2 7722   5.559   3.957   4.458  0.4838 -0.0788 -0.1912
 2590TIP3    H1 7723   5.496   3.891   4.488 -1.8950  0.6911 -3.1876
 2590TIP3    H2 7724   5.611   3.977   4.536 -0.0492 -3.9627  1.3100
 2591TIP3   OH2 7725   5.148   2.117   1.636  0.4431 -0.2786  0.5990
 2591TIP3    H1 7726   5.225   2.163   1.603 -1.1525  1.8259 -0.3334
 2591TIP3    H2 7727   5.133   2.154   1.723  0.4879 -0.6715  0.7722
 2592TIP3   OH2 7728   3.301   2.305   0.585 -0.2549 -0.4327  0.2660
 2592TIP3    H1 7729   3.353   2.304   0.506 -0.0598 -1.1934  0.3934
 2592TIP3    H2 7730   3.274   2.213   0.597  0.3544 -0.4656  1.4877
 2593TIP3   OH2 7731   4.924   2.299   1.389  0.2615 -0.2708  0.3758
 2593TIP3    H1 7732   4.922   2.377   1.333  0.6801  0.4172  1.2972
 2593TIP3    H2 7733   4.847   2.249   1.363 -0.6049  0.9656  0.4824
 2594TIP3   OH2 7734   0.932   1.017   2.011  1.0057  0.0799  0.5194
 2594TIP3    H1 7735   0.867   1.075   2.052  1.2377  1.3225 -0.8085
 2594TIP3    H2 7736   0.911   0.930   2.044 -1.6827  0.3779 -0.2754
 2595TIP3   OH2 7737   4.631   2.469   4.131 -0.5236  0.0795 -0.2786
 2595TIP3    H1 7738   4.667   2.525   4.061  2.0289  0.3576  1.2039
 2595TIP3    H2 7739   4.666   2.382   4.112  1.7879  0.5333  1.6956
 2596TIP3   OH2 7740   5.146   2.814   2.742 -0.4787 -0.3321 -0.1243
 2596TIP3    H1 7741   5.135   2.764   2.661 -3.1320 -1.2793  0.7695
 2596TIP3    H2 7742   5.132   2.905   2.715  0.0323 -0.4903 -0.9562
 2597TIP3   OH2 7743   5.015   1.989   1.954  0.3556 -0.1226 -0.2851
 2597TIP3    H1 7744   4.936   1.964   1.906  0.9583 -0.8352 -0.9349
 2597TIP3    H2 7745   5.013   2.085   1.956  1.0788  0.0025 -3.1102
 2598TIP3   OH2 7746   0.641   6.947   2.906 -0.0946  0.0471 -0.0402
 2598TIP3    H1 7747   0.570   6.980   2.961 -0.6008 -1.2850  0.1287
 2598TIP3    H2 7748   0.637   6.851   2.916  0.8278 -0.1199 -1.1350
 2599TIP3   OH2 7749   3.664   1.906   2.043  0.4923 -0.5578  0.2224
 2599TIP3    H1 7750   3.594   1.847   2.072  0.3784 -0.8289 -0.6044
 2599TIP3    H2 7751   3.745   1.864   2.071  0.3648 -0.6436  0.4619
 2600TIP3   OH2 7752   5.597   1.086   1.807  0.3852  0.5370 -0.0029
 2600TIP3    H1 7753   5.690   1.106   1.814  0.2325  1.9524 -1.6490
 2600TIP3    H2 7754   5.557   1.168   1.777 -0.9603 -0.9048 -2.2804
 2601TIP3   OH2 7755   6.002   2.338   0.959 -0.0635  0.3307  0.2469
 2601TIP3    H1 7756   5.954   2.308   0.882  0.8204 -0.5064  0.0117
 2601TIP3    H2 7757   6.010   2.432   0.947  0.6478  0.1211 -1.0311
 2602TIP3   OH2 7758   5.264   3.490   3.133  0.5738 -0.2367  0.5239
 2602TIP3    H1 7759   5.169   3.495   3.144  0.5092  0.9619 -0.5366
 2602TIP3    H2 7760   5.290   3.418   3.190 -0.8193  0.2011  1.7658
 2603TIP3   OH2 7761   3.529   2.833   2.420 -0.6840  0.2728  0.1877
 2603TIP3    H1 7762   3.449   2.885   2.418 -0.7383  0.2348  1.0713
 2603TIP3    H2 7763   3.500   2.744   2.439 -0.5258  0.0529 -0.5793
 2604TIP3   OH2 7764   5.369   2.234   1.867 -0.2190 -0.1016  0.0681
 2604TIP3    H1 7765   5.399   2.177   1.797  0.1285 -0.9580  0.9021
 2604TIP3    H2 7766   5.392   2.322   1.838  1.6159 -0.6076 -0.0483
 2605TIP3   OH2 7767   4.365   0.982   2.622 -0.0980 -0.0230 -0.1571
 2605TIP3    H1 7768   4.404   1.043   2.559  1.4006 -0.9794 -0.1775
 2605TIP3    H2 7769   4.434   0.968   2.687 -0.4086 -1.7492 -0.1821
 2606TIP3   OH2 7770   5.016   0.584   3.972 -0.2502 -0.1005  0.1428
 2606TIP3    H1 7771   4.986   0.505   3.928 -1.9643 -0.3503  1.6913
 2606TIP3    H2 7772   5.049   0.554   4.057  0.1624  0.7040  0.2792
 2607TIP3   OH2 7773   3.663   0.735   2.486  0.0593  0.4505  0.0089
 2607TIP3    H1 7774   3.573   0.709   2.508 -0.3867  0.0305 -2.1571
 2607TIP3    H2 7775   3.661   0.830   2.485 -0.3072  0.4462  0.2110
 2608TIP3   OH2 7776   5.835   1.191   1.859  0.4634 -0.0358 -0.1533
 2608TIP3    H1 7777   5.823   1.275   1.816  1.2814  0.9160  1.4482
 2608TIP3    H2 7778   5.922   1.162   1.833 -0.2735 -0.9830 -1.6616
 2609TIP3   OH2 7779   4.393   2.537   3.117  0.0117 -0.1157  0.0284
 2609TIP3    H1 7780   4.324   2.520   3.052  2.0351  0.5317 -2.3942
 2609TIP3    H2 7781   4.449   2.459   3.112  1.0259  0.6161 -0.1319
 2610TIP3   OH2 7782   5.340   3.315   3.810 -0.0762  0.2096  0.3349
 2610TIP3    H1 7783   5.283   3.384   3.845 -0.1221 -1.0510  2.8930
 2610TIP3    H2 7784   5.428   3.350   3.820 -0.1055 -0.0394  1.5427
 2611TIP3   OH2 7785   2.384   6.839   4.135 -0.1811  0.2280  0.1470
 2611TIP3    H1 7786   2.355   6.822   4.225  0.5994 -0.7424  0.2139
 2611TIP3    H2 7787   2.408   6.932   4.134 -1.5277  0.5906  0.5725
 2612TIP3   OH2 7788   3.015   1.290   4.830 -0.0237  0.4610  0.3538
 2612TIP3    H1 7789   3.079   1.361   4.836  2.4683 -1.7758  1.3362
 2612TIP3    H2 7790   3.017   1.265   4.738  0.9177  0.1067  0.4557
 2613TIP3   OH2 7791   4.714   1.302   4.139  0.2046 -0.3271 -0.3139
 2613TIP3    H1 7792   4.645   1.291   4.073  0.2431  2.0387 -0.7929
 2613TIP3    H2 7793   4.686   1.248   4.212 -2.6115  1.2095 -0.1800
 2614TIP3   OH2 7794   3.256   2.112   3.670  0.7226  0.1412  0.5666
 2614TIP3    H1 7795   3.219   2.046   3.728  0.3037 -0.5635 -0.4696
 2614TIP3    H2 7796   3.220   2.195   3.701 -3.1894 -0.6578 -1.4174
 2615TIP3   OH2 7797   3.368   1.872   2.208  0.3790 -0.2394 -0.0044
 2615TIP3    H1 7798   3.286   1.823   2.212 -0.0555  0.4972  0.2779
 2615TIP3    H2 7799   3.343   1.962   2.230  1.3288 -0.0872  0.4603
 2616TIP3   OH2 7800   3.618   2.938   3.160  0.0121 -0.2120  0.2320
 2616TIP3    H1 7801   3.557   2.985   3.217 -0.0945 -0.2183  0.1224
 2616TIP3    H2 7802   3.643   2.861   3.210  0.7017  0.2936  0.6879
 2617TIP3   OH2 7803   5.430   4.577   1.525  0.4193  0.1982 -0.1523
 2617TIP3    H1 7804   5.503   4.593   1.585  0.4393 -0.1681 -0.0839
 2617TIP3    H2 7805   5.367   4.646   1.546  0.0856 -0.3962  0.8163
 2618TIP3   OH2 7806   6.755   3.112   2.271  0.5433 -0.0702 -0.1628
 2618TIP3    H1 7807   6.795   3.101   2.184 -0.2901 -2.2572 -0.3003
 2618TIP3    H2 7808   6.783   3.035   2.320 -0.9103 -0.0261  0.7685
 2619TIP3   OH2 7809   3.272   3.254   1.496  0.4046  0.6992 -0.2235
 2619TIP3    H1 7810   3.293   3.346   1.480  1.9014  0.8875  2.5352
 2619TIP3    H2 7811   3.196   3.257   1.554  0.4074  0.2058 -0.1951
 2620TIP3   OH2 7812   4.083   2.999   3.652 -0.2398  0.1276  0.9851
 2620TIP3    H1 7813   4.101   2.924   3.595  0.4445  1.3631 -0.4375
 2620TIP3    H2 7814   4.160   3.005   3.709  0.5901  0.9466 -0.2192
 2621TIP3   OH2 7815   4.029   1.965   2.747 -0.0204  0.2880  0.3699
 2621TIP3    H1 7816   4.024   1.888   2.804  1.9045  1.4625  2.1931
 2621TIP3    H2 7817   4.026   2.040   2.806 -1.1052  1.6436 -1.3207
 2622TIP3   OH2 7818   4.592   3.688   3.623 -0.2055  0.0479  0.7599
 2622TIP3    H1 7819   4.573   3.765   3.571  0.8530 -0.0736  0.1886
 2622TIP3    H2 7820   4.509   3.668   3.667 -0.2994  1.9292  1.4803
 2623TIP3   OH2 7821   3.319   2.753   1.418  0.0041  0.0616 -0.4470
 2623TIP3    H1 7822   3.225   2.750   1.437  0.2267  0.6375  0.8606
 2623TIP3    H2 7823   3.339   2.846   1.409  0.5219 -0.0333 -0.3093
 2624TIP3   OH2 7824   5.821   2.701   2.260  0.4851  0.6931  0.2189
 2624TIP3    H1 7825   5.850   2.792   2.268  0.4320  0.7262  0.0350
 2624TIP3    H2 7826   5.888   2.650   2.306  2.0435  0.5497 -2.1065
 2625TIP3   OH2 7827   3.560   1.443   3.108  0.0208 -0.3286 -0.6928
 2625TIP3    H1 7828   3.480   1.392   3.122  0.3942 -0.8025 -0.2067
 2625TIP3    H2 7829   3.553   1.476   3.019 -1.7299  1.4761  0.1008
 2626TIP3   OH2 7830   3.279   1.228   1.703  0.0571 -0.4852 -0.7450
 2626TIP3    H1 7831   3.320   1.247   1.787 -0.7478  0.2667 -0.5145
 2626TIP3    H2 7832   3.352   1.224   1.641  0.5175  0.4777 -0.2771
 2627TIP3   OH2 7833   6.215   2.242   2.010  0.4922  0.1207 -0.4423
 2627TIP3    H1 7834   6.140   2.193   1.978 -0.4165  1.9924 -1.2673
 2627TIP3    H2 7835   6.291   2.191   1.983 -0.4733 -1.6016  0.0749
 2628TIP3   OH2 7836   5.087   2.248   1.870  0.3503  0.2040  0.3424
 2628TIP3    H1 7837   5.041   2.316   1.920  0.6741 -0.6694  1.8570
 2628TIP3    H2 7838   5.179   2.258   1.895  0.4527 -0.5242  0.2697
 2629TIP3   OH2 7839   4.122   4.076   0.856 -0.2505 -0.2247  0.2221
 2629TIP3    H1 7840   4.217   4.087   0.852 -0.2715 -0.0455  0.2035
 2629TIP3    H2 7841   4.093   4.074   0.765 -0.3663  0.6458  0.2311
 2630TIP3   OH2 7842   3.237   2.114   3.064 -0.4848 -0.3860 -0.4243
 2630TIP3    H1 7843   3.177   2.057   3.018  0.1374 -1.8971  0.5945
 2630TIP3    H2 7844   3.204   2.202   3.049 -2.1586 -1.1085 -0.9946
 2631TIP3   OH2 7845   5.025   2.856   1.709  0.2477  0.5860  0.3251
 2631TIP3    H1 7846   5.005   2.950   1.711 -1.4110  0.2477  0.2998
 2631TIP3    H2 7847   5.080   2.842   1.786 -0.1249  1.4483  0.7655
 2632TIP3   OH2 7848   3.512   2.840   1.831 -0.7535  0.1076  0.3441
 2632TIP3    H1 7849   3.591   2.892   1.838 -0.1787 -0.2646 -2.6471
 2632TIP3    H2 7850   3.464   2.858   1.912  1.9324  1.0194  1.7970
 2633TIP3   OH2 7851   3.513   2.558   2.538  0.0005  0.1562 -0.4628
 2633TIP3    H1 7852   3.438   2.539   2.483  0.5254  0.1710 -1.1980
 2633TIP3    H2 7853   3.552   2.472   2.556 -0.6581  0.0767  0.5901
 2634TIP3   OH2 7854   7.448   7.351   2.475 -0.1052 -0.7221  0.3001
 2634TIP3    H1 7855   7.426   7.384   2.562 -2.7799  0.8791 -0.9140
 2634TIP3    H2 7856   7.484   7.426   2.428 -0.6677 -1.0025 -0.6073
 2635TIP3   OH2 7857   5.366   0.070   4.834  0.1288  0.8064  0.0827
 2635TIP3    H1 7858   5.438   0.072   4.897 -0.2291 -0.8085  0.5597
 2635TIP3    H2 7859   5.291   0.106   4.883 -0.4396 -1.5325  0.9807
 2636TIP3   OH2 7860   7.070   0.539   3.242 -0.6076 -0.4531  0.3666
 2636TIP3    H1 7861   7.041   0.458   3.283 -0.4428  0.6141  2.6602
 2636TIP3    H2 7862   7.166   0.534   3.244 -0.5788  0.2799  1.5707
 2637TIP3   OH2 7863   4.509   1.846   4.405 -0.2668 -0.0586  0.1355
 2637TIP3    H1 7864   4.495   1.828   4.498 -0.3520  0.4159  0.2122
 2637TIP3    H2 7865   4.560   1.771   4.374 -1.3527 -0.8798  0.2760
 2638TIP3   OH2 7866   5.701   4.677   5.735 -0.5116 -0.0955 -0.3883
 2638TIP3    H1 7867   5.685   4.746   5.799  0.3168  0.2297 -0.5348
 2638TIP3    H2 7868   5.760   4.616   5.778  0.6504  0.5100 -1.0973
 2639TIP3   OH2 7869   6.359   4.514   5.854 -0.7748 -0.1826 -0.8749
 2639TIP3    H1 7870   6.316   4.443   5.902  0.7954 -0.8338 -0.4087
 2639TIP3    H2 7871   6.439   4.533   5.904  0.1415  0.1174 -2.4174
 2640TIP3   OH2 7872   3.788   1.725   2.525  0.1596  0.2326 -0.2149
 2640TIP3    H1 7873   3.726   1.790   2.495  1.2006  0.1658 -2.6419
 2640TIP3    H2 7874   3.783   1.728   2.620 -2.8297  0.8819 -0.3592
 2641TIP3   OH2 7875   4.585   2.130   1.467 -0.0060  0.0470 -0.0832
 2641TIP3    H1 7876   4.532   2.060   1.428  0.2432 -0.2174  0.0566
 2641TIP3    H2 7877   4.672   2.119   1.429  0.2065 -0.1363  0.4539
 2642TIP3   OH2 7878   3.176   2.510   0.266  0.0150 -0.3240 -0.8099
 2642TIP3    H1 7879   3.261   2.503   0.309  0.1888 -2.0938 -1.3815
 2642TIP3    H2 7880   3.196   2.506   0.172 -0.6579 -0.5013 -0.9501
 2643TIP3   OH2 7881   5.810   1.368   2.982  0.3876  0.5430  0.1499
 2643TIP3    H1 7882   5.874   1.303   3.011  1.7406  1.1297 -1.3660
 2643TIP3    H2 7883   5.813   1.436   3.049  2.0529  0.9924 -0.3517
 2644TIP3   OH2 7884   6.510   1.917   3.103  0.2574  0.3224 -0.4959
 2644TIP3    H1 7885   6.587   1.928   3.047  0.3669 -0.6237 -0.5347
 2644TIP3    H2 7886   6.510   1.824   3.126 -0.1444  0.5816  0.5631
 2645TIP3   OH2 7887   5.184   4.034   2.875  0.1079  0.0388  0.2779
 2645TIP3    H1 7888   5.128   4.059   2.949 -2.1241 -1.5905 -0.7768
 2645TIP3    H2 7889   5.142   4.074   2.799  1.3339  0.1816 -0.3269
 2646TIP3   OH2 7890   3.067   1.272   1.509  0.7064 -0.0257 -0.4172
 2646TIP3    H1 7891   3.125   1.216   1.560 -0.3737 -2.2933 -1.6333
 2646TIP3    H2 7892   3.117   1.353   1.497  1.8254 -0.2411  2.3613
 2647TIP3   OH2 7893   3.461   0.261   2.386 -0.1896  0.5377  0.6556
 2647TIP3    H1 7894   3.468   0.167   2.404  0.8453  0.6169  0.7025
 2647TIP3    H2 7895   3.378   0.271   2.339  1.3352 -0.8505 -2.4372
 2648TIP3   OH2 7896   6.288   2.481   2.141  0.1429  0.0797  0.2222
 2648TIP3    H1 7897   6.338   2.496   2.060 -1.4545  1.4468 -0.5245
 2648TIP3    H2 7898   6.279   2.386   2.145  0.5422 -0.0266 -1.0152
 2649TIP3   OH2 7899   3.941   1.941   4.246  0.2029  0.0775 -0.4051
 2649TIP3    H1 7900   3.950   1.901   4.332  2.0231 -1.2816 -1.1961
 2649TIP3    H2 7901   3.848   1.965   4.240 -0.6204 -2.6834  0.6904
 2650TIP3   OH2 7902   1.373   5.065   2.672  0.5012 -0.5566 -0.1224
 2650TIP3    H1 7903   1.361   5.032   2.583  0.8379 -3.1250  0.7362
 2650TIP3    H2 7904   1.340   4.995   2.728  1.9172  0.2859  1.8250
 2651TIP3   OH2 7905   2.934   2.811   4.112 -0.0250  0.2894 -0.8041
 2651TIP3    H1 7906   2.917   2.818   4.206  1.1811 -0.9071 -0.4881
 2651TIP3    H2 7907   2.993   2.884   4.094  2.0798 -1.1753 -0.0421
 2652TIP3   OH2 7908   0.688   7.148   1.426 -0.1018  0.8111  0.1875
 2652TIP3    H1 7909   0.751   7.105   1.367  0.2202  3.5074 -1.5102
 2652TIP3    H2 7910   0.604   7.141   1.381 -0.5996 -0.6145  1.3032
 2653TIP3   OH2 7911   4.916   2.080   2.786  0.3241 -0.1554 -0.1290
 2653TIP3    H1 7912   4.897   2.109   2.697 -3.1396  2.1756  1.2499
 2653TIP3    H2 7913   4.865   1.999   2.796 -2.0781  1.3881  0.7248
 2654TIP3   OH2 7914   4.024   1.843   1.901 -0.2118  0.6205  0.2881
 2654TIP3    H1 7915   3.988   1.932   1.897 -1.0153  0.3483  1.1801
 2654TIP3    H2 7916   4.034   1.826   1.995  0.7935  0.1090  0.0840
 2655TIP3   OH2 7917   3.252   3.458   3.682  0.3169 -0.3588 -0.4568
 2655TIP3    H1 7918   3.270   3.373   3.640  0.7095 -0.4008 -0.2090
 2655TIP3    H2 7919   3.308   3.458   3.760 -1.0346 -0.6536  0.5436
 2656TIP3   OH2 7920   1.790   1.261   1.263  0.0968  1.1527 -0.8910
 2656TIP3    H1 7921   1.814   1.210   1.341  1.4914 -0.9646 -2.6442
 2656TIP3    H2 7922   1.698   1.284   1.278 -0.2062 -0.7977  0.5747
 2657TIP3   OH2 7923   4.215   0.965   3.015  0.4872 -0.5255  0.6509
 2657TIP3    H1 7924   4.142   1.005   3.062  1.6665 -0.0818  2.1782
 2657TIP3    H2 7925   4.204   0.992   2.924 -0.4745  0.7019  1.1176
 2658TIP3   OH2 7926   1.057   1.233   2.499  0.1772 -0.0881 -0.0595
 2658TIP3    H1 7927   0.982   1.186   2.462  0.0307 -2.4484  3.0440
 2658TIP3    H2 7928   1.126   1.166   2.506  0.4150  0.4253  3.1796
 2659TIP3   OH2 7929   5.905   2.685   2.630  0.8088  0.1394 -0.4209
 2659TIP3    H1 7930   5.947   2.601   2.613 -2.0840 -1.5162  0.2611
 2659TIP3    H2 7931   5.885   2.683   2.724  0.2215  1.3482 -0.5034
 2660TIP3   OH2 7932   4.966   2.840   4.615  0.5318 -0.4608  0.4963
 2660TIP3    H1 7933   4.872   2.846   4.601  0.5768 -2.3764 -0.8081
 2660TIP3    H2 7934   4.984   2.746   4.619  2.2414 -0.1107  1.7890
 2661TIP3   OH2 7935   3.393   1.698   2.681  0.3150 -0.3249  0.6141
 2661TIP3    H1 7936   3.307   1.721   2.717  0.6461 -1.2279  2.0343
 2661TIP3    H2 7937   3.372   1.644   2.604 -0.3984 -0.2058  0.7172
 2662TIP3   OH2 7938   3.635   1.850   3.115 -0.2913  0.1218  0.4445
 2662TIP3    H1 7939   3.568   1.904   3.074  0.5326  1.1224  0.4111
 2662TIP3    H2 7940   3.686   1.911   3.169  2.3254 -0.0930 -1.6928
 2663TIP3   OH2 7941   3.484   2.094   2.677  0.7160  0.2081  0.2765
 2663TIP3    H1 7942   3.555   2.157   2.658 -0.6489  1.2201 -1.6052
 2663TIP3    H2 7943   3.468   2.105   2.770  1.9189  1.1902  0.3903
 2664TIP3   OH2 7944   5.007   3.900   3.338  0.1585  0.5029  0.3872
 2664TIP3    H1 7945   5.047   3.884   3.253 -1.3280 -0.5294 -0.1458
 2664TIP3    H2 7946   4.917   3.868   3.329  0.5301 -1.4984  2.9370
 2665TIP3   OH2 7947   5.404   3.456   1.394 -0.3702 -0.2572  0.2492
 2665TIP3    H1 7948   5.496   3.457   1.366 -0.5641 -0.1881 -0.4044
 2665TIP3    H2 7949   5.368   3.537   1.357 -0.1853  0.7708  2.2628
 2666TIP3   OH2 7950   5.244   0.061   2.195  0.5007  0.2622 -0.4095
 2666TIP3    H1 7951   5.262   0.153   2.215  0.1368  0.5135 -1.1852
 2666TIP3    H2 7952   5.231   0.061   2.100 -0.1994 -0.4801 -0.3089
 2667TIP3   OH2 7953   4.527   0.052   2.366  0.8132 -0.3229 -0.0834
 2667TIP3    H1 7954   4.563   0.141   2.360  0.2582 -0.0418  0.7833
 2667TIP3    H2 7955   4.501   0.031   2.276  0.6293  0.5174 -0.2308
 2668TIP3   OH2 7956   4.584   1.567   2.190 -0.3008  0.1911 -0.0020
 2668TIP3    H1 7957   4.549   1.546   2.277  2.5654  1.0400  1.4358
 2668TIP3    H2 7958   4.516   1.618   2.148 -1.1918  0.9794  2.3058
 2669TIP3   OH2 7959   4.009   1.275   2.661 -0.1720  0.0928 -0.0855
 2669TIP3    H1 7960   3.953   1.332   2.713  0.5974  0.0156  0.8203
 2669TIP3    H2 7961   4.034   1.328   2.585 -1.0537  0.2953 -0.2402
 2670TIP3   OH2 7962   7.657   0.814   1.744 -0.6732 -0.7760  0.2817
 2670TIP3    H1 7963   7.704   0.742   1.700  0.3790  0.5624 -0.8180
 2670TIP3    H2 7964   7.580   0.828   1.690  0.8204  1.1343 -1.4362
 2671TIP3   OH2 7965   1.677   7.316   4.222  0.0422 -0.1874  0.5590
 2671TIP3    H1 7966   1.590   7.281   4.202 -0.1680  0.2406  0.7284
 2671TIP3    H2 7967   1.660   7.402   4.260  0.4704 -0.7444  2.0355
 2672TIP3   OH2 7968   5.085   1.630   3.958  0.0301  0.1478 -0.2780
 2672TIP3    H1 7969   5.116   1.680   4.034 -0.4054 -0.1341  0.0914
 2672TIP3    H2 7970   5.042   1.553   3.996  0.7901 -0.5689 -0.8419
 2673TIP3   OH2 7971   3.988   3.200   2.567  0.3899 -0.0473  0.1934
 2673TIP3    H1 7972   4.060   3.188   2.505  1.7910 -2.2230  2.1441
 2673TIP3    H2 7973   4.007   3.138   2.638 -1.5997  1.7373  2.3906
 2674TIP3   OH2 7974   4.950   1.224   4.936 -0.0599  0.1172 -0.3336
 2674TIP3    H1 7975   4.899   1.169   4.996  0.5048 -0.6652 -0.5622
 2674TIP3    H2 7976   4.963   1.306   4.983 -0.4006 -0.1654  0.2516
 2675TIP3   OH2 7977   5.117   3.513   0.958  0.3864 -0.0349 -0.4724
 2675TIP3    H1 7978   5.056   3.441   0.943  1.2556 -0.5796 -1.4013
 2675TIP3    H2 7979   5.098   3.541   1.048 -0.8342 -0.5690 -0.5503
 2676TIP3   OH2 7980   3.858   1.893   3.315 -0.4573  0.6959 -0.2594
 2676TIP3    H1 7981   3.867   1.988   3.314  0.7632  0.5784 -0.3384
 2676TIP3    H2 7982   3.793   1.877   3.384  2.5997  1.3409  2.8976
 2677TIP3   OH2 7983   4.491   1.520   3.244  0.4612 -0.1651  0.2247
 2677TIP3    H1 7984   4.535   1.533   3.159  0.3653  2.7307  0.5869
 2677TIP3    H2 7985   4.398   1.522   3.224  0.4386  0.3333  0.3906
 2678TIP3   OH2 7986   6.378   1.480   4.461  0.3056  0.8136  0.4045
 2678TIP3    H1 7987   6.457   1.481   4.516 -1.5742  0.0295  3.2645
 2678TIP3    H2 7988   6.396   1.542   4.391  2.3762  2.8033  2.6103
 2679TIP3   OH2 7989   5.609   3.257   2.161 -0.1142 -0.1559  0.5546
 2679TIP3    H1 7990   5.668   3.301   2.222 -0.9583 -0.5098  1.6625
 2679TIP3    H2 7991   5.521   3.276   2.195 -0.5264 -1.8381  0.4755
 2680TIP3   OH2 7992   3.496   3.251   1.800  0.1835  0.1944 -0.1115
 2680TIP3    H1 7993   3.528   3.232   1.888 -1.0015 -0.8863  0.0887
 2680TIP3    H2 7994   3.410   3.291   1.814  0.0558  0.1549 -0.7701
 2681TIP3   OH2 7995   1.927   2.534   1.743  0.2528  1.0025  0.0254
 2681TIP3    H1 7996   2.004   2.519   1.798  0.5659  1.2719 -0.3457
 2681TIP3    H2 7997   1.950   2.497   1.658  0.1516  1.5095 -0.2241
 2682TIP3   OH2 7998   3.201   3.250   3.892 -0.1280 -0.0084  0.2026
 2682TIP3    H1 7999   3.270   3.316   3.901 -0.8613  0.8125 -0.2393
 2682TIP3    H2 8000   3.132   3.280   3.951  0.6184 -1.7979  2.0626
 2683TIP3   OH2 8001   3.973   2.877   2.210 -0.0378  0.2194 -0.1061
 2683TIP3    H1 8002   3.895   2.829   2.238  0.9988 -0.1433  2.2553
 2683TIP3    H2 8003   4.008   2.825   2.137  0.9353 -2.5703  2.2417
 2684TIP3   OH2 8004   4.116   1.426   3.457  0.2866  0.1421  0.2280
 2684TIP3    H1 8005   4.031   1.469   3.469  0.5539  0.9948 -0.8454
 2684TIP3    H2 8006   4.135   1.438   3.364  2.5777  1.8033  0.8698
 2685TIP3   OH2 8007   5.235   2.669   3.985 -0.0029 -0.4226  0.5932
 2685TIP3    H1 8008   5.217   2.723   3.908 -0.5232 -1.1947  0.1642
 2685TIP3    H2 8009   5.330   2.673   3.996  0.1847 -1.1041 -0.6809
 2686TIP3   OH2 8010   2.756   0.413   2.129  0.1263  0.0807  0.5511
 2686TIP3    H1 8011   2.809   0.398   2.207  0.3013 -0.1352  0.3935
 2686TIP3    H2 8012   2.742   0.508   2.127  1.1625  0.2443  0.1829
 2687TIP3   OH2 8013   4.916   0.978   3.409 -0.3389 -0.6400 -0.1152
 2687TIP3    H1 8014   4.949   0.889   3.399 -2.1707 -1.3752  0.1709
 2687TIP3    H2 8015   4.976   1.019   3.472  1.0401 -1.3674 -0.9305
 2688TIP3   OH2 8016   6.407   2.378   3.654 -0.0105 -0.1694 -0.4929
 2688TIP3    H1 8017   6.465   2.391   3.729 -1.0753  1.7750  0.0122
 2688TIP3    H2 8018   6.448   2.426   3.582 -1.6776  2.4572  0.2378
 2689TIP3   OH2 8019   4.027   2.299   1.950  0.4653  0.2880 -0.0927
 2689TIP3    H1 8020   4.007   2.330   2.039  0.5684  1.1467 -0.3660
 2689TIP3    H2 8021   4.116   2.263   1.957  0.5214  0.4647  0.1341
 2690TIP3   OH2 8022   2.599   7.262   4.765 -0.3526 -0.1625 -0.4600
 2690TIP3    H1 8023   2.626   7.351   4.742 -2.0762  0.5151  0.1229
 2690TIP3    H2 8024   2.605   7.259   4.860 -0.3612 -0.6623 -0.4731
 2691TIP3   OH2 8025   2.784   1.885   4.574  0.0980  0.3935 -0.5738
 2691TIP3    H1 8026   2.712   1.933   4.534  2.6120  3.2171 -1.8853
 2691TIP3    H2 8027   2.835   1.851   4.500  0.9238 -0.3467  0.3070
 2692TIP3   OH2 8028   5.721   3.098   3.607 -0.0839  0.3666  0.0244
 2692TIP3    H1 8029   5.802   3.083   3.558  0.0301  3.9779 -1.0321
 2692TIP3    H2 8030   5.750   3.126   3.694 -0.2407 -0.5331  0.3724
 2693TIP3   OH2 8031   4.450   1.770   4.674 -0.0186  0.5081 -0.4715
 2693TIP3    H1 8032   4.466   1.677   4.693 -0.3778  0.6018  0.3023
 2693TIP3    H2 8033   4.355   1.779   4.679  0.1342  1.3034  1.2805
 2694TIP3   OH2 8034   3.841   6.732   0.330  0.1139 -0.1554  0.6970
 2694TIP3    H1 8035   3.886   6.727   0.245  0.4961 -0.9236  0.9470
 2694TIP3    H2 8036   3.908   6.707   0.394  0.1700  1.5772  1.3500
 2695TIP3   OH2 8037   5.496   1.422   1.843 -0.3409  0.1818  0.2089
 2695TIP3    H1 8038   5.515   1.432   1.750  2.2744  2.4939  0.9447
 2695TIP3    H2 8039   5.578   1.444   1.887 -1.5937 -0.6916  3.0849
 2696TIP3   OH2 8040   4.126   7.141   4.251  0.0856  0.0705 -0.0093
 2696TIP3    H1 8041   4.077   7.195   4.312  1.9122 -0.3214  1.8765
 2696TIP3    H2 8042   4.182   7.202   4.204 -1.6974  0.4392 -1.7200
 2697TIP3   OH2 8043   4.602   3.181   1.882 -0.3391 -0.1871 -0.1445
 2697TIP3    H1 8044   4.627   3.254   1.939  0.0710 -1.0480  0.7910
 2697TIP3    H2 8045   4.566   3.116   1.941 -0.2583 -0.9427 -0.9200
 2698TIP3   OH2 8046   0.303   7.373   3.650 -0.3092 -0.5864 -0.4485
 2698TIP3    H1 8047   0.377   7.433   3.657 -0.1899 -0.7200 -0.5642
 2698TIP3    H2 8048   0.263   7.392   3.565  0.8277 -1.9272 -1.3091
 2699TIP3   OH2 8049   5.623   1.845   3.397 -0.3637 -0.0213 -0.0803
 2699TIP3    H1 8050   5.559   1.849   3.467 -1.1758  0.5711 -0.8571
 2699TIP3    H2 8051   5.633   1.935   3.368  0.4686 -0.1737 -0.2893
 2700TIP3   OH2 8052   5.576   2.160   1.377 -0.2514  0.2149  0.4666
 2700TIP3    H1 8053   5.504   2.155   1.314  0.5181  2.0995 -0.6046
 2700TIP3    H2 8054   5.654   2.137   1.327  0.3685  1.6948  0.7257
 2701TIP3   OH2 8055   3.186   0.699   4.427  0.1914  0.1539 -0.3394
 2701TIP3    H1 8056   3.131   0.709   4.349 -1.3030 -0.2709  0.6473
 2701TIP3    H2 8057   3.153   0.621   4.470  0.8803  0.5030  0.8363
 2702TIP3   OH2 8058   1.776   3.271   5.401  0.3660 -0.0571  0.0244
 2702TIP3    H1 8059   1.690   3.310   5.386  0.1773 -0.5324 -0.1407
 2702TIP3    H2 8060   1.825   3.290   5.321  0.4174  0.2171  0.1205
 2703TIP3   OH2 8061   4.796   1.751   5.204 -0.5405 -0.1812  0.3764
 2703TIP3    H1 8062   4.824   1.829   5.252 -2.1534 -0.0992  1.2082
 2703TIP3    H2 8063   4.826   1.766   5.114  2.1738 -0.1700  1.2588
 2704TIP3   OH2 8064   2.258   6.884   0.850  0.7685  0.1978  0.1135
 2704TIP3    H1 8065   2.215   6.819   0.906  1.4170  0.3652  0.8128
 2704TIP3    H2 8066   2.186   6.925   0.803 -0.1361  2.0838  2.9680
 2705TIP3   OH2 8067   0.488   6.341   5.476  0.2448 -0.0363 -0.6262
 2705TIP3    H1 8068   0.426   6.317   5.545  1.8818 -0.8879  0.5976
 2705TIP3    H2 8069   0.571   6.305   5.506  0.8365 -1.1669 -3.4576
 2706TIP3   OH2 8070   5.929   1.480   3.227  0.1519 -0.2854  0.1421
 2706TIP3    H1 8071   5.900   1.441   3.309  1.6882 -0.0865  0.7872
 2706TIP3    H2 8072   6.023   1.492   3.237  0.1838  0.7903 -1.2117
 2707TIP3   OH2 8073   4.681   1.302   4.765  0.3213  0.4880  0.1547
 2707TIP3    H1 8074   4.682   1.284   4.860  1.5857  0.1188  0.0796
 2707TIP3    H2 8075   4.773   1.300   4.740 -0.0023  0.7988 -1.0560
 2708TIP3   OH2 8076   4.857   4.065   2.055  0.5960  0.1553 -0.1822
 2708TIP3    H1 8077   4.914   3.989   2.051  0.3776  0.0416 -1.1444
 2708TIP3    H2 8078   4.789   4.041   2.118  0.7803 -0.2671 -0.1460
 2709TIP3   OH2 8079   5.440   2.900   2.183  0.0184  0.1865  0.0436
 2709TIP3    H1 8080   5.476   2.823   2.138 -0.5322  0.5747 -1.0697
 2709TIP3    H2 8081   5.512   2.933   2.235  1.0008  0.4037 -1.4390
 2710TIP3   OH2 8082   4.871   2.528   5.281 -0.1932  0.0819 -0.2580
 2710TIP3    H1 8083   4.927   2.592   5.237 -0.9199 -0.2789 -1.7695
 2710TIP3    H2 8084   4.786   2.538   5.238 -0.8881 -0.4227  0.9640
 2711TIP3   OH2 8085   5.676   2.477   2.001 -0.1565 -0.0217  0.1168
 2711TIP3    H1 8086   5.685   2.418   1.926  1.9113  0.3000  0.1057
 2711TIP3    H2 8087   5.760   2.522   2.008 -1.2127  1.9213  0.9989
 2712TIP3   OH2 8088   5.677   0.193   3.478  0.5379  0.2539  0.2457
 2712TIP3    H1 8089   5.685   0.288   3.487  0.3734  0.2906  0.0105
 2712TIP3    H2 8090   5.623   0.181   3.400  1.4365 -0.0491 -0.3361
 2713TIP3   OH2 8091   2.612   1.987   2.056 -0.2852  0.1856 -0.3083
 2713TIP3    H1 8092   2.544   1.926   2.028 -1.4551  0.8605  1.0501
 2713TIP3    H2 8093   2.608   2.058   1.992 -1.0012  0.3381 -0.0888
 2714TIP3   OH2 8094   2.801   3.607   2.277 -0.0019  0.0281 -0.4880
 2714TIP3    H1 8095   2.762   3.588   2.362 -2.7823  2.4653 -1.1261
 2714TIP3    H2 8096   2.735   3.581   2.213  1.8569 -1.3328 -1.9179
 2715TIP3   OH2 8097   2.363   0.900   3.046 -0.4374 -0.2221 -0.0238
 2715TIP3    H1 8098   2.329   0.986   3.069  0.4046  0.0025  0.3629
 2715TIP3    H2 8099   2.390   0.861   3.130 -0.2008 -0.6036 -0.2744
 2716TIP3   OH2 8100   2.001   2.431   3.773 -0.1151 -0.4246 -0.0053
 2716TIP3    H1 8101   1.981   2.338   3.773 -0.6135 -0.3212 -0.1654
 2716TIP3    H2 8102   2.089   2.437   3.809  0.4580 -1.0777 -1.2715
 2717TIP3   OH2 8103   3.429   3.357   0.995  0.0691 -0.1435  0.0613
 2717TIP3    H1 8104   3.364   3.286   0.997 -0.5212  0.3893  0.2400
 2717TIP3    H2 8105   3.511   3.314   0.974  0.0818 -1.1828  2.1006
 2718TIP3   OH2 8106   2.987   3.286   4.044 -0.3924  0.0428 -0.5506
 2718TIP3    H1 8107   2.892   3.278   4.056 -0.3694 -0.1877 -0.5287
 2718TIP3    H2 8108   3.021   3.304   4.132 -0.4521  0.4805 -0.6134
 2719TIP3   OH2 8109   2.458   2.720   1.094  0.1390  0.1799 -0.0406
 2719TIP3    H1 8110   2.521   2.652   1.120  0.6205  0.1574 -1.2215
 2719TIP3    H2 8111   2.372   2.679   1.106  0.3588  0.0190  1.0559
 2720TIP3   OH2 8112   2.077   6.918   2.009 -0.1948 -0.1627 -0.2458
 2720TIP3    H1 8113   2.167   6.894   2.032  0.1455 -0.0454 -1.4176
 2720TIP3    H2 8114   2.026   6.838   2.022  0.3374 -0.6138 -0.9243
 2721TIP3   OH2 8115   6.272   2.409   1.133  0.2812 -0.6717  0.0997
 2721TIP3    H1 8116   6.344   2.471   1.134  1.3995 -1.9332 -0.5977
 2721TIP3    H2 8117   6.205   2.450   1.079  1.0395 -0.1007 -0.4207
 2722TIP3   OH2 8118   5.250   1.059   2.139  0.0408  0.5462 -0.2183
 2722TIP3    H1 8119   5.202   1.092   2.215  1.1804 -1.2752  1.3419
 2722TIP3    H2 8120   5.269   1.137   2.087 -3.6737  1.4440 -0.4021
 2723TIP3   OH2 8121   5.837   0.089   4.337 -0.0911  0.3168  0.1844
 2723TIP3    H1 8122   5.749   0.073   4.370 -0.2217 -0.6696 -0.6300
 2723TIP3    H2 8123   5.890   0.020   4.377  0.0394  0.0414 -0.4704
 2724TIP3   OH2 8124   4.251   0.681   2.615 -0.2254 -0.0344 -0.0216
 2724TIP3    H1 8125   4.308   0.728   2.677  1.3660  0.7199 -1.9934
 2724TIP3    H2 8126   4.239   0.742   2.542  0.7508 -2.1445 -2.0254
 2725TIP3   OH2 8127   3.473   0.775   4.140  0.0540 -0.1397 -0.3181
 2725TIP3    H1 8128   3.484   0.682   4.159  3.0096  0.3517  0.5844
 2725TIP3    H2 8129   3.483   0.818   4.224 -0.9151  1.0299 -0.7928
 2726TIP3   OH2 8130   2.891   1.477   1.885 -0.0736 -0.0338 -0.4265
 2726TIP3    H1 8131   2.813   1.532   1.889 -0.1714 -0.0910 -1.4487
 2726TIP3    H2 8132   2.888   1.437   1.798  1.2657  0.2125 -0.6027
 2727TIP3   OH2 8133   1.595   6.201   3.517 -0.4442 -0.3653 -0.1174
 2727TIP3    H1 8134   1.661   6.173   3.454  0.1153  1.4534 -0.3646
 2727TIP3    H2 8135   1.555   6.278   3.477  0.5033  1.3311  2.0814
 2728TIP3   OH2 8136   3.634   1.010   2.494  0.4468  0.3476  0.2095
 2728TIP3    H1 8137   3.725   1.015   2.523  0.4527 -2.3359  0.7734
 2728TIP3    H2 8138   3.623   1.086   2.438  2.3890  1.9394  1.8996
 2729TIP3   OH2 8139   3.304   2.545   2.355 -0.7165 -0.8298  0.2865
 2729TIP3    H1 8140   3.322   2.547   2.261  2.4974  0.6859  0.8544
 2729TIP3    H2 8141   3.256   2.626   2.372  1.4659  0.4810  0.3957
 2730TIP3   OH2 8142   1.418   7.060   1.251 -0.2109 -0.0943  0.5688
 2730TIP3    H1 8143   1.426   6.988   1.189  0.9130  0.0121  0.5729
 2730TIP3    H2 8144   1.388   7.020   1.332 -1.9055 -0.2050 -0.1007
 2731TIP3   OH2 8145   4.756   1.477   2.833  0.5775  0.4171  0.3783
 2731TIP3    H1 8146   4.816   1.438   2.897 -0.6518 -1.7038  0.3127
 2731TIP3    H2 8147   4.686   1.515   2.886 -0.0708 -0.6985  0.3359
 2732TIP3   OH2 8148   2.879   2.514   1.590 -0.1441 -0.2337  0.3539
 2732TIP3    H1 8149   2.896   2.600   1.550 -0.5159 -0.0872  0.5110
 2732TIP3    H2 8150   2.859   2.457   1.516  0.4010 -0.2569  0.2205
 2733TIP3   OH2 8151   4.860   1.991   2.520  0.2950  0.3449  0.1045
 2733TIP3    H1 8152   4.899   1.948   2.444  0.2023  0.4615 -0.0088
 2733TIP3    H2 8153   4.838   2.079   2.490  0.3968  0.4417  0.3091
 2734TIP3   OH2 8154   5.435   3.096   3.979 -0.0538  0.1308 -0.3719
 2734TIP3    H1 8155   5.380   3.138   3.913 -1.3913 -0.2877  0.4678
 2734TIP3    H2 8156   5.502   3.049   3.928 -1.5936 -0.9228 -1.4703
 2735TIP3   OH2 8157   5.223   0.556   1.707  0.1040  0.3684  0.3927
 2735TIP3    H1 8158   5.213   0.589   1.797 -0.1285  0.4261  0.3463
 2735TIP3    H2 8159   5.261   0.630   1.658  4.5780 -1.0663  1.4231
 2736TIP3   OH2 8160   2.989   2.155   3.419  0.0106  0.6467 -0.7592
 2736TIP3    H1 8161   2.968   2.111   3.337 -0.1187  0.9329 -0.8796
 2736TIP3    H2 8162   2.956   2.096   3.487  1.4123 -0.2791 -0.8646
 2737TIP3   OH2 8163   6.124   3.695   3.542 -0.5274  0.0673 -0.5426
 2737TIP3    H1 8164   6.147   3.780   3.505  0.3103  0.1147  0.0706
 2737TIP3    H2 8165   6.183   3.633   3.499 -2.0334 -0.4150 -1.9735
 2738TIP3   OH2 8166   5.310   4.400   2.847  0.4730  0.3992 -0.6223
 2738TIP3    H1 8167   5.294   4.425   2.756 -0.8439 -0.1395 -0.5647
 2738TIP3    H2 8168   5.251   4.326   2.861  0.8744  0.2996  0.5881
 2739TIP3   OH2 8169   7.162   1.667   1.605 -0.3493 -0.1715 -0.4142
 2739TIP3    H1 8170   7.256   1.650   1.611 -0.2581  0.4088 -0.1901
 2739TIP3    H2 8171   7.137   1.630   1.520  0.2860  0.6250 -0.9560
 2740TIP3   OH2 8172   4.815   2.658   2.162 -0.6022  0.1847  0.6183
 2740TIP3    H1 8173   4.743   2.603   2.132  0.7845 -1.6475  0.6084
 2740TIP3    H2 8174   4.793   2.745   2.128 -2.7271 -0.3660  0.4952
 2741TIP3   OH2 8175   6.581   5.206   4.434 -0.3215  0.4288 -0.0348
 2741TIP3    H1 8176   6.550   5.121   4.465  0.6694 -0.1457 -0.6222
 2741TIP3    H2 8177   6.672   5.211   4.463 -0.3281  1.2158 -0.1420
 2742TIP3   OH2 8178   6.923   3.118   0.798 -0.5588 -0.4067 -0.1160
 2742TIP3    H1 8179   6.958   3.082   0.717  0.8016 -0.3230  0.4173
 2742TIP3    H2 8180   6.889   3.043   0.846 -1.7206 -0.4065 -0.9266
 2743TIP3   OH2 8181   3.820   0.791   6.244  0.3006  0.6841  0.1176
 2743TIP3    H1 8182   3.732   0.771   6.210  0.9634 -1.0852 -0.5911
 2743TIP3    H2 8183   3.852   0.708   6.277  1.7573  1.3098  0.3017
 2744TIP3   OH2 8184   5.887   1.188   2.332  0.1929 -0.0204 -0.4568
 2744TIP3    H1 8185   5.977   1.192   2.300 -0.2577  0.9953 -1.6387
 2744TIP3    H2 8186   5.886   1.115   2.394  1.5164 -0.8759 -1.4403
 2745TIP3   OH2 8187   4.767   1.561   0.603  0.0907 -0.0717 -0.3442
 2745TIP3    H1 8188   4.818   1.642   0.593  0.2502 -0.1594 -0.2396
 2745TIP3    H2 8189   4.817   1.509   0.666 -0.1818 -0.1133 -0.1592
 2746TIP3   OH2 8190   6.889   2.876   2.980  0.4671 -1.2012  0.4180
 2746TIP3    H1 8191   6.966   2.931   2.994 -0.3244  0.0106  0.0247
 2746TIP3    H2 8192   6.851   2.908   2.899 -0.1054 -2.2290  0.2690
 2747TIP3   OH2 8193   5.733   3.508   1.860  0.6992 -0.2944  0.1084
 2747TIP3    H1 8194   5.669   3.437   1.857  1.8980 -1.3780 -0.0808
 2747TIP3    H2 8195   5.705   3.563   1.933 -2.3430  1.0599 -1.9614
 2748TIP3   OH2 8196   5.419   1.192   1.258  0.0698 -0.5948 -0.3495
 2748TIP3    H1 8197   5.447   1.273   1.302  0.1814 -1.6265  1.5105
 2748TIP3    H2 8198   5.331   1.211   1.227 -0.0770  0.0983  0.4705
 2749TIP3   OH2 8199   0.899   1.292   4.117  0.4640 -0.7255 -0.1318
 2749TIP3    H1 8200   0.900   1.315   4.210  1.6766  2.1646 -0.7940
 2749TIP3    H2 8201   0.811   1.318   4.088  1.4989  2.4518 -0.6571
 2750TIP3   OH2 8202   5.874   1.519   1.280  0.1088 -0.1480  0.0492
 2750TIP3    H1 8203   5.958   1.567   1.285  1.2464 -2.0283 -0.6622
 2750TIP3    H2 8204   5.808   1.587   1.295  1.7297  1.4421  0.3052
 2751TIP3   OH2 8205   5.108   3.347   2.482 -0.1560  0.0718 -0.2141
 2751TIP3    H1 8206   5.026   3.297   2.474 -0.2249  0.2212 -0.4498
 2751TIP3    H2 8207   5.125   3.349   2.576 -0.7551  0.5656 -0.1050
 2752TIP3   OH2 8208   5.145   1.642   3.684 -0.3238  0.1193 -0.1870
 2752TIP3    H1 8209   5.128   1.556   3.646 -0.7746  0.7819 -1.5135
 2752TIP3    H2 8210   5.132   1.630   3.778  1.4407 -1.7137 -0.1350
 2753TIP3   OH2 8211   5.896   3.239   3.011 -0.1192  1.0071  0.3521
 2753TIP3    H1 8212   5.865   3.271   3.096  1.0837 -0.1757  1.2653
 2753TIP3    H2 8213   5.819   3.198   2.971 -0.7856  1.8901  0.7071
 2754TIP3   OH2 8214   6.610   2.620   1.738  0.4423 -0.0750 -0.1916
 2754TIP3    H1 8215   6.563   2.699   1.711 -2.0616 -1.0988  1.0567
 2754TIP3    H2 8216   6.700   2.636   1.711 -0.3324  2.5252 -1.4165
 2755TIP3   OH2 8217   4.669   6.413   5.065 -0.2806  0.0968  0.5332
 2755TIP3    H1 8218   4.765   6.416   5.064 -0.3251  1.0166 -0.4900
 2755TIP3    H2 8219   4.642   6.505   5.069 -1.1386 -0.1338 -0.0017
 2756TIP3   OH2 8220   7.604   2.690   0.157  0.4995 -0.5773  0.6482
 2756TIP3    H1 8221   7.578   2.614   0.105  0.3565 -0.3542  0.3898
 2756TIP3    H2 8222   7.597   2.661   0.247 -0.9227 -0.4545  0.5929
 2757TIP3   OH2 8223   3.146   2.195   2.032 -0.3740 -0.6057  0.3808
 2757TIP3    H1 8224   3.075   2.233   2.084  0.4030 -0.1300  1.0979
 2757TIP3    H2 8225   3.213   2.263   2.030  0.4064 -1.3690  0.3990
 2758TIP3   OH2 8226   7.482   2.925   0.830 -0.2804  0.6290  0.1757
 2758TIP3    H1 8227   7.397   2.942   0.789  0.6259  1.0969 -1.5451
 2758TIP3    H2 8228   7.538   2.895   0.758  0.6400 -1.0304  1.5291
 2759TIP3   OH2 8229   4.464   0.338   3.088 -0.2833  0.1107  0.6249
 2759TIP3    H1 8230   4.467   0.261   3.145  0.7842 -1.3572 -1.3544
 2759TIP3    H2 8231   4.373   0.342   3.058 -0.3936 -0.2721  0.9096
 2760TIP3   OH2 8232   4.835   1.801   1.086 -0.0086 -0.6338 -0.1041
 2760TIP3    H1 8233   4.925   1.768   1.094  0.3161 -0.4832 -2.8519
 2760TIP3    H2 8234   4.781   1.723   1.091  0.3664 -0.8868  0.0388
 2761TIP3   OH2 8235   7.087   0.708   2.763  0.0695  0.2487 -0.5919
 2761TIP3    H1 8236   7.155   0.767   2.794  0.5089 -1.3403  1.5548
 2761TIP3    H2 8237   7.041   0.681   2.842  0.5609 -3.0882 -1.3907
 2762TIP3   OH2 8238   5.552   1.235   3.046  0.3174 -0.2574 -0.4537
 2762TIP3    H1 8239   5.559   1.180   2.969 -0.8179  0.7985 -1.3275
 2762TIP3    H2 8240   5.592   1.318   3.020  0.6435 -0.1587  0.3500
 2763TIP3   OH2 8241   5.218   0.770   2.195  0.3150  0.0832 -0.2524
 2763TIP3    H1 8242   5.235   0.864   2.195 -1.1049  0.3598  0.8071
 2763TIP3    H2 8243   5.225   0.744   2.286  0.9295 -0.8980 -0.5665
 2764TIP3   OH2 8244   5.586   0.392   2.111  0.4604  0.1125 -0.0961
 2764TIP3    H1 8245   5.558   0.449   2.040  0.9045 -1.1346 -1.2906
 2764TIP3    H2 8246   5.574   0.445   2.190 -1.6988  0.8966 -0.9155
 2765TIP3   OH2 8247   4.357   3.115   1.109  0.0886  0.1414  0.1491
 2765TIP3    H1 8248   4.336   3.056   1.037  1.1520  1.1286 -0.9813
 2765TIP3    H2 8249   4.328   3.068   1.188 -0.6340 -1.1448 -0.8694
 2766TIP3   OH2 8250   6.257   2.740   1.347  0.6316  0.5876  0.1644
 2766TIP3    H1 8251   6.330   2.765   1.289  1.0689  0.2369  0.5638
 2766TIP3    H2 8252   6.268   2.646   1.361 -0.1867  0.4358 -0.1634
 2767TIP3   OH2 8253   6.403   1.989   3.947  0.6803  0.2804 -0.4846
 2767TIP3    H1 8254   6.340   1.934   3.901  0.1693 -1.5300  2.2283
 2767TIP3    H2 8255   6.354   2.024   4.022  2.8024 -1.1155  1.6445
 2768TIP3   OH2 8256   6.353   2.133   0.770  0.0426  0.4255 -0.4088
 2768TIP3    H1 8257   6.323   2.224   0.768 -0.4127  0.3626  1.9657
 2768TIP3    H2 8258   6.423   2.129   0.706 -0.6771  2.1827 -1.3373
 2769TIP3   OH2 8259   6.055   2.209   2.893 -0.0362 -0.2268 -0.3819
 2769TIP3    H1 8260   6.130   2.177   2.843 -0.2055 -0.0621 -0.7415
 2769TIP3    H2 8261   6.094   2.249   2.971  0.2089 -0.7262 -0.2497
 2770TIP3   OH2 8262   6.633   1.507   0.552  0.3694  0.1929  0.2589
 2770TIP3    H1 8263   6.628   1.577   0.487 -0.3397 -0.9157 -0.9047
 2770TIP3    H2 8264   6.665   1.551   0.631  1.2361  1.5680 -0.8086
 2771TIP3   OH2 8265   5.626   1.373   3.828  0.7230 -0.0369 -0.0591
 2771TIP3    H1 8266   5.672   1.447   3.868 -0.2284 -0.3851  1.6834
 2771TIP3    H2 8267   5.618   1.398   3.736  1.4940  1.4888  0.2663
 2772TIP3   OH2 8268   7.110   1.168   2.557 -0.2637  0.2137  0.5476
 2772TIP3    H1 8269   7.078   1.223   2.485  1.3526  0.2189 -0.1933
 2772TIP3    H2 8270   7.054   1.090   2.554 -1.6701  1.1994  0.7230
 2773TIP3   OH2 8271   7.435   0.294   2.877  0.0884  0.2475  0.0507
 2773TIP3    H1 8272   7.493   0.282   2.953  1.3203 -1.3466 -1.0996
 2773TIP3    H2 8273   7.368   0.227   2.887  0.4382 -0.1761 -0.4351
 2774TIP3   OH2 8274   5.776   2.895   3.200  0.3760  0.2689 -0.0545
 2774TIP3    H1 8275   5.774   2.802   3.221  2.7280 -0.0842 -1.2401
 2774TIP3    H2 8276   5.829   2.935   3.269  0.3921  0.5452 -0.2230
 2775TIP3   OH2 8277   6.986   2.320   1.920 -0.2683 -0.3213 -0.2952
 2775TIP3    H1 8278   6.894   2.293   1.914 -0.0430 -1.2962  0.5010
 2775TIP3    H2 8279   7.034   2.252   1.873  0.0291  0.3390 -0.9564
 2776TIP3   OH2 8280   0.411   4.875   1.928 -0.0635 -0.6912 -0.4614
 2776TIP3    H1 8281   0.412   4.791   1.882 -1.8888 -0.8905 -0.1884
 2776TIP3    H2 8282   0.336   4.868   1.987  0.3074  0.8025  0.1869
 2777TIP3   OH2 8283   4.949   1.455   4.133 -0.3559  0.1737  0.6085
 2777TIP3    H1 8284   4.967   1.475   4.225 -1.1177 -0.8364  0.9738
 2777TIP3    H2 8285   4.863   1.413   4.133 -1.1326  1.7021 -0.7490
 2778TIP3   OH2 8286   6.269   0.858   1.634 -0.1861  0.0155  0.5455
 2778TIP3    H1 8287   6.246   0.825   1.548 -1.1790 -0.6176  1.0357
 2778TIP3    H2 8288   6.285   0.951   1.621 -0.4392 -0.0622 -0.3066
 2779TIP3   OH2 8289   6.138   2.481   3.429 -0.2698  0.0096  0.1687
 2779TIP3    H1 8290   6.160   2.399   3.473 -0.3680 -1.0460 -1.7061
 2779TIP3    H2 8291   6.199   2.486   3.356 -1.1749  0.9266 -0.5388
 2780TIP3   OH2 8292   4.996   5.168   2.099 -0.2245  0.1041  0.3213
 2780TIP3    H1 8293   5.018   5.123   2.180  0.4204  1.1000  0.7004
 2780TIP3    H2 8294   4.925   5.228   2.122  0.8599  1.3560  0.4568
 2781TIP3   OH2 8295   4.495   4.081   1.383  0.1008  0.4494  0.0222
 2781TIP3    H1 8296   4.411   4.083   1.336  0.3648 -2.9762 -0.7439
 2781TIP3    H2 8297   4.471   4.066   1.474 -0.1476  0.0340 -0.1110
 2782TIP3   OH2 8298   7.236   4.277   5.670  0.8232  0.8468  0.3063
 2782TIP3    H1 8299   7.279   4.348   5.717  1.4623  0.3527  0.4675
 2782TIP3    H2 8300   7.307   4.227   5.631  0.3432  0.6575 -0.3358
 2783TIP3   OH2 8301   5.794   0.697   2.168  0.2249 -0.4515  0.8035
 2783TIP3    H1 8302   5.834   0.780   2.193 -1.9723  0.3950  1.6505
 2783TIP3    H2 8303   5.795   0.698   2.072  1.6912 -0.1993  0.8160
 2784TIP3   OH2 8304   0.005   2.543   1.304  0.0375  0.4212 -0.1917
 2784TIP3    H1 8305   0.071   2.504   1.361 -1.4023  0.0405  1.2568
 2784TIP3    H2 8306   0.054   2.573   1.228  2.2256  2.1434  1.7987
 2785TIP3   OH2 8307   6.126   1.821   3.448 -0.0336 -0.3576 -0.0667
 2785TIP3    H1 8308   6.127   1.831   3.543 -0.4673 -0.6092 -0.0370
 2785TIP3    H2 8309   6.038   1.792   3.427  0.3297 -1.2011 -0.4531
 2786TIP3   OH2 8310   3.976   2.169   3.293  0.2553 -0.1055  0.5251
 2786TIP3    H1 8311   3.906   2.202   3.351 -0.2641 -1.5600  0.7366
 2786TIP3    H2 8312   4.050   2.155   3.352 -0.2274 -1.4465  0.8312
 2787TIP3   OH2 8313   6.281   2.390   0.748  0.4785 -0.1482 -0.0920
 2787TIP3    H1 8314   6.302   2.431   0.664  1.1569 -2.0329 -0.8474
 2787TIP3    H2 8315   6.345   2.426   0.810 -0.2058  1.4631 -0.2954
 2788TIP3   OH2 8316   6.008   2.094   2.520  0.2472  0.0678  0.3241
 2788TIP3    H1 8317   5.919   2.108   2.554 -0.8158 -2.2724 -1.3111
 2788TIP3    H2 8318   6.006   2.004   2.487  3.4483 -0.2471  0.8701
 2789TIP3   OH2 8319   5.951   2.380   1.652  0.4687  0.2141  0.7913
 2789TIP3    H1 8320   6.019   2.366   1.718  0.6096 -2.1568  0.1875
 2789TIP3    H2 8321   5.970   2.315   1.584  0.0538  2.2807 -1.3953
 2790TIP3   OH2 8322   4.980   2.722   0.923  0.0426 -0.2716 -0.0056
 2790TIP3    H1 8323   5.051   2.671   0.962  0.7379 -0.0589 -0.9842
 2790TIP3    H2 8324   4.900   2.685   0.962  0.6505 -0.8511  0.7086
 2791TIP3   OH2 8325   6.807   2.806   3.236 -0.0383 -0.4206  0.4092
 2791TIP3    H1 8326   6.798   2.841   3.147 -0.3288  2.7223  1.6021
 2791TIP3    H2 8327   6.895   2.768   3.238  0.3980  0.4592 -0.9186
 2792TIP3   OH2 8328   0.010   4.254   4.683  0.1191  0.5551  0.5047
 2792TIP3    H1 8329  -0.062   4.202   4.648  0.4432  0.5912 -0.2243
 2792TIP3    H2 8330   0.082   4.192   4.693 -0.1068  0.4439  1.5682
 2793TIP3   OH2 8331   4.956   4.751   3.129 -0.0975 -0.0683 -0.2589
 2793TIP3    H1 8332   4.884   4.810   3.108 -0.5544 -0.7798 -0.6975
 2793TIP3    H2 8333   4.916   4.683   3.183  0.2724 -0.4011 -0.4048
 2794TIP3   OH2 8334   5.838   0.678   0.983 -0.4017 -0.0970  0.2822
 2794TIP3    H1 8335   5.791   0.753   0.946 -0.1250 -0.4920 -0.9238
 2794TIP3    H2 8336   5.895   0.649   0.911  0.4623 -0.6341  1.1820
 2795TIP3   OH2 8337   6.465   2.962   2.728  0.6794 -0.1044 -0.5976
 2795TIP3    H1 8338   6.531   2.897   2.751 -1.7542 -2.4966 -0.2597
 2795TIP3    H2 8339   6.414   2.975   2.808 -0.1166  0.7286 -1.2194
 2796TIP3   OH2 8340   1.437   2.568   4.778 -0.1661  0.1931  0.0784
 2796TIP3    H1 8341   1.484   2.579   4.860  0.7940  1.6314 -0.6454
 2796TIP3    H2 8342   1.368   2.634   4.780 -0.3673 -0.0059 -0.1239
 2797TIP3   OH2 8343   0.997   2.541   1.930 -0.7342  0.0299  0.5181
 2797TIP3    H1 8344   0.985   2.588   1.848  1.2361 -0.5695 -0.1604
 2797TIP3    H2 8345   1.001   2.609   1.997 -0.7752  0.6395 -0.0976
 2798TIP3   OH2 8346   7.034   4.780   6.425 -0.2769 -0.1294 -0.0100
 2798TIP3    H1 8347   7.013   4.845   6.493 -0.7593  1.1866 -1.3890
 2798TIP3    H2 8348   6.949   4.754   6.390 -0.0049 -0.5495 -0.3560
 2799TIP3   OH2 8349   5.408   1.956   3.008 -0.2164  0.9144 -0.2124
 2799TIP3    H1 8350   5.447   1.871   3.030 -0.7214  0.9328  0.7516
 2799TIP3    H2 8351   5.320   1.952   3.044 -0.8405  1.2004 -1.6755
 2800TIP3   OH2 8352   5.288   0.773   1.524  0.0290 -0.5505 -0.0771
 2800TIP3    H1 8353   5.364   0.830   1.509  0.0849 -0.4203  0.7141
 2800TIP3    H2 8354   5.219   0.809   1.468  0.3121 -0.2106 -0.2067
 2801TIP3   OH2 8355   5.462   1.959   0.520 -0.1265  0.1903  0.2120
 2801TIP3    H1 8356   5.430   1.891   0.580  1.1321 -0.6279 -0.0208
 2801TIP3    H2 8357   5.405   1.950   0.443  1.5967 -2.3054 -0.8270
 2802TIP3   OH2 8358   6.025   0.774   2.830 -0.0686  0.5857  0.3279
 2802TIP3    H1 8359   6.072   0.759   2.911  0.5733  0.0663 -0.1340
 2802TIP3    H2 8360   5.957   0.839   2.852  0.0411  0.3712  1.2841
 2803TIP3   OH2 8361   5.719   3.443   2.774  0.2565 -0.6081  0.3757
 2803TIP3    H1 8362   5.710   3.491   2.856  1.2384 -0.4315  0.3791
 2803TIP3    H2 8363   5.759   3.359   2.800  2.2824  0.1740 -0.1525
 2804TIP3   OH2 8364   5.294   3.584   3.424 -0.2168 -0.1560 -0.3869
 2804TIP3    H1 8365   5.274   3.491   3.414  0.2086 -0.3183  0.2408
 2804TIP3    H2 8366   5.225   3.629   3.375 -1.3866 -0.7375  0.6836
 2805TIP3   OH2 8367   6.473   2.436   1.386  0.0246 -0.1556 -0.3321
 2805TIP3    H1 8368   6.548   2.403   1.436 -0.4286  0.2890  0.6483
 2805TIP3    H2 8369   6.436   2.358   1.345  0.0597 -0.6089  0.4922
 2806TIP3   OH2 8370   6.002   2.366   2.305  0.1008  0.7500  0.5512
 2806TIP3    H1 8371   5.987   2.351   2.398  1.1627  0.1090  0.6154
 2806TIP3    H2 8372   5.929   2.320   2.262  0.0059  0.4452  1.0293
 2807TIP3   OH2 8373   6.207   0.762   3.050 -0.3260  0.2429  0.0078
 2807TIP3    H1 8374   6.298   0.782   3.027 -1.3519  1.3692 -3.4752
 2807TIP3    H2 8375   6.181   0.833   3.109  1.1731 -0.3249  1.3571
 2808TIP3   OH2 8376   6.327   1.809   2.402  0.2800 -0.1361  0.0001
 2808TIP3    H1 8377   6.368   1.784   2.320 -1.4758 -0.2819 -0.8567
 2808TIP3    H2 8378   6.265   1.877   2.379  0.5720  0.6279  1.3901
 2809TIP3   OH2 8379   7.447   1.734   4.092  0.1721 -0.8333 -0.0556
 2809TIP3    H1 8380   7.475   1.644   4.104 -0.6469 -0.9365  1.2110
 2809TIP3    H2 8381   7.393   1.732   4.013 -0.2245 -1.5463  0.2273
 2810TIP3   OH2 8382   6.517   1.402   1.451 -0.1160  0.0513  0.3200
 2810TIP3    H1 8383   6.567   1.484   1.447 -0.9929  0.6494  1.3777
 2810TIP3    H2 8384   6.554   1.354   1.525  0.0263 -0.2634  0.0455
 2811TIP3   OH2 8385   4.563   3.018   3.712  0.0183  0.2544  0.2354
 2811TIP3    H1 8386   4.574   2.934   3.669 -0.4601 -0.3000  1.1739
 2811TIP3    H2 8387   4.585   3.083   3.645 -0.7981 -0.5814 -0.8525
 2812TIP3   OH2 8388   5.781   2.237   3.263 -0.3354  0.2577 -0.1735
 2812TIP3    H1 8389   5.697   2.192   3.255 -1.2245  2.0241 -1.2212
 2812TIP3    H2 8390   5.761   2.315   3.314  0.4436  1.2132 -1.2966
 2813TIP3   OH2 8391   7.384   4.095   6.000 -0.0036 -0.0109 -0.1497
 2813TIP3    H1 8392   7.440   4.098   5.922  0.3645  1.0154  0.1461
 2813TIP3    H2 8393   7.404   4.010   6.040  0.6338 -0.0672 -0.5758
 2814TIP3   OH2 8394   7.865   1.471   6.388 -0.3188 -0.4346 -0.7018
 2814TIP3    H1 8395   7.922   1.434   6.321 -0.4862 -1.2919 -0.3676
 2814TIP3    H2 8396   7.784   1.492   6.341  0.2581  0.7908 -1.1800
 2815TIP3   OH2 8397   5.201   0.749   3.140  0.4191  0.7520  0.0760
 2815TIP3    H1 8398   5.158   0.781   3.060  1.3665  0.4646 -0.5549
 2815TIP3    H2 8399   5.294   0.766   3.126  0.7376 -0.5610  0.5279
 2816TIP3   OH2 8400   7.434   3.614   3.218 -0.3143 -0.2687  0.1137
 2816TIP3    H1 8401   7.469   3.698   3.248 -0.7262  0.0536 -0.2954
 2816TIP3    H2 8402   7.357   3.599   3.272 -0.6747 -0.0101 -0.3170
 2817TIP3   OH2 8403   5.157   1.516   2.130  0.0609 -0.5244 -0.0382
 2817TIP3    H1 8404   5.158   1.517   2.226  1.2294 -2.6870 -0.0122
 2817TIP3    H2 8405   5.078   1.468   2.107  1.6352 -3.1473 -0.0970
 2818TIP3   OH2 8406   2.753   6.939   4.986 -0.3079 -0.2607  0.3911
 2818TIP3    H1 8407   2.706   6.900   5.060  2.5062 -0.9729  1.8830
 2818TIP3    H2 8408   2.811   6.870   4.955 -1.6881 -0.0745 -2.7720
 2819TIP3   OH2 8409   6.197   4.149   1.486 -0.6405 -0.3911 -0.1576
 2819TIP3    H1 8410   6.198   4.066   1.439 -0.9057 -1.4886  1.7366
 2819TIP3    H2 8411   6.281   4.151   1.533 -1.2397 -0.2619  0.9294
 2820TIP3   OH2 8412   5.541   2.216   2.942 -0.7137 -0.5485 -0.4901
 2820TIP3    H1 8413   5.526   2.122   2.933 -0.2572 -0.6019 -0.7136
 2820TIP3    H2 8414   5.491   2.241   3.020 -1.2006 -0.8876 -0.6895
 2821TIP3   OH2 8415   5.777   1.309   2.121 -0.3830 -0.0089  0.1785
 2821TIP3    H1 8416   5.796   1.246   2.053  0.7590 -0.6966  1.1171
 2821TIP3    H2 8417   5.787   1.261   2.203  0.4960  1.3623  0.9091
 2822TIP3   OH2 8418   7.846   3.354   3.410  0.1281  0.4966 -1.0130
 2822TIP3    H1 8419   7.901   3.410   3.356  1.6089 -0.4653 -0.5457
 2822TIP3    H2 8420   7.789   3.415   3.458  2.1522  1.6590 -0.0245
 2823TIP3   OH2 8421   1.550   3.191   6.338  0.4557 -0.0212  0.0750
 2823TIP3    H1 8422   1.577   3.281   6.355 -1.3901  0.8284 -1.3659
 2823TIP3    H2 8423   1.455   3.196   6.325  0.4180 -2.0858 -0.6660
 2824TIP3   OH2 8424   4.774   1.521   1.309 -0.3856  0.3580  0.2522
 2824TIP3    H1 8425   4.851   1.523   1.365 -0.2884  0.5898  0.1084
 2824TIP3    H2 8426   4.707   1.479   1.362 -0.9293  2.5340  1.3269
 2825TIP3   OH2 8427   6.186   1.841   3.099 -0.0338 -0.2334 -0.3100
 2825TIP3    H1 8428   6.119   1.896   3.141 -0.6347 -1.3712  0.2236
 2825TIP3    H2 8429   6.269   1.879   3.128 -0.4482 -0.1828  0.8409
 2826TIP3   OH2 8430   6.128   3.190   2.878 -0.4475  0.2401  0.1085
 2826TIP3    H1 8431   6.190   3.262   2.868 -0.2351 -0.1475 -1.6763
 2826TIP3    H2 8432   6.055   3.227   2.928 -0.6893  1.9275 -1.4475
 2827TIP3   OH2 8433   6.991   3.549   1.786 -0.0020 -0.0876 -0.3391
 2827TIP3    H1 8434   7.058   3.497   1.831 -1.3973  0.8376  2.9102
 2827TIP3    H2 8435   7.040   3.609   1.730  1.7471 -1.7537 -0.6359
 2828TIP3   OH2 8436   5.921   3.624   2.626 -0.1933  0.6239 -0.0937
 2828TIP3    H1 8437   5.926   3.685   2.699  0.6258  0.2661  0.1565
 2828TIP3    H2 8438   5.845   3.569   2.644  0.1573  0.3712  0.6217
 2829TIP3   OH2 8439   5.886   0.311   3.251  0.2032  0.3282  0.0817
 2829TIP3    H1 8440   5.802   0.344   3.218 -0.6169 -0.1754  1.6259
 2829TIP3    H2 8441   5.943   0.387   3.254 -0.1908  0.6791 -0.9617
 2830TIP3   OH2 8442   5.377   3.742   1.484  0.1787  0.2097 -0.3160
 2830TIP3    H1 8443   5.362   3.742   1.579 -0.5734  0.4678 -0.4279
 2830TIP3    H2 8444   5.470   3.761   1.474  0.5517 -1.1846  0.4143
 2831TIP3   OH2 8445   6.474   1.655   3.172 -0.0100  0.0575  0.0378
 2831TIP3    H1 8446   6.433   1.634   3.256 -2.6856 -0.5778 -1.3594
 2831TIP3    H2 8447   6.526   1.577   3.151 -0.4719 -0.3668  0.4360
 2832TIP3   OH2 8448   6.669   2.570   0.803 -0.0063  0.2576  0.4029
 2832TIP3    H1 8449   6.589   2.617   0.777 -0.0196 -0.5113 -1.0046
 2832TIP3    H2 8450   6.739   2.613   0.754  0.3265  0.3543  0.9541
 2833TIP3   OH2 8451   1.119   3.654   6.302  0.0077 -0.0762  0.4240
 2833TIP3    H1 8452   1.060   3.704   6.359 -0.5763  2.8086 -2.5558
 2833TIP3    H2 8453   1.060   3.598   6.250  0.3022 -0.7063  0.7677
 2834TIP3   OH2 8454   6.024   3.136   2.634  0.5018 -0.1137 -0.1652
 2834TIP3    H1 8455   6.071   3.144   2.717  0.1658 -0.1436  0.0278
 2834TIP3    H2 8456   5.954   3.073   2.652  1.5505 -1.5441 -0.9783
 2835TIP3   OH2 8457   6.945   2.925   1.693  0.2614 -0.5768  0.2025
 2835TIP3    H1 8458   6.900   2.997   1.737 -0.2454 -0.2161 -0.8881
 2835TIP3    H2 8459   6.889   2.849   1.706  0.0774 -0.4555  0.1119
 2836TIP3   OH2 8460   6.469   2.053   2.174 -0.4058  0.2509  0.0909
 2836TIP3    H1 8461   6.514   1.973   2.148 -0.8940 -0.1825  0.5463
 2836TIP3    H2 8462   6.376   2.029   2.171 -0.5314  0.6646  0.6675
 2837TIP3   OH2 8463   6.186   0.955   3.232 -0.5987  0.3615 -0.8126
 2837TIP3    H1 8464   6.188   1.051   3.230 -2.2853  0.4312 -0.0331
 2837TIP3    H2 8465   6.266   0.931   3.279 -1.4902  1.5272  1.4232
 2838TIP3   OH2 8466   6.304   3.283   3.156 -0.3936  0.5827 -0.2516
 2838TIP3    H1 8467   6.257   3.367   3.155 -0.1511  0.7283  0.7989
 2838TIP3    H2 8468   6.396   3.307   3.141 -0.1502  0.6121  1.2911
 2839TIP3   OH2 8469   6.491   0.477   1.157 -0.0559 -0.3859  0.0013
 2839TIP3    H1 8470   6.579   0.466   1.192  0.7519  1.3610 -1.3590
 2839TIP3    H2 8471   6.473   0.571   1.166 -0.8351 -0.3334 -1.8155
 2840TIP3   OH2 8472   5.825   2.179   2.145 -0.4532  0.3532 -0.3781
 2840TIP3    H1 8473   5.794   2.089   2.157 -0.4913  0.2759 -1.0463
 2840TIP3    H2 8474   5.757   2.234   2.185  1.0451 -0.0211  2.9113
 2841TIP3   OH2 8475   4.806   1.408   1.637  0.0281  0.0275 -0.3912
 2841TIP3    H1 8476   4.762   1.493   1.640 -1.0193 -0.4401 -1.5301
 2841TIP3    H2 8477   4.874   1.413   1.703 -0.6744  1.3946  0.2515
 2842TIP3   OH2 8478   7.230   5.014   6.055 -0.5864  1.3946 -0.1103
 2842TIP3    H1 8479   7.286   5.020   5.978 -1.3364  1.7533 -0.6354
 2842TIP3    H2 8480   7.244   5.097   6.101 -1.0824  1.7106 -0.5220
 2843TIP3   OH2 8481   5.320   1.582   2.957 -0.4217 -0.3184 -0.0286
 2843TIP3    H1 8482   5.381   1.539   2.897  0.0411  0.9543 -0.4872
 2843TIP3    H2 8483   5.235   1.543   2.936  0.0444 -1.2869 -0.1641
 2844TIP3   OH2 8484   3.885   1.625   0.302 -0.0286  0.1670  0.3876
 2844TIP3    H1 8485   3.814   1.623   0.365  0.4965 -0.4349  0.9574
 2844TIP3    H2 8486   3.850   1.580   0.225 -0.4649  0.3891  0.4534
 2845TIP3   OH2 8487   7.687   0.089   4.371  0.1267 -0.1911 -0.1154
 2845TIP3    H1 8488   7.603   0.119   4.336  0.5372  0.8157 -0.2451
 2845TIP3    H2 8489   7.666   0.055   4.458 -0.3056  0.7090  0.1361
 2846TIP3   OH2 8490   5.795   0.248   4.897  0.6560  0.2071  0.7127
 2846TIP3    H1 8491   5.866   0.221   4.838 -0.0092 -0.5167  0.2323
 2846TIP3    H2 8492   5.827   0.328   4.937  0.6805  1.3541 -1.4975
 2847TIP3   OH2 8493   6.839   2.645   1.492 -0.6874 -0.4127  0.8256
 2847TIP3    H1 8494   6.856   2.564   1.443 -2.2202  0.3055 -0.9993
 2847TIP3    H2 8495   6.878   2.631   1.578  0.2611 -2.5539  0.0700
 2848TIP3   OH2 8496   7.766   1.159   2.575  0.1266  0.2058  0.0148
 2848TIP3    H1 8497   7.793   1.071   2.548 -1.9476 -0.8487  1.2575
 2848TIP3    H2 8498   7.716   1.193   2.501  1.8855  0.8295 -0.9265
 2849TIP3   OH2 8499   5.956   3.355   2.479  0.8337  0.3094 -0.0094
 2849TIP3    H1 8500   5.958   3.288   2.548  1.7425 -0.2787 -0.5940
 2849TIP3    H2 8501   5.990   3.434   2.521 -0.7609  0.5577  0.8353
 2850TIP3   OH2 8502   7.141   2.139   1.270 -0.2737 -0.0773  0.0976
 2850TIP3    H1 8503   7.218   2.087   1.294  0.1923  1.3856  1.8598
 2850TIP3    H2 8504   7.071   2.105   1.325  0.5157  2.4826  2.7619
 2851TIP3   OH2 8505   6.736   4.017   2.299  0.1453  0.1572  0.3357
 2851TIP3    H1 8506   6.705   3.932   2.269  1.4319 -0.8685  1.7943
 2851TIP3    H2 8507   6.745   4.070   2.219 -0.6648 -1.0628 -0.5743
 2852TIP3   OH2 8508   3.971   7.396   0.148 -0.3781  0.1129  0.3345
 2852TIP3    H1 8509   3.900   7.457   0.170  0.9366  1.0329  2.2179
 2852TIP3    H2 8510   3.973   7.335   0.222 -0.5170 -1.1302 -0.6841
 2853TIP3   OH2 8511   0.252   1.656   0.290 -0.4819 -0.4137  0.2348
 2853TIP3    H1 8512   0.233   1.728   0.351  1.8296  0.8202 -0.4680
 2853TIP3    H2 8513   0.182   1.592   0.307 -2.0812  1.5955  1.4733
 2854TIP3   OH2 8514   6.378   1.078   5.005 -0.3810  0.1646 -0.2215
 2854TIP3    H1 8515   6.295   1.068   5.052  0.2839 -1.5143  0.6624
 2854TIP3    H2 8516   6.355   1.062   4.914 -0.8007 -1.8924  0.1977
 2855TIP3   OH2 8517   5.897   1.531   0.362  0.2126  0.1279 -0.0034
 2855TIP3    H1 8518   5.990   1.552   0.353  0.4093  0.0504  1.7470
 2855TIP3    H2 8519   5.887   1.445   0.320  1.3787 -0.8780  1.7215
 2856TIP3   OH2 8520   7.384   1.491   3.712  0.6212  0.0845 -0.6083
 2856TIP3    H1 8521   7.419   1.574   3.745  2.4422 -0.3245 -1.4529
 2856TIP3    H2 8522   7.311   1.471   3.771  0.7780  1.7827  0.2033
 2857TIP3   OH2 8523   1.032   2.367   2.170  0.0238  0.6151  0.1551
 2857TIP3    H1 8524   1.029   2.274   2.147  0.3160  0.6922 -0.1903
 2857TIP3    H2 8525   0.983   2.411   2.101  0.7744  0.8300 -0.2468
 2858TIP3   OH2 8526   4.656   0.360   1.625  0.4699 -0.2710  0.1515
 2858TIP3    H1 8527   4.674   0.426   1.692  0.8733 -0.0389 -0.1850
 2858TIP3    H2 8528   4.561   0.364   1.613  0.3635 -0.4920  0.8939
 2859TIP3   OH2 8529   5.152   3.054   2.618  0.1443 -0.2480  0.3542
 2859TIP3    H1 8530   5.144   3.118   2.689 -0.5240 -0.1186  0.1631
 2859TIP3    H2 8531   5.086   3.081   2.554 -0.4528 -1.3884  0.4818
 2860TIP3   OH2 8532   6.201   1.571   2.239  0.3566 -0.4876  0.6454
 2860TIP3    H1 8533   6.105   1.572   2.244  0.3989 -0.6286  1.5032
 2860TIP3    H2 8534   6.229   1.625   2.312  0.9670 -2.0400  1.5928
 2861TIP3   OH2 8535   5.818   1.820   2.136  0.1125  0.1213  0.0361
 2861TIP3    H1 8536   5.759   1.870   2.080  1.1951  0.3679 -0.8966
 2861TIP3    H2 8537   5.807   1.730   2.108  0.5886  0.2342 -0.5219
 2862TIP3   OH2 8538   5.906   2.673   1.868 -0.4525 -0.3083  0.3200
 2862TIP3    H1 8539   5.940   2.622   1.942 -1.5850 -2.2283 -0.4383
 2862TIP3    H2 8540   5.915   2.614   1.792 -0.5847  1.1146 -0.8119
 2863TIP3   OH2 8541   5.967   3.701   1.958  0.3178  0.2914 -0.4599
 2863TIP3    H1 8542   5.980   3.638   1.887  0.5638 -0.2244  0.0323
 2863TIP3    H2 8543   5.875   3.690   1.983  0.8220 -1.2020  0.8487
 2864TIP3   OH2 8544   5.493   3.647   2.449 -0.2571 -0.0407 -0.2382
 2864TIP3    H1 8545   5.503   3.566   2.498 -0.2421  0.0281 -0.1269
 2864TIP3    H2 8546   5.459   3.620   2.364  0.4150 -0.2274 -0.4490
 2865TIP3   OH2 8547   6.369   6.238   6.172  0.8666  0.5419 -0.0397
 2865TIP3    H1 8548   6.343   6.319   6.127 -0.4314  0.9307  1.3702
 2865TIP3    H2 8549   6.339   6.250   6.262  0.6517 -1.5083  0.1830
 2866TIP3   OH2 8550   7.450   3.477   2.005  0.2886 -0.2478  0.6622
 2866TIP3    H1 8551   7.498   3.559   2.015  0.3097 -0.2362  0.4755
 2866TIP3    H2 8552   7.482   3.421   2.075  0.4094 -0.1604  0.6767
 2867TIP3   OH2 8553   7.090   6.386   6.337 -0.1934 -0.0301 -0.3643
 2867TIP3    H1 8554   7.066   6.444   6.266 -0.5907 -0.4138 -0.5431
 2867TIP3    H2 8555   7.185   6.373   6.327  0.0279  1.1705  0.1200
 2868TIP3   OH2 8556   4.381   3.167   2.509 -0.1837  0.6098 -0.0685
 2868TIP3    H1 8557   4.402   3.244   2.561  0.3246 -0.1271  0.8336
 2868TIP3    H2 8558   4.297   3.187   2.468 -0.4498  1.3162  0.8157
 2869TIP3   OH2 8559   4.954   4.513   3.543 -0.1762 -0.1192  0.1558
 2869TIP3    H1 8560   5.046   4.539   3.549 -0.7617  2.7155 -2.0938
 2869TIP3    H2 8561   4.912   4.561   3.615 -0.1813 -0.0504  0.1069
 2870TIP3   OH2 8562   5.086   4.333   2.110  0.6570 -0.2133 -0.0056
 2870TIP3    H1 8563   5.136   4.324   2.029  0.6427  0.1527 -0.0584
 2870TIP3    H2 8564   5.151   4.361   2.175  1.0583 -2.4564  0.5874
 2871TIP3   OH2 8565   4.636   3.447   3.496  0.3619  1.0727  0.1230
 2871TIP3    H1 8566   4.549   3.454   3.458  1.3997  1.2985 -2.2518
 2871TIP3    H2 8567   4.658   3.535   3.525  1.3200  1.8088 -2.7348
 2872TIP3   OH2 8568   4.459   2.284   1.656  0.0465  0.1626 -0.1794
 2872TIP3    H1 8569   4.379   2.310   1.611 -0.8056 -0.8047  0.7563
 2872TIP3    H2 8570   4.495   2.213   1.603  0.5587  0.9483 -0.8814
 2873TIP3   OH2 8571   5.618   4.787   3.112 -0.4022  0.2493  0.7448
 2873TIP3    H1 8572   5.535   4.761   3.071 -1.4982  0.8006  2.5244
 2873TIP3    H2 8573   5.603   4.878   3.139  0.7773  0.3284  1.1350
 2874TIP3   OH2 8574   6.880   2.432   2.503 -0.5884  0.4617  0.7642
 2874TIP3    H1 8575   6.884   2.422   2.598  0.2307  1.0728  0.8008
 2874TIP3    H2 8576   6.964   2.472   2.480 -0.8403  0.4377 -0.1999
 2875TIP3   OH2 8577   3.866   1.198   2.139  0.1122 -0.3714 -0.1926
 2875TIP3    H1 8578   3.794   1.225   2.197  1.0260  1.2789  0.2005
 2875TIP3    H2 8579   3.923   1.145   2.194  0.3840  0.2393  0.1153
 2876TIP3   OH2 8580   5.194   3.117   3.675 -0.1008 -0.0654 -0.1123
 2876TIP3    H1 8581   5.142   3.092   3.752 -1.0941  0.2943 -0.6586
 2876TIP3    H2 8582   5.257   3.181   3.708 -0.3021 -0.1627  0.4611
 2877TIP3   OH2 8583   6.639   2.572   3.212  0.3463  0.0530  0.0571
 2877TIP3    H1 8584   6.713   2.625   3.243  0.1259  0.7610 -0.5786
 2877TIP3    H2 8585   6.605   2.622   3.138 -0.3882 -0.5828 -0.0350
 2878TIP3   OH2 8586   5.077   4.247   2.716 -0.1771  0.0394  0.0078
 2878TIP3    H1 8587   5.106   4.268   2.627  0.6617  0.9217  0.4810
 2878TIP3    H2 8588   5.027   4.324   2.744  0.2678  0.1166  0.6061
 2879TIP3   OH2 8589   5.755   1.028   3.625  0.3885  0.0620  0.6883
 2879TIP3    H1 8590   5.813   1.001   3.554  0.7803  0.7515  0.7508
 2879TIP3    H2 8591   5.802   1.005   3.705  1.1351  1.7700  0.7571
 2880TIP3   OH2 8592   5.549   2.893   3.007  0.4243 -0.3196  0.1635
 2880TIP3    H1 8593   5.607   2.938   3.068  2.0251 -0.3915 -1.2888
 2880TIP3    H2 8594   5.461   2.925   3.029  1.1063  0.4925  1.7486
 2881TIP3   OH2 8595   5.015   0.715   3.442 -0.2626  0.4371  0.0700
 2881TIP3    H1 8596   5.012   0.655   3.367 -1.1919 -1.1692  1.3593
 2881TIP3    H2 8597   5.108   0.720   3.465 -0.3183 -1.7774  0.9177
 2882TIP3   OH2 8598   1.600   3.602   3.131 -0.2532 -0.4262  0.9060
 2882TIP3    H1 8599   1.692   3.576   3.138 -0.2047 -0.2400  0.9502
 2882TIP3    H2 8600   1.600   3.696   3.144 -0.6041 -0.6076  2.2188
 2883TIP3   OH2 8601   6.304   2.596   3.986 -0.1112 -0.0128  0.6899
 2883TIP3    H1 8602   6.250   2.653   4.041 -0.9117 -1.1798  1.1245
 2883TIP3    H2 8603   6.279   2.507   4.011 -0.8702 -0.5675 -1.9285
 2884TIP3   OH2 8604   0.620   2.035   1.269 -0.1692  0.1839 -0.0306
 2884TIP3    H1 8605   0.648   1.951   1.305 -1.0915  0.0419  0.3683
 2884TIP3    H2 8606   0.696   2.067   1.222  0.6652 -0.1878  1.0428
 2885TIP3   OH2 8607   7.480   2.671   4.216  0.2037  0.2082  0.5733
 2885TIP3    H1 8608   7.490   2.577   4.203 -3.2549 -0.0273 -1.2468
 2885TIP3    H2 8609   7.486   2.684   4.310 -0.0362 -1.9700  0.9099
 2886TIP3   OH2 8610   0.223   2.521   1.700 -0.0494  0.2741  0.2957
 2886TIP3    H1 8611   0.263   2.608   1.708 -1.7124  0.9234  1.7136
 2886TIP3    H2 8612   0.210   2.493   1.790 -0.1671 -1.1643 -0.1650
 2887TIP3   OH2 8613   4.726   1.569   5.663  0.3332  0.0747 -0.3734
 2887TIP3    H1 8614   4.773   1.530   5.590  0.2987 -0.0369 -0.3371
 2887TIP3    H2 8615   4.728   1.663   5.647 -1.6045 -0.0704 -1.7156
 2888TIP3   OH2 8616   4.697   0.994   2.100 -0.1948 -0.0240  0.4175
 2888TIP3    H1 8617   4.702   0.970   2.008  2.3026 -1.6280  0.9474
 2888TIP3    H2 8618   4.612   0.961   2.129 -0.9164  0.3353 -1.2466
 2889TIP3   OH2 8619   3.488   2.276   0.093 -0.1036 -0.1919 -0.6927
 2889TIP3    H1 8620   3.543   2.350   0.067  0.4155 -0.0239  0.8374
 2889TIP3    H2 8621   3.416   2.276   0.030  1.7961 -0.5769 -2.8877
 2890TIP3   OH2 8622   5.427   2.607   1.593 -0.6609  0.0499 -0.3335
 2890TIP3    H1 8623   5.455   2.579   1.506  0.5468  0.2713 -0.0271
 2890TIP3    H2 8624   5.367   2.680   1.577  0.4121  0.8200 -0.9729
 2891TIP3   OH2 8625   7.087   2.827   3.915  0.2769 -0.2073  0.2662
 2891TIP3    H1 8626   7.162   2.875   3.949  1.1713 -1.0443 -0.5083
 2891TIP3    H2 8627   7.115   2.796   3.829 -1.7364  1.3569 -0.9958
 2892TIP3   OH2 8628   6.473   4.352   1.693  0.0763  0.0975  0.6635
 2892TIP3    H1 8629   6.457   4.358   1.599  2.7492  1.6446  0.2469
 2892TIP3    H2 8630   6.438   4.433   1.730  1.1060  0.5567  0.6510
 2893TIP3   OH2 8631   0.061   3.588   3.276 -0.1299  0.6714  0.5334
 2893TIP3    H1 8632   0.131   3.652   3.288 -0.2689  0.8194  0.5542
 2893TIP3    H2 8633   0.017   3.615   3.195 -0.4411  0.8364  0.7588
 2894TIP3   OH2 8634   6.606   2.252   4.111  0.5034 -0.5687 -0.2307
 2894TIP3    H1 8635   6.569   2.243   4.023  1.0739 -1.8785 -0.3544
 2894TIP3    H2 8636   6.700   2.243   4.098  0.7130  0.7463  0.3317
 2895TIP3   OH2 8637   6.417   2.567   1.926  0.6866 -0.1234  0.7784
 2895TIP3    H1 8638   6.468   2.547   1.847 -2.0397  1.4986 -1.5134
 2895TIP3    H2 8639   6.444   2.656   1.949 -0.3039  0.3365  0.1863
 2896TIP3   OH2 8640   6.556   1.024   1.434 -0.4457 -0.0195  0.5046
 2896TIP3    H1 8641   6.551   1.093   1.368 -2.0195 -0.1202  0.5056
 2896TIP3    H2 8642   6.516   0.948   1.392  0.8422 -0.8116  0.6727
 2897TIP3   OH2 8643   6.533   1.431   0.973  0.2593 -0.2152 -0.1806
 2897TIP3    H1 8644   6.525   1.363   0.906 -0.1877 -0.5140  0.1683
 2897TIP3    H2 8645   6.578   1.503   0.929  0.6843 -0.7118 -0.5749
 2898TIP3   OH2 8646   6.349   4.454   3.163  0.1087  0.2833  0.0889
 2898TIP3    H1 8647   6.351   4.434   3.256 -1.0348  0.3232  0.1355
 2898TIP3    H2 8648   6.353   4.550   3.159  0.8592  0.2503  0.0680
 2899TIP3   OH2 8649   5.932   0.648   3.875 -0.5389  0.4770 -0.5509
 2899TIP3    H1 8650   6.015   0.694   3.863  0.3543 -0.8256  0.5097
 2899TIP3    H2 8651   5.955   0.569   3.924 -1.9095 -1.4797 -2.9174
 2900TIP3   OH2 8652   7.725   1.338   1.131  0.3440  0.0192  0.5233
 2900TIP3    H1 8653   7.685   1.256   1.103  0.5853  1.5880 -5.1200
 2900TIP3    H2 8654   7.819   1.320   1.132  0.2656 -0.3250  1.2210
 2901TIP3   OH2 8655   6.581   1.746   2.165  0.2754 -0.2210 -0.1066
 2901TIP3    H1 8656   6.635   1.698   2.227  3.2578  1.1334 -1.5177
 2901TIP3    H2 8657   6.642   1.805   2.120 -2.2864  0.9913 -2.2038
 2902TIP3   OH2 8658   1.413   3.405   1.508 -0.3650 -0.3719 -0.0960
 2902TIP3    H1 8659   1.402   3.312   1.488  0.1081 -0.6812  1.0727
 2902TIP3    H2 8660   1.406   3.410   1.604  0.4077  0.6898 -0.0933
 2903TIP3   OH2 8661   7.831   2.627   1.738  0.2211  0.9919  0.1771
 2903TIP3    H1 8662   7.913   2.655   1.696  1.3185 -2.2217  0.0129
 2903TIP3    H2 8663   7.785   2.578   1.671 -0.0975 -0.3583  1.3438
 2904TIP3   OH2 8664   6.306   1.071   2.147 -0.6453  0.1393  0.0480
 2904TIP3    H1 8665   6.252   1.143   2.180  0.4286  1.4467 -1.0275
 2904TIP3    H2 8666   6.347   1.105   2.067  0.9574 -1.1940  0.2669
 2905TIP3   OH2 8667   2.614   3.617   6.115 -0.2624 -0.8153 -0.3191
 2905TIP3    H1 8668   2.646   3.584   6.198 -1.1787 -1.1656 -0.0982
 2905TIP3    H2 8669   2.624   3.544   6.054 -1.0751 -1.0862 -0.1362
 2906TIP3   OH2 8670   5.515   0.407   3.596 -0.1751  0.1012  0.1884
 2906TIP3    H1 8671   5.507   0.448   3.510 -1.2759  1.9935  1.1482
 2906TIP3    H2 8672   5.425   0.387   3.622  0.0764  0.2265  1.1919
 2907TIP3   OH2 8673   1.548   4.551   6.115  0.4194  0.4311 -0.1597
 2907TIP3    H1 8674   1.515   4.584   6.199  1.0440  3.0964 -0.9291
 2907TIP3    H2 8675   1.470   4.538   6.062 -0.1151 -2.7489  1.2962
 2908TIP3   OH2 8676   5.010   1.304   1.403 -0.1096 -0.0188 -0.2716
 2908TIP3    H1 8677   4.966   1.288   1.487  0.0118  0.6640 -0.0729
 2908TIP3    H2 8678   5.007   1.399   1.393  0.4976 -0.0452 -0.7058
 2909TIP3   OH2 8679   4.806   2.376   3.307 -0.3145  0.2920  0.1959
 2909TIP3    H1 8680   4.829   2.464   3.279 -0.3343 -0.1905 -1.3693
 2909TIP3    H2 8681   4.776   2.332   3.227  0.6138 -1.4318  0.7769
 2910TIP3   OH2 8682   7.647   0.821   1.142 -0.1473 -0.1529 -0.6764
 2910TIP3    H1 8683   7.693   0.749   1.100 -0.8833 -0.1415 -1.5108
 2910TIP3    H2 8684   7.563   0.783   1.170 -0.2694  0.2125 -0.5376
 2911TIP3   OH2 8685   6.868   1.366   4.046 -0.1857  0.1682 -0.6990
 2911TIP3    H1 8686   6.797   1.429   4.036  0.0822  0.7039  0.7018
 2911TIP3    H2 8687   6.826   1.281   4.036 -1.0700  0.4695  0.4352
 2912TIP3   OH2 8688   6.845   3.422   0.834  0.0042  0.2127  0.2631
 2912TIP3    H1 8689   6.908   3.460   0.895  0.4734 -0.2414  0.0635
 2912TIP3    H2 8690   6.885   3.340   0.805 -0.9640 -0.3947  0.6220
 2913TIP3   OH2 8691   6.011   1.507   4.074  0.0885 -0.4258 -0.1442
 2913TIP3    H1 8692   5.947   1.576   4.085  0.6835  0.1157 -0.0579
 2913TIP3    H2 8693   6.011   1.459   4.157 -0.6243 -0.7916 -0.3514
 2914TIP3   OH2 8694   1.715   2.826   2.033  0.2647 -0.3458  0.0880
 2914TIP3    H1 8695   1.619   2.827   2.030  0.2246 -1.1191  0.8524
 2914TIP3    H2 8696   1.740   2.916   2.016 -0.6203 -0.0518  0.2885
 2915TIP3   OH2 8697   4.010   1.173   0.657 -0.2007  0.2862 -0.8242
 2915TIP3    H1 8698   4.020   1.160   0.563  3.1601 -1.5315 -0.2768
 2915TIP3    H2 8699   3.994   1.085   0.691  3.2404  0.2463  0.8058
 2916TIP3   OH2 8700   4.748   2.423   2.703 -0.7378 -0.6928 -0.3518
 2916TIP3    H1 8701   4.725   2.404   2.794  0.3214  0.0798  0.0848
 2916TIP3    H2 8702   4.820   2.485   2.709 -0.2618 -1.0979 -1.7213
 2917TIP3   OH2 8703   6.918   1.430   1.540 -0.1043 -0.0944  0.9671
 2917TIP3    H1 8704   6.962   1.508   1.573  0.1257  0.2876 -0.2313
 2917TIP3    H2 8705   6.826   1.443   1.564 -0.1676  0.8355  0.2485
 2918TIP3   OH2 8706   5.477   2.518   5.530 -0.2265  0.1324 -0.4736
 2918TIP3    H1 8707   5.556   2.482   5.570  0.3715  2.5775  0.6429
 2918TIP3    H2 8708   5.407   2.459   5.558  0.5012  0.5686  2.5024
 2919TIP3   OH2 8709   4.445   1.519   2.457  0.5587  0.4485 -0.1953
 2919TIP3    H1 8710   4.428   1.455   2.526  0.1676  0.6831 -0.0687
 2919TIP3    H2 8711   4.380   1.498   2.389  0.3030  0.8288 -0.0697
 2920TIP3   OH2 8712   5.588   2.006   2.009  0.6229 -0.1544  0.0220
 2920TIP3    H1 8713   5.496   2.014   1.982  0.3855 -1.6158  0.3993
 2920TIP3    H2 8714   5.584   2.000   2.105  1.0930 -0.6543  0.0045
 2921TIP3   OH2 8715   6.245   2.652   3.699  0.6019 -0.2985 -0.3114
 2921TIP3    H1 8716   6.246   2.663   3.794  1.2640 -0.1739 -0.3238
 2921TIP3    H2 8717   6.218   2.561   3.686 -0.2515 -0.0883 -0.0333
 2922TIP3   OH2 8718   5.876   3.248   3.793 -0.3126  0.5529  0.2864
 2922TIP3    H1 8719   5.868   3.211   3.881  0.0813  0.1035  0.1400
 2922TIP3    H2 8720   5.961   3.292   3.794 -1.2114  2.3004  0.7608
 2923TIP3   OH2 8721   6.897   0.736   5.295  0.3663  0.1030 -0.1647
 2923TIP3    H1 8722   6.961   0.734   5.224 -0.8119 -1.5860 -1.2213
 2923TIP3    H2 8723   6.946   0.765   5.372  2.0235  0.3577 -1.3135
 2924TIP3   OH2 8724   4.930   3.219   3.193 -0.0975 -0.4371 -0.4441
 2924TIP3    H1 8725   4.979   3.163   3.132 -0.0314 -0.0020 -0.7911
 2924TIP3    H2 8726   4.905   3.160   3.264  0.7449 -0.7158 -0.3677
 2925TIP3   OH2 8727   6.110   0.936   2.035  0.1191  0.0017 -0.1553
 2925TIP3    H1 8728   6.097   0.999   1.964  1.8438  0.2629 -0.2626
 2925TIP3    H2 8729   6.194   0.960   2.073  0.5284 -1.8889  0.1774
 2926TIP3   OH2 8730   5.819   3.190   1.957  0.0931 -0.7051  0.1466
 2926TIP3    H1 8731   5.803   3.097   1.974 -1.6660 -0.2041  1.3188
 2926TIP3    H2 8732   5.821   3.230   2.043 -3.1569  0.9682 -0.4801
 2927TIP3   OH2 8733   6.694   5.138   2.467  0.4659 -0.1910  0.3998
 2927TIP3    H1 8734   6.709   5.180   2.382  1.2481 -0.9669  0.1512
 2927TIP3    H2 8735   6.676   5.211   2.526  1.6789  0.4927 -0.0479
 2928TIP3   OH2 8736   5.438   4.074   2.787  0.4603 -0.2771  0.0857
 2928TIP3    H1 8737   5.501   4.013   2.826 -0.2536 -0.7651  0.4897
 2928TIP3    H2 8738   5.360   4.066   2.842  0.1475  0.5487 -0.2323
 2929TIP3   OH2 8739   3.371   0.418   6.152 -0.4330 -0.0511 -0.7515
 2929TIP3    H1 8740   3.353   0.406   6.059 -1.6600 -0.5997 -0.4564
 2929TIP3    H2 8741   3.288   0.449   6.189 -0.2228 -0.7094  0.3098
 2930TIP3   OH2 8742   4.771   4.332   3.244 -0.2949 -0.0835 -0.4084
 2930TIP3    H1 8743   4.708   4.266   3.216 -0.6775 -1.7065  3.9267
 2930TIP3    H2 8744   4.717   4.404   3.277  0.1200 -0.3283  0.8112
 2931TIP3   OH2 8745   5.671   0.459   1.026  0.1125 -0.2003 -0.2339
 2931TIP3    H1 8746   5.716   0.543   1.017  1.0665 -0.4422  1.8567
 2931TIP3    H2 8747   5.579   0.479   1.009  0.6686  0.7487 -2.3219
 2932TIP3   OH2 8748   5.701   2.694   3.675 -0.4113 -0.0162 -0.3990
 2932TIP3    H1 8749   5.674   2.624   3.735 -0.4554  0.4985  0.1840
 2932TIP3    H2 8750   5.771   2.655   3.623  1.0073  0.1600  1.3381
 2933TIP3   OH2 8751   5.957   0.573   2.627 -0.1793  0.2325 -0.3619
 2933TIP3    H1 8752   5.960   0.604   2.537  0.2508  0.7387 -0.1753
 2933TIP3    H2 8753   5.939   0.652   2.679 -0.6514 -0.0897 -0.0240
 2934TIP3   OH2 8754   4.560   2.001   2.007  0.1416 -0.0243 -0.3567
 2934TIP3    H1 8755   4.617   1.943   2.058 -0.6931 -0.4943  0.0476
 2934TIP3    H2 8756   4.613   2.025   1.930  0.7590 -0.7335 -0.1599
 2935TIP3   OH2 8757   4.875   2.157   3.071  0.1378  0.0677  0.7595
 2935TIP3    H1 8758   4.889   2.149   2.976  2.0998  1.3025  0.8936
 2935TIP3    H2 8759   4.810   2.091   3.092  0.9194 -1.3778 -1.1914
 2936TIP3   OH2 8760   5.766   0.426   4.054 -0.6367 -0.4272  0.2779
 2936TIP3    H1 8761   5.699   0.494   4.043 -0.8432 -0.7761 -0.6695
 2936TIP3    H2 8762   5.749   0.365   3.982  1.0798 -0.1957 -0.3419
 2937TIP3   OH2 8763   0.192   0.961   1.033 -0.0319  0.1174 -0.4412
 2937TIP3    H1 8764   0.227   0.984   0.947  0.4949 -2.0829 -0.8471
 2937TIP3    H2 8765   0.164   0.870   1.024  0.1034 -0.1634  1.7346
 2938TIP3   OH2 8766   5.931   0.413   2.878 -0.0864  0.5947 -0.4894
 2938TIP3    H1 8767   5.920   0.448   2.790  1.4673  0.9081 -0.5843
 2938TIP3    H2 8768   5.909   0.486   2.936 -2.0285  0.0999 -0.5984
 2939TIP3   OH2 8769   6.161   0.780   1.394 -0.0983 -0.1724 -0.0151
 2939TIP3    H1 8770   6.116   0.725   1.329  3.3695 -1.4102 -1.5029
 2939TIP3    H2 8771   6.182   0.861   1.348 -0.1538  0.0999  0.4322
 2940TIP3   OH2 8772   5.058   0.408   2.302  0.3215 -0.4524  0.0654
 2940TIP3    H1 8773   5.012   0.325   2.302  0.4074 -0.5158  1.3769
 2940TIP3    H2 8774   5.030   0.452   2.222  0.8452 -2.0438 -1.0156
 2941TIP3   OH2 8775   2.891   1.123   1.357 -0.2426  0.0092  0.0242
 2941TIP3    H1 8776   2.822   1.188   1.341  1.0825  1.1276 -1.3244
 2941TIP3    H2 8777   2.954   1.169   1.412 -1.3170 -1.5262  2.5822
 2942TIP3   OH2 8778   6.388   4.041   3.251  0.0582  0.1553  0.1105
 2942TIP3    H1 8779   6.430   4.111   3.201 -0.9972  1.9955  1.7121
 2942TIP3    H2 8780   6.318   4.010   3.194  1.8658 -1.1099 -1.4844
 2943TIP3   OH2 8781   6.242   2.076   2.737  0.0029  0.2919  0.1584
 2943TIP3    H1 8782   6.197   1.993   2.727  0.8748 -0.3691  1.4695
 2943TIP3    H2 8783   6.227   2.122   2.655  1.0309 -1.9101 -1.3254
 2944TIP3   OH2 8784   5.889   1.724   3.087 -0.3131  0.6327  0.1819
 2944TIP3    H1 8785   5.907   1.805   3.136  1.6537  0.7981 -0.7369
 2944TIP3    H2 8786   5.886   1.656   3.155  0.6354  1.1150  0.7349
 2945TIP3   OH2 8787   6.482   0.855   4.358  0.0674 -0.6198 -0.1430
 2945TIP3    H1 8788   6.415   0.841   4.425  0.2218 -1.3044 -0.1251
 2945TIP3    H2 8789   6.565   0.840   4.404  0.2196 -0.1209 -0.2515
 2946TIP3   OH2 8790   4.101   3.797   3.264 -0.2809  0.0406 -0.3024
 2946TIP3    H1 8791   4.168   3.820   3.199  0.2643 -1.5274 -0.3320
 2946TIP3    H2 8792   4.034   3.752   3.214 -1.2533  1.3976 -0.2301
 2947TIP3   OH2 8793   5.380   3.116   4.229  0.0338 -0.4537 -0.9774
 2947TIP3    H1 8794   5.411   3.139   4.141  2.5175  0.2426  0.0422
 2947TIP3    H2 8795   5.438   3.164   4.288 -0.4839 -2.3186  1.0886
 2948TIP3   OH2 8796   7.865   2.628   2.665 -0.2801  0.2362  0.2460
 2948TIP3    H1 8797   7.904   2.651   2.581  0.9566  0.4735  0.8741
 2948TIP3    H2 8798   7.796   2.693   2.679 -0.4995  0.1796 -0.5936
 2949TIP3   OH2 8799   0.359   2.172   1.918  0.4044 -0.1179  0.7787
 2949TIP3    H1 8800   0.441   2.146   1.960  0.8036 -0.6631 -0.2870
 2949TIP3    H2 8801   0.319   2.089   1.891  0.6051  0.2415 -0.6995
 2950TIP3   OH2 8802   6.257   1.826   4.515  0.3084 -0.7000  0.6746
 2950TIP3    H1 8803   6.333   1.812   4.572 -0.0861 -0.0994  1.3474
 2950TIP3    H2 8804   6.295   1.857   4.432  0.7444  0.4325  1.2875
 2951TIP3   OH2 8805   6.414   0.777   2.187  0.1123 -0.4011 -0.1923
 2951TIP3    H1 8806   6.351   0.846   2.207  3.1951  2.1225  1.1318
 2951TIP3    H2 8807   6.436   0.790   2.095  1.2537  0.9241  0.2486
 2952TIP3   OH2 8808   5.467   1.460   2.472  0.2933 -0.1050  0.4956
 2952TIP3    H1 8809   5.482   1.542   2.519 -0.2607  0.6999 -0.6995
 2952TIP3    H2 8810   5.372   1.460   2.455  0.8216  0.9708 -2.9758
 2953TIP3   OH2 8811   0.284   2.288   1.099  0.0955  0.5093  0.1966
 2953TIP3    H1 8812   0.353   2.237   1.141  0.1800  0.7278  0.3243
 2953TIP3    H2 8813   0.203   2.248   1.130  0.1597 -1.9919 -2.6880
 2954TIP3   OH2 8814   6.945   5.105   2.702  0.1115  0.3124  0.3284
 2954TIP3    H1 8815   6.981   5.186   2.737  0.0207  1.0277 -1.1835
 2954TIP3    H2 8816   6.850   5.113   2.717  0.0937  0.5179  0.1084
 2955TIP3   OH2 8817   2.521   2.494   2.952 -0.0600  0.0352 -0.2363
 2955TIP3    H1 8818   2.470   2.574   2.962 -1.3970 -0.4591 -2.5135
 2955TIP3    H2 8819   2.457   2.424   2.961  0.6752 -0.6944 -0.6020
 2956TIP3   OH2 8820   5.315   1.623   1.931  0.0825 -0.4788 -0.0706
 2956TIP3    H1 8821   5.367   1.544   1.914 -1.0865 -1.1163 -0.7196
 2956TIP3    H2 8822   5.243   1.593   1.987 -0.6836  0.0226 -0.7828
 2957TIP3   OH2 8823   7.194   2.570   1.739 -0.5560 -0.2724  0.1455
 2957TIP3    H1 8824   7.201   2.474   1.741  0.7897 -0.1893 -0.4566
 2957TIP3    H2 8825   7.224   2.594   1.652 -1.3775  0.6768  0.1181
 2958TIP3   OH2 8826   7.216   3.525   5.119  0.2520 -0.4299  0.3268
 2958TIP3    H1 8827   7.171   3.568   5.192 -0.7288 -1.3879  0.2979
 2958TIP3    H2 8828   7.146   3.493   5.063  0.9939 -0.7004 -0.4545
 2959TIP3   OH2 8829   6.905   1.594   2.092 -0.9194 -0.7072  0.8859
 2959TIP3    H1 8830   6.934   1.679   2.059  2.6392 -1.0765  2.8454
 2959TIP3    H2 8831   6.895   1.540   2.013 -0.8529  0.8045 -0.1845
 2960TIP3   OH2 8832   7.060   3.791   2.224 -0.4656 -0.1514 -0.4988
 2960TIP3    H1 8833   7.060   3.712   2.171  1.6333  0.0041 -0.7652
 2960TIP3    H2 8834   7.088   3.860   2.165  0.7550  0.2270  0.4944
 2961TIP3   OH2 8835   7.179   2.441   0.859  0.7556  0.1580  0.3828
 2961TIP3    H1 8836   7.232   2.377   0.907  0.4342  0.7369  1.5430
 2961TIP3    H2 8837   7.184   2.520   0.913  0.9314  1.0352 -0.8922
 2962TIP3   OH2 8838   7.178   1.436   2.063  0.2823  0.2298  0.0226
 2962TIP3    H1 8839   7.252   1.381   2.039  0.7577  0.6910  0.4234
 2962TIP3    H2 8840   7.172   1.501   1.993 -1.3304 -1.3353 -1.3397
 2963TIP3   OH2 8841   6.501   2.100   2.861 -0.2487 -0.2299  0.6331
 2963TIP3    H1 8842   6.435   2.119   2.794 -0.2158 -1.6408  0.1801
 2963TIP3    H2 8843   6.451   2.064   2.934  0.2015 -4.0613 -0.7791
 2964TIP3   OH2 8844   5.291   6.461   2.074  0.5449 -0.3338  0.3094
 2964TIP3    H1 8845   5.348   6.452   2.150  0.8568  0.8248  0.2166
 2964TIP3    H2 8846   5.310   6.385   2.020  1.5798 -0.2456  0.5524
 2965TIP3   OH2 8847   6.352   2.457   3.222  0.3299 -0.5017  0.4105
 2965TIP3    H1 8848   6.426   2.506   3.185 -0.0736  1.4367  2.0778
 2965TIP3    H2 8849   6.367   2.366   3.195  1.8800  0.3002 -1.5280
 2966TIP3   OH2 8850   4.123   7.271   0.851  0.2170 -0.1383  0.1585
 2966TIP3    H1 8851   4.085   7.358   0.864  2.3369  1.2229 -2.3203
 2966TIP3    H2 8852   4.114   7.255   0.757  1.4633 -1.8153  0.3088
 2967TIP3   OH2 8853   0.496   2.258   1.346  0.1432  0.4872 -0.1963
 2967TIP3    H1 8854   0.571   2.301   1.386  0.0728 -0.2247  0.7011
 2967TIP3    H2 8855   0.528   2.170   1.323 -0.7729 -0.2798  1.3816
 2968TIP3   OH2 8856   0.450   2.478   0.656 -0.2997  0.1845 -0.0326
 2968TIP3    H1 8857   0.462   2.410   0.723 -0.5924  0.2257  0.0638
 2968TIP3    H2 8858   0.408   2.432   0.583 -1.4805  0.4788  0.4412
 2969TIP3   OH2 8859   5.409   1.492   6.448  0.0214  0.4005 -0.2050
 2969TIP3    H1 8860   5.466   1.510   6.373  3.1996 -1.2695  1.6834
 2969TIP3    H2 8861   5.415   1.571   6.502 -0.0552  0.4966 -0.3345
 2970TIP3   OH2 8862   1.008   0.778   3.581  0.6357  0.2339  0.2924
 2970TIP3    H1 8863   1.071   0.765   3.510  0.6464 -0.4184  0.4153
 2970TIP3    H2 8864   0.951   0.701   3.578  0.0714  0.6404  0.4163
 2971TIP3   OH2 8865   7.424   0.349   3.251 -0.2649  0.3422  0.5226
 2971TIP3    H1 8866   7.488   0.310   3.191 -1.3668 -0.5844 -0.0678
 2971TIP3    H2 8867   7.371   0.275   3.281 -0.8422  1.0510  1.2669
 2972TIP3   OH2 8868   6.895   4.150   2.698  0.0525 -0.3034  0.4209
 2972TIP3    H1 8869   6.855   4.077   2.745 -1.3486 -0.2929 -0.7376
 2972TIP3    H2 8870   6.831   4.175   2.632  0.2955  2.2989  1.0938
 2973TIP3   OH2 8871   6.108   4.162   1.942  0.6171  0.2012  0.1959
 2973TIP3    H1 8872   6.019   4.192   1.922  1.1403  2.5153  1.1437
 2973TIP3    H2 8873   6.154   4.168   1.858  0.3473  0.7699  0.0816
 2974TIP3   OH2 8874   6.885   0.998   2.528  0.4545 -0.4643 -0.1947
 2974TIP3    H1 8875   6.891   1.034   2.616 -0.1848  1.5887 -0.9592
 2974TIP3    H2 8876   6.819   0.929   2.535 -1.4389  1.3531  0.4216
 2975TIP3   OH2 8877   6.273   3.247   1.643 -0.0365  0.1443  0.4422
 2975TIP3    H1 8878   6.296   3.243   1.735 -2.6978  0.1065  1.1349
 2975TIP3    H2 8879   6.214   3.322   1.636 -1.7555 -1.2904 -0.7744
 2976TIP3   OH2 8880   5.771   3.314   3.239  0.6421  0.0006  0.5716
 2976TIP3    H1 8881   5.721   3.379   3.189 -0.8647 -0.1149  1.9000
 2976TIP3    H2 8882   5.800   3.360   3.317  0.7547 -0.5484  0.8562
 2977TIP3   OH2 8883   2.419   1.568   2.211 -0.1827  0.2303  0.3134
 2977TIP3    H1 8884   2.351   1.501   2.215 -0.8253  0.8981  0.6666
 2977TIP3    H2 8885   2.397   1.630   2.281  0.8571  0.3881  0.5162
 2978TIP3   OH2 8886   6.994   5.388   3.163  0.2241  0.1379  0.7180
 2978TIP3    H1 8887   7.022   5.329   3.233 -0.8186 -0.6800  0.4672
 2978TIP3    H2 8888   6.939   5.453   3.207 -0.2855 -0.2726  0.6934
 2979TIP3   OH2 8889   7.541   5.769   2.821  0.0454 -0.0771 -0.0960
 2979TIP3    H1 8890   7.500   5.823   2.754  0.8271  1.1297  0.3944
 2979TIP3    H2 8891   7.468   5.738   2.875 -0.1188  3.8820  2.1348
 2980TIP3   OH2 8892   6.743   2.458   2.261 -0.2948 -0.3483 -0.5590
 2980TIP3    H1 8893   6.672   2.396   2.274 -0.4691 -0.7348 -3.0845
 2980TIP3    H2 8894   6.788   2.461   2.346 -2.7221 -0.7973  0.7918
 2981TIP3   OH2 8895   7.768   2.730   1.066  0.1358  0.2228  0.1890
 2981TIP3    H1 8896   7.695   2.693   1.015 -1.4659 -0.2121  2.7240
 2981TIP3    H2 8897   7.839   2.738   1.003 -2.2724  1.2123 -2.5170
 2982TIP3   OH2 8898   6.336   1.825   5.518 -0.6390  0.2419 -0.0577
 2982TIP3    H1 8899   6.299   1.775   5.446 -0.0085  0.7841 -0.7722
 2982TIP3    H2 8900   6.431   1.815   5.508 -0.5552 -0.0198  0.9440
 2983TIP3   OH2 8901   5.180   3.449   0.680  0.8549  0.9790  0.0135
 2983TIP3    H1 8902   5.175   3.447   0.775  0.8796  0.3675  0.0021
 2983TIP3    H2 8903   5.141   3.533   0.656  0.5674  1.0011  0.5468
 2984TIP3   OH2 8904   6.593   2.467   3.468  0.1316 -0.1282  0.4262
 2984TIP3    H1 8905   6.583   2.484   3.375 -0.7716 -0.2247  0.5019
 2984TIP3    H2 8906   6.686   2.483   3.486  0.3114 -0.1482 -0.4905
 2985TIP3   OH2 8907   5.813   2.130   3.828 -0.2798  0.1740 -0.2183
 2985TIP3    H1 8908   5.748   2.180   3.779  1.2713 -0.9820 -3.6309
 2985TIP3    H2 8909   5.807   2.042   3.791  2.7412 -0.1045 -0.1229
 2986TIP3   OH2 8910   6.139   2.691   4.164  0.0570  0.2967  0.1249
 2986TIP3    H1 8911   6.146   2.786   4.180  0.2513  0.2738  0.1663
 2986TIP3    H2 8912   6.077   2.661   4.230 -1.7527  0.7724 -1.2872
 2987TIP3   OH2 8913   3.479   0.073   3.052 -0.0812 -0.0093 -0.0517
 2987TIP3    H1 8914   3.503  -0.004   3.000  1.3619  0.8739 -0.7131
 2987TIP3    H2 8915   3.456   0.140   2.987 -4.1292 -0.7021  0.5334
 2988TIP3   OH2 8916   6.991   3.556   3.392 -0.2756  0.2131 -0.0400
 2988TIP3    H1 8917   6.967   3.602   3.473 -0.7525  1.6849 -1.0053
 2988TIP3    H2 8918   7.083   3.579   3.379 -0.0259 -0.5049  0.3796
 2989TIP3   OH2 8919   0.486   1.112   1.260  0.1735  0.4285 -0.4694
 2989TIP3    H1 8920   0.537   1.074   1.332 -1.4067 -1.5925 -0.3856
 2989TIP3    H2 8921   0.406   1.060   1.258 -0.0391  0.8275 -3.3338
 2990TIP3   OH2 8922   1.436   2.399   3.160 -0.1457  0.2683  0.2774
 2990TIP3    H1 8923   1.431   2.341   3.236 -1.3282  0.1827  0.1295
 2990TIP3    H2 8924   1.470   2.344   3.090 -3.7430 -0.9535 -0.5637
 2991TIP3   OH2 8925   7.639   1.591   1.137 -0.4851  0.4952 -0.6692
 2991TIP3    H1 8926   7.626   1.593   1.042 -4.1342 -0.8958 -0.2727
 2991TIP3    H2 8927   7.684   1.507   1.154 -0.6022  0.3537 -1.0689
 2992TIP3   OH2 8928   6.295   2.604   2.397  0.0952 -0.5292 -0.0049
 2992TIP3    H1 8929   6.371   2.657   2.373 -0.5553 -0.0395 -1.0485
 2992TIP3    H2 8930   6.266   2.566   2.314  0.0139 -1.8005  0.6050
 2993TIP3   OH2 8931   7.580   1.072   1.029 -0.0919 -0.0837 -0.6684
 2993TIP3    H1 8932   7.515   1.081   1.099  0.3164  2.4700 -0.5664
 2993TIP3    H2 8933   7.641   1.005   1.061 -2.2911 -2.0765 -0.5106
 2994TIP3   OH2 8934   6.720   3.017   1.123 -0.6549 -0.2863 -0.0814
 2994TIP3    H1 8935   6.739   2.954   1.053 -3.0136 -1.1716  0.0141
 2994TIP3    H2 8936   6.626   3.009   1.136 -0.7257  2.1670  1.0320
 2995TIP3   OH2 8937   5.987   2.084   1.940 -0.1955 -0.0536 -0.9809
 2995TIP3    H1 8938   5.953   2.117   2.024  0.5181  0.6012 -0.9355
 2995TIP3    H2 8939   5.909   2.062   1.889 -0.6122 -1.6300  0.3105
 2996TIP3   OH2 8940   6.862   4.155   3.041 -0.2141  0.1286  0.7336
 2996TIP3    H1 8941   6.869   4.166   3.136  0.2635 -1.1268  0.8572
 2996TIP3    H2 8942   6.825   4.237   3.010  1.1891  1.1942  1.8183
 2997TIP3   OH2 8943   7.662   2.716   0.695 -0.2124 -0.4266 -0.3251
 2997TIP3    H1 8944   7.738   2.758   0.735 -0.8341 -0.7250  1.2160
 2997TIP3    H2 8945   7.645   2.766   0.616  0.6787  0.5626  0.1043
 2998TIP3   OH2 8946   6.240   2.252   2.313 -0.1133 -0.9225 -0.0480
 2998TIP3    H1 8947   6.154   2.294   2.322  0.1341 -0.1467 -1.1616
 2998TIP3    H2 8948   6.225   2.179   2.252  0.4148  0.4835 -1.9218
 2999TIP3   OH2 8949   5.633   3.775   0.092  0.3549 -0.3923  0.4827
 2999TIP3    H1 8950   5.569   3.797   0.161 -0.4289  2.1472 -1.0008
 2999TIP3    H2 8951   5.585   3.719   0.032 -0.0876  0.3592  0.1197
 3000TIP3   OH2 8952   5.171   4.008   1.386 -0.0862 -0.0081 -0.0920
 3000TIP3    H1 8953   5.238   3.940   1.396  0.7720  0.9995  1.2635
 3000TIP3    H2 8954   5.088   3.962   1.400  0.5028 -0.7276  1.1997
 3001TIP3   OH2 8955   7.470   3.658   3.703 -0.5365 -0.8410  0.0422
 3001TIP3    H1 8956   7.405   3.681   3.770  0.4545 -1.4811  1.2490
 3001TIP3    H2 8957   7.440   3.574   3.668 -2.0084  0.3343 -1.5745
 3002TIP3   OH2 8958   2.303   2.600   3.238 -0.3669  0.2072  0.3702
 3002TIP3    H1 8959   2.255   2.673   3.200  1.4471  1.6952  0.8958
 3002TIP3    H2 8960   2.278   2.599   3.330 -0.2118  0.3019  0.4129
 3003TIP3   OH2 8961   7.418   5.893   4.688 -0.3141 -0.0709  0.7862
 3003TIP3    H1 8962   7.494   5.884   4.747 -0.9415 -0.8994  1.4824
 3003TIP3    H2 8963   7.447   5.954   4.621  1.4633 -1.4271  0.2717
 3004TIP3   OH2 8964   7.157   2.657   3.466 -0.0033 -0.1951 -0.0007
 3004TIP3    H1 8965   7.196   2.688   3.548  1.0198 -1.3011 -0.0610
 3004TIP3    H2 8966   7.190   2.568   3.456 -0.3941 -0.1844 -1.4518
 3005TIP3   OH2 8967   6.978   3.170   3.321 -0.0419 -0.8309  0.3771
 3005TIP3    H1 8968   6.926   3.224   3.261  1.1670 -2.1024 -1.8847
 3005TIP3    H2 8969   7.067   3.174   3.286  0.4495 -2.6258  1.3562
 3006TIP3   OH2 8970   7.409   1.591   0.874 -0.1159 -0.0592 -0.3357
 3006TIP3    H1 8971   7.338   1.646   0.841 -0.3791  0.4231  1.0478
 3006TIP3    H2 8972   7.373   1.502   0.870 -0.7740  0.1728  0.2779
 3007TIP3   OH2 8973   0.658   4.664   3.569 -0.6147  0.2722 -0.2630
 3007TIP3    H1 8974   0.720   4.737   3.572 -0.8241  0.4182  0.6405
 3007TIP3    H2 8975   0.711   4.588   3.543 -0.0691  0.4146  0.4058
 3008TIP3   OH2 8976   0.565   3.361   3.612  0.6629  0.1326 -0.3272
 3008TIP3    H1 8977   0.585   3.274   3.647  0.6222  0.2297 -0.0605
 3008TIP3    H2 8978   0.633   3.418   3.649 -1.6644  0.9858  2.8044
 3009TIP3   OH2 8979   0.794   2.053   3.341  0.0140  0.4134 -0.1050
 3009TIP3    H1 8980   0.738   2.129   3.326  0.5331  0.6309 -0.9890
 3009TIP3    H2 8981   0.883   2.085   3.326  0.0903 -0.9066 -2.8397
 3010TIP3   OH2 8982   0.766   2.805   3.107  0.0205  0.0483 -0.7207
 3010TIP3    H1 8983   0.861   2.792   3.110 -0.0650 -0.8378 -1.4769
 3010TIP3    H2 8984   0.748   2.831   3.017 -0.2602  1.9650 -0.1363
 3011TIP3   OH2 8985  -0.005   4.630   3.370  0.0602  0.5733  0.0448
 3011TIP3    H1 8986  -0.036   4.720   3.360 -0.4559  0.6180  1.9244
 3011TIP3    H2 8987   0.085   4.632   3.338  0.4395  2.0213  1.1555
 3012TIP3   OH2 8988   6.432   2.556   2.901 -0.1340  0.2213 -0.1588
 3012TIP3    H1 8989   6.495   2.489   2.873 -1.2653  0.3730 -3.2497
 3012TIP3    H2 8990   6.392   2.586   2.820 -1.6401  2.6890  1.4503
 3013TIP3   OH2 8991   0.457   2.779   2.793 -0.2100  0.3443  0.2431
 3013TIP3    H1 8992   0.413   2.734   2.721 -0.0521 -1.9740  1.5561
 3013TIP3    H2 8993   0.412   2.749   2.872  0.3720  1.9589  1.2252
 3014TIP3   OH2 8994   2.129   4.211   6.271  0.5211 -0.2519  0.0113
 3014TIP3    H1 8995   2.088   4.184   6.353 -1.3755 -2.2327 -1.5456
 3014TIP3    H2 8996   2.199   4.147   6.256 -0.1720 -0.8397 -0.7229
 3015TIP3   OH2 8997   1.970   3.921   4.005  0.1412 -0.6190  0.2598
 3015TIP3    H1 8998   1.945   3.904   4.095 -0.5037 -1.6503 -0.0998
 3015TIP3    H2 8999   1.889   3.950   3.963  0.8437  1.6985  0.4443
 3016TIP3   OH2 9000   6.396   2.841   2.061 -0.0680  0.8107  0.0321
 3016TIP3    H1 9001   6.323   2.802   2.111 -0.0280 -1.7924 -1.8656
 3016TIP3    H2 9002   6.382   2.935   2.069 -1.9551  0.3992  2.1845
 3017TIP3   OH2 9003   1.713   1.530   3.390 -0.1703 -0.4030  0.3280
 3017TIP3    H1 9004   1.738   1.617   3.360  0.5035  0.0710  2.2243
 3017TIP3    H2 9005   1.791   1.476   3.374 -1.0706 -1.0355 -2.2035
 3018TIP3   OH2 9006   0.340   1.042   0.268 -0.5260 -0.1389  0.0918
 3018TIP3    H1 9007   0.320   0.989   0.345  0.3546 -0.1107  0.3560
 3018TIP3    H2 9008   0.403   1.108   0.301  0.9452 -0.9928 -0.9427
 3019TIP3   OH2 9009   3.055   2.703   2.414 -0.3799 -0.3823 -0.2120
 3019TIP3    H1 9010   3.069   2.776   2.474  0.4885 -0.5946 -0.1529
 3019TIP3    H2 9011   3.005   2.640   2.465  0.0494 -0.4125  0.1737
 3020TIP3   OH2 9012   7.469   2.401   5.448  0.1603  0.1799 -0.0385
 3020TIP3    H1 9013   7.533   2.431   5.512  0.0688  0.1472  0.0691
 3020TIP3    H2 9014   7.471   2.305   5.455  2.0495  0.0499 -1.9494
 3021TIP3   OH2 9015   7.556   3.757   2.056 -0.5350 -0.3215 -0.1312
 3021TIP3    H1 9016   7.509   3.804   1.988  0.8842 -1.7589 -2.1776
 3021TIP3    H2 9017   7.636   3.808   2.069 -0.3262 -0.6110 -0.2830
 3022TIP3   OH2 9018   1.298   4.003   4.266 -0.2779  0.0210 -0.0024
 3022TIP3    H1 9019   1.232   3.970   4.205  0.1776 -0.6201 -0.1547
 3022TIP3    H2 9020   1.314   3.929   4.326  0.4160  0.1193 -0.0618
 3023TIP3   OH2 9021   0.886   1.428   3.655 -0.3841 -0.3622  0.3175
 3023TIP3    H1 9022   0.846   1.494   3.711  2.8205  1.1066  1.0067
 3023TIP3    H2 9023   0.917   1.360   3.715 -1.4220 -1.2732 -0.1604
 3024TIP3   OH2 9024   0.541   5.358   1.678  0.5523 -1.0657  0.5788
 3024TIP3    H1 9025   0.609   5.302   1.713 -0.6715 -3.1929 -0.3530
 3024TIP3    H2 9026   0.538   5.337   1.584  0.6680  1.1952  0.0348
 3025TIP3   OH2 9027   7.633   5.656   3.118  0.1414  0.0574 -0.4221
 3025TIP3    H1 9028   7.692   5.709   3.064 -0.3023  0.3429 -0.6308
 3025TIP3    H2 9029   7.548   5.699   3.109 -0.0399 -0.1905  0.1012
 3026TIP3   OH2 9030   3.133   3.002   4.056  0.1901  0.0933 -0.2368
 3026TIP3    H1 9031   3.085   3.084   4.046 -0.4414  0.2606  3.5046
 3026TIP3    H2 9032   3.211   3.025   4.107  0.5209 -1.4548 -0.0030
 3027TIP3   OH2 9033   1.410   4.256   3.313 -0.0220  0.0408 -0.3075
 3027TIP3    H1 9034   1.357   4.256   3.233 -0.8906  1.3867  0.2524
 3027TIP3    H2 9035   1.482   4.316   3.293  2.6053 -3.4416 -1.8681
 3028TIP3   OH2 9036   0.521   4.135   3.391 -0.4695  0.1297  0.1048
 3028TIP3    H1 9037   0.561   4.094   3.314  1.5880  0.4232  0.9737
 3028TIP3    H2 9038   0.448   4.078   3.414  1.1504 -2.0022  0.1264
 3029TIP3   OH2 9039   1.328   5.436   4.575  0.2367  0.2443  0.2642
 3029TIP3    H1 9040   1.287   5.472   4.653  0.3144  3.7592 -1.1820
 3029TIP3    H2 9041   1.255   5.412   4.518  0.1932 -0.7877  0.7407
 3030TIP3   OH2 9042   6.753   2.036   3.368 -0.1076 -0.4321  0.4490
 3030TIP3    H1 9043   6.682   2.074   3.316 -1.2370 -1.3040  1.3152
 3030TIP3    H2 9044   6.737   2.070   3.457  1.2970  0.3674  0.3997
 3031TIP3   OH2 9045   7.705   2.131   3.132  0.5365  0.1267  0.1568
 3031TIP3    H1 9046   7.716   2.145   3.038 -0.1485  0.1186  0.0698
 3031TIP3    H2 9047   7.646   2.056   3.139 -2.0850  2.1202  0.5413
 3032TIP3   OH2 9048   0.353   2.589   3.925 -0.0223 -0.2275 -0.0356
 3032TIP3    H1 9049   0.389   2.509   3.964  1.2597 -0.8531 -2.3747
 3032TIP3    H2 9050   0.304   2.558   3.849  0.4051  1.2030 -0.9045
 3033TIP3   OH2 9051   5.507   4.363   3.042 -0.0970  0.0169 -0.3143
 3033TIP3    H1 9052   5.474   4.274   3.031 -0.4512 -0.0038  0.8955
 3033TIP3    H2 9053   5.445   4.417   2.993  0.8886 -0.5267 -2.2057
 3034TIP3   OH2 9054   2.321   2.479   3.523 -0.4678 -0.0289  0.3325
 3034TIP3    H1 9055   2.234   2.517   3.526 -1.0548 -1.3200  0.1683
 3034TIP3    H2 9056   2.374   2.533   3.582 -1.7072 -0.0274  1.4703
 3035TIP3   OH2 9057   0.843   3.461   2.600 -0.3939  0.0179  0.4872
 3035TIP3    H1 9058   0.822   3.404   2.674  1.4864 -0.1486  0.9191
 3035TIP3    H2 9059   0.903   3.527   2.636 -1.6388  1.6171 -0.2646
 3036TIP3   OH2 9060   1.600   2.627   5.538  0.4041 -0.0105 -0.0480
 3036TIP3    H1 9061   1.539   2.695   5.568  0.8563  0.1560  0.5089
 3036TIP3    H2 9062   1.557   2.545   5.561  0.8650  0.1215  1.3115
 3037TIP3   OH2 9063   6.693   5.135   2.822 -0.7468  0.2258  0.4148
 3037TIP3    H1 9064   6.734   5.147   2.907  0.3999  3.1064 -0.4665
 3037TIP3    H2 9065   6.664   5.223   2.797  0.8847 -0.1339 -3.0984
 3038TIP3   OH2 9066   7.329   5.031   3.089 -0.2264  0.0789 -0.2275
 3038TIP3    H1 9067   7.277   5.002   3.013  0.7178  2.2405 -1.7486
 3038TIP3    H2 9068   7.409   5.067   3.051  0.9264 -0.1368  1.9140
 3039TIP3   OH2 9069   6.773   4.885   2.522 -0.7384 -0.7245  0.3783
 3039TIP3    H1 9070   6.737   4.969   2.492 -2.5043 -0.7124  2.4027
 3039TIP3    H2 9071   6.790   4.836   2.442 -0.8582  1.0977 -0.7824
 3040TIP3   OH2 9072   2.792   2.804   4.359  0.1168  0.3049 -0.3776
 3040TIP3    H1 9073   2.767   2.805   4.451 -0.0601  1.1704 -0.4313
 3040TIP3    H2 9074   2.710   2.819   4.311  0.4187  1.1721 -0.6262
 3041TIP3   OH2 9075   6.580   3.275   3.112 -0.1335 -0.4505  0.1224
 3041TIP3    H1 9076   6.615   3.234   3.192 -0.7986  3.6720  2.6718
 3041TIP3    H2 9077   6.650   3.331   3.081 -1.1238  0.6769 -0.1211
 3042TIP3   OH2 9078   1.274   6.562   3.289 -0.3005 -0.0648 -0.1151
 3042TIP3    H1 9079   1.232   6.618   3.355 -1.0006 -1.0303  0.2632
 3042TIP3    H2 9080   1.259   6.607   3.206 -0.3260  0.6215  0.2556
 3043TIP3   OH2 9081   2.425   2.630   1.831  0.2727 -0.3755 -0.0602
 3043TIP3    H1 9082   2.472   2.672   1.903 -1.5449  2.3115 -0.4187
 3043TIP3    H2 9083   2.484   2.639   1.756  0.1834  0.9558  0.0196
 3044TIP3   OH2 9084   7.564   4.778   4.223 -0.3548  0.3373 -0.4940
 3044TIP3    H1 9085   7.473   4.811   4.223 -0.4955 -0.0330 -1.4543
 3044TIP3    H2 9086   7.571   4.727   4.304 -0.3099  2.2403  0.7428
 3045TIP3   OH2 9087   0.722   5.400   2.127 -0.0033  0.3713 -0.1515
 3045TIP3    H1 9088   0.779   5.460   2.079  1.6370 -2.4681 -1.8889
 3045TIP3    H2 9089   0.751   5.406   2.218 -0.4369  2.8018 -0.1440
 3046TIP3   OH2 9090   0.920   5.996   2.324 -0.3243 -0.0917  0.0100
 3046TIP3    H1 9091   0.953   6.083   2.300 -0.2399 -0.3715 -0.9195
 3046TIP3    H2 9092   0.835   6.012   2.363  0.2171  0.5120  0.9798
 3047TIP3   OH2 9093   6.873   5.621   2.211  0.1912 -0.1669 -0.3485
 3047TIP3    H1 9094   6.890   5.614   2.117 -1.6782 -1.5327 -0.6200
 3047TIP3    H2 9095   6.960   5.627   2.251  1.0101  0.1264 -2.1395
 3048TIP3   OH2 9096   2.022   3.520   3.418 -0.1801 -0.0197  0.1401
 3048TIP3    H1 9097   2.077   3.514   3.496 -0.3788  1.0593  0.3849
 3048TIP3    H2 9098   1.933   3.527   3.453 -0.3275 -0.1900 -0.2010
 3049TIP3   OH2 9099   3.497   7.037   6.029  0.1306  0.7803  0.1952
 3049TIP3    H1 9100   3.478   7.093   5.953  0.1212  1.7174  0.8791
 3049TIP3    H2 9101   3.471   7.090   6.104 -0.3719 -0.3519  0.8332
 3050TIP3   OH2 9102   1.166   2.478   5.257 -0.0734  1.0891  0.1680
 3050TIP3    H1 9103   1.079   2.445   5.279  0.4653 -0.0899  0.5627
 3050TIP3    H2 9104   1.220   2.456   5.333  1.1485 -0.4626 -1.1054
 3051TIP3   OH2 9105   7.347   4.500   1.721 -0.0026  0.0282 -0.5149
 3051TIP3    H1 9106   7.346   4.593   1.744  3.0650 -0.5444  2.3871
 3051TIP3    H2 9107   7.295   4.457   1.788  0.5330 -0.5806 -0.4782
 3052TIP3   OH2 9108   7.405   3.987   1.478 -0.0179 -0.0985 -0.1481
 3052TIP3    H1 9109   7.382   4.057   1.416 -0.0001 -0.1376 -0.1996
 3052TIP3    H2 9110   7.345   4.000   1.552  1.2242  1.0990  0.6688
 3053TIP3   OH2 9111   0.500   0.656   2.540  0.2179 -0.0033 -0.1262
 3053TIP3    H1 9112   0.418   0.632   2.583  0.6949  1.0097  1.3759
 3053TIP3    H2 9113   0.551   0.575   2.540 -1.2908 -1.0250 -2.3552
 3054TIP3   OH2 9114   0.153   2.230   2.897  0.0363  0.0743 -0.6250
 3054TIP3    H1 9115   0.189   2.317   2.882  1.1987 -0.1796  0.6030
 3054TIP3    H2 9116   0.071   2.246   2.942  0.9445  0.4906  0.9025
 3055TIP3   OH2 9117   1.258   3.622   2.045 -0.2717 -0.5278  0.1014
 3055TIP3    H1 9118   1.239   3.665   2.129  3.9052  2.5954 -0.3996
 3055TIP3    H2 9119   1.266   3.694   1.983  0.8564 -2.5064 -2.1031
 3056TIP3   OH2 9120   7.675   2.682   3.395 -0.1319 -0.1229  0.6306
 3056TIP3    H1 9121   7.748   2.742   3.413 -1.2082  1.6064 -0.6688
 3056TIP3    H2 9122   7.708   2.623   3.328 -0.0715  0.9588 -0.2979
 3057TIP3   OH2 9123   6.586   3.110   2.520  0.6278 -0.2642  0.2838
 3057TIP3    H1 9124   6.546   3.060   2.449  0.2249  0.7471 -0.2173
 3057TIP3    H2 9125   6.549   3.074   2.600 -0.8450  0.2564 -0.1447
 3058TIP3   OH2 9126   6.525   1.350   3.343 -0.0990 -0.3365  0.7159
 3058TIP3    H1 9127   6.545   1.390   3.428 -1.3418  1.5078  0.1919
 3058TIP3    H2 9128   6.610   1.328   3.306  0.5142 -0.0664  1.9449
 3059TIP3   OH2 9129   6.384   3.076   3.431  0.0852  0.4377  0.0444
 3059TIP3    H1 9130   6.293   3.070   3.459  0.2522  0.1564  0.5477
 3059TIP3    H2 9131   6.383   3.053   3.338 -0.2563 -0.3711  0.2380
 3060TIP3   OH2 9132   7.485   2.746   5.107 -0.2054 -0.2046  0.1202
 3060TIP3    H1 9133   7.479   2.808   5.181  1.0974 -0.1611  0.2003
 3060TIP3    H2 9134   7.521   2.666   5.146 -1.2164 -0.7845 -0.1248
 3061TIP3   OH2 9135   7.583   3.175   4.296 -0.1516 -0.3748 -1.2496
 3061TIP3    H1 9136   7.589   3.171   4.392 -0.5409 -0.6423 -1.2342
 3061TIP3    H2 9137   7.505   3.124   4.275 -2.0386  2.4670 -1.4529
 3062TIP3   OH2 9138   0.699   3.104   3.630  0.0272  0.1461  0.2191
 3062TIP3    H1 9139   0.736   3.065   3.709  1.3209 -0.5979 -0.7455
 3062TIP3    H2 9140   0.614   3.061   3.620  1.2443 -2.1840 -0.5963
 3063TIP3   OH2 9141   6.497   1.290   2.317 -0.2908 -0.1091  0.0605
 3063TIP3    H1 9142   6.469   1.290   2.408 -0.6959 -1.8278 -0.0340
 3063TIP3    H2 9143   6.427   1.245   2.270  0.4713 -0.3165 -0.9011
 3064TIP3   OH2 9144   7.102   1.117   3.118  0.2171  0.4221 -0.3203
 3064TIP3    H1 9145   7.039   1.148   3.184 -0.4135  0.2501 -0.8397
 3064TIP3    H2 9146   7.099   1.184   3.049  1.4247  0.9853  0.1637
 3065TIP3   OH2 9147   0.449   1.016   2.124 -0.0785  0.0144  0.0784
 3065TIP3    H1 9148   0.516   0.969   2.075 -0.0121  1.0072 -0.8026
 3065TIP3    H2 9149   0.368   0.969   2.107  0.6009 -2.0313  2.2720
 3066TIP3   OH2 9150   2.142   3.502   3.686 -0.0052 -0.0178  0.2848
 3066TIP3    H1 9151   2.222   3.451   3.701  0.8088  1.4119  0.8682
 3066TIP3    H2 9152   2.126   3.547   3.768 -2.3589 -1.5501  0.7044
 3067TIP3   OH2 9153   6.305   0.427   0.950 -0.0936  0.1264  0.2361
 3067TIP3    H1 9154   6.302   0.334   0.929 -0.3873  0.0023  0.8278
 3067TIP3    H2 9155   6.359   0.432   1.029 -0.8174  0.3613  0.7216
 3068TIP3   OH2 9156   0.245   3.375   3.264 -0.1597 -0.4670 -0.2416
 3068TIP3    H1 9157   0.327   3.412   3.233 -1.4296  0.5647 -2.4293
 3068TIP3    H2 9158   0.185   3.449   3.271 -1.2343 -1.3584  0.2907
 3069TIP3   OH2 9159   1.953   4.748   2.815  0.6413 -0.3286  0.3612
 3069TIP3    H1 9160   1.957   4.672   2.757 -1.5708 -0.9274  0.9472
 3069TIP3    H2 9161   1.989   4.717   2.897 -1.2375 -1.1164  0.9304
 3070TIP3   OH2 9162   2.064   4.084   2.271 -0.1759  0.1163  0.0254
 3070TIP3    H1 9163   1.991   4.028   2.244 -0.7592  1.4683 -1.3003
 3070TIP3    H2 9164   2.053   4.094   2.365 -0.7095 -1.0812  0.1012
 3071TIP3   OH2 9165   6.758   1.878   2.963 -0.5454 -0.3854 -0.1156
 3071TIP3    H1 9166   6.753   1.913   2.874  1.3701 -1.1849 -0.5762
 3071TIP3    H2 9167   6.742   1.784   2.952 -0.8616 -0.3991  0.4604
 3072TIP3   OH2 9168   7.664   2.281   2.108 -0.2287  0.4655 -0.6075
 3072TIP3    H1 9169   7.708   2.203   2.142  0.3967  1.0077 -0.1653
 3072TIP3    H2 9170   7.720   2.311   2.037 -1.3670 -0.4766 -1.9368
 3073TIP3   OH2 9171   7.597   1.961   3.393 -0.4629 -0.2673 -0.0290
 3073TIP3    H1 9172   7.575   2.007   3.313 -1.2024 -2.2063 -0.9791
 3073TIP3    H2 9173   7.604   1.869   3.367  1.3270 -0.6730  1.7258
 3074TIP3   OH2 9174   1.320   3.111   5.398 -0.5347  0.2461  0.3114
 3074TIP3    H1 9175   1.411   3.128   5.421 -0.3076  0.8911 -1.0111
 3074TIP3    H2 9176   1.276   3.195   5.410 -0.8494  0.0669  0.4247
 3075TIP3   OH2 9177   5.341   2.520   2.723 -0.4279  0.0433 -0.1158
 3075TIP3    H1 9178   5.380   2.446   2.678  1.9839  1.4473 -0.4154
 3075TIP3    H2 9179   5.289   2.564   2.656 -1.3505 -0.9765 -0.0939
 3076TIP3   OH2 9180   7.278   2.518   5.282  1.0311 -0.4122  0.4614
 3076TIP3    H1 9181   7.277   2.438   5.230 -2.1885 -0.5869  0.7461
 3076TIP3    H2 9182   7.346   2.503   5.348 -0.0595 -3.2283  0.9836
 3077TIP3   OH2 9183   7.066   2.817   4.875 -0.2789 -0.4089  0.1304
 3077TIP3    H1 9184   6.990   2.778   4.918  0.2493 -3.0340 -1.2219
 3077TIP3    H2 9185   7.141   2.771   4.913  0.6971  2.2932  1.6079
 3078TIP3   OH2 9186   6.865   2.842   4.235  0.0811  0.4197  0.0673
 3078TIP3    H1 9187   6.784   2.889   4.251 -0.8965 -1.5789  1.0752
 3078TIP3    H2 9188   6.840   2.769   4.179  1.2079 -0.1800  0.3342
 3079TIP3   OH2 9189   1.704   3.236   5.839  0.4011 -0.5643  0.0792
 3079TIP3    H1 9190   1.770   3.220   5.772  0.3261  1.9164 -0.6467
 3079TIP3    H2 9191   1.623   3.248   5.790 -0.2534 -1.7852  0.8381
 3080TIP3   OH2 9192   2.027   2.741   3.040 -0.2974  0.1554 -0.4592
 3080TIP3    H1 9193   2.119   2.723   3.023 -0.3489 -0.3848 -0.1765
 3080TIP3    H2 9194   2.024   2.766   3.132 -0.5714 -0.8415 -0.1879
 3081TIP3   OH2 9195   1.371   3.705   2.946  0.3777 -0.3668  0.2471
 3081TIP3    H1 9196   1.426   3.685   3.022  0.2116  0.5166  0.6086
 3081TIP3    H2 9197   1.392   3.637   2.882  2.0457  0.0785  0.3010
 3082TIP3   OH2 9198   0.110   2.674   2.430 -0.4834  0.6952 -0.3151
 3082TIP3    H1 9199   0.111   2.764   2.396 -0.8598  0.3829 -1.1638
 3082TIP3    H2 9200   0.063   2.624   2.363  3.0193 -0.8667 -1.7200
 3083TIP3   OH2 9201   1.751   3.187   3.285 -0.0864  0.4939 -0.1956
 3083TIP3    H1 9202   1.805   3.149   3.355  1.8021 -0.5340 -2.1823
 3083TIP3    H2 9203   1.798   3.266   3.259 -0.2708  0.3338 -1.0095
 3084TIP3   OH2 9204   1.705   4.288   2.823  0.5613 -0.1640  0.5399
 3084TIP3    H1 9205   1.680   4.374   2.856 -0.0659  0.6861 -2.0090
 3084TIP3    H2 9206   1.703   4.297   2.728  2.3981 -2.4616  0.2209
 3085TIP3   OH2 9207   2.573   5.404   2.960 -0.0788  0.0749  0.1957
 3085TIP3    H1 9208   2.499   5.408   2.899 -0.9786 -0.7041  1.2049
 3085TIP3    H2 9209   2.602   5.313   2.957 -1.1374 -0.3398  2.0781
 3086TIP3   OH2 9210   0.081   2.961   2.353  0.6214  0.3452  0.0519
 3086TIP3    H1 9211  -0.000   2.938   2.309  1.3191 -0.0250 -1.0687
 3086TIP3    H2 9212   0.089   3.056   2.339 -0.0836  0.5512  0.9814
 3087TIP3   OH2 9213   0.910   4.358   1.132 -0.0468 -0.4133 -0.2655
 3087TIP3    H1 9214   0.923   4.374   1.039 -0.6677  1.1730 -0.1019
 3087TIP3    H2 9215   0.941   4.269   1.146 -1.9984 -1.4896 -2.4300
 3088TIP3   OH2 9216   0.475   2.944   3.510  0.0107 -0.3176  0.2803
 3088TIP3    H1 9217   0.416   3.011   3.476 -0.6941 -0.7334  0.6791
 3088TIP3    H2 9218   0.520   2.911   3.432 -0.7784 -0.4742 -0.1167
 3089TIP3   OH2 9219   6.704   3.742   1.863 -0.0932 -0.0367  0.5742
 3089TIP3    H1 9220   6.728   3.824   1.820  1.4930  0.2899  2.0384
 3089TIP3    H2 9221   6.654   3.769   1.940  0.3902 -0.4365  1.0334
 3090TIP3   OH2 9222   2.195   3.266   4.819 -0.4056  0.7317  0.6516
 3090TIP3    H1 9223   2.179   3.177   4.787  2.3562 -0.0720  1.4048
 3090TIP3    H2 9224   2.191   3.320   4.740 -0.6125 -0.2491 -0.0204
 3091TIP3   OH2 9225   5.041   4.149   0.092  0.5712  0.2080  0.0779
 3091TIP3    H1 9226   5.012   4.058   0.103 -1.4632  0.5794 -1.7510
 3091TIP3    H2 9227   4.973   4.200   0.136 -0.5534  1.0150 -2.5175
 3092TIP3   OH2 9228   2.458   2.917   4.992 -0.3810 -0.7074 -0.2233
 3092TIP3    H1 9229   2.384   2.932   4.934  1.9926  2.8621 -2.4839
 3092TIP3    H2 9230   2.441   2.973   5.068 -1.4149 -2.2295  0.7199
 3093TIP3   OH2 9231   0.784   4.038   0.957 -0.8426  0.2875  0.0190
 3093TIP3    H1 9232   0.718   4.000   0.899 -1.0636  1.1056 -0.2769
 3093TIP3    H2 9233   0.734   4.093   1.017 -0.3649  1.6634 -0.8058
 3094TIP3   OH2 9234   0.819   3.994   2.460 -0.2677  0.0273  0.1355
 3094TIP3    H1 9235   0.796   3.956   2.545 -0.4085 -1.7073 -0.6451
 3094TIP3    H2 9236   0.832   3.918   2.403  2.2275  1.0980 -0.7857
 3095TIP3   OH2 9237   0.928   4.379   3.371  0.0940 -0.4357  0.2232
 3095TIP3    H1 9238   0.973   4.454   3.330  0.5047 -0.9775 -0.3152
 3095TIP3    H2 9239   0.964   4.377   3.460 -0.4768  0.4702  0.4846
 3096TIP3   OH2 9240   1.968   6.621   1.197  0.3776  0.2438 -0.3633
 3096TIP3    H1 9241   2.025   6.630   1.274 -0.2754  0.3031  0.1153
 3096TIP3    H2 9242   1.881   6.604   1.234  0.4024 -1.5966 -1.1071
 3097TIP3   OH2 9243   0.964   1.765   1.004 -0.1388 -0.8522  0.0001
 3097TIP3    H1 9244   0.999   1.841   1.050  1.2642 -1.5768  0.1451
 3097TIP3    H2 9245   1.040   1.709   0.988 -0.6899 -0.9669 -2.5313
 3098TIP3   OH2 9246   0.872   1.824   3.986 -0.4407 -0.2065 -0.0600
 3098TIP3    H1 9247   0.926   1.766   4.040  1.1489  0.7197 -0.6279
 3098TIP3    H2 9248   0.909   1.911   4.000 -1.7003  0.4363 -0.5831
 3099TIP3   OH2 9249   1.541   1.078   0.723 -0.0858  0.0459 -0.1647
 3099TIP3    H1 9250   1.534   0.991   0.761  0.0405  0.0803 -0.0640
 3099TIP3    H2 9251   1.604   1.067   0.651 -0.2237  0.0098 -0.2803
 3100TIP3   OH2 9252   0.194   4.024   0.218  0.1771 -0.4534  0.4069
 3100TIP3    H1 9253   0.231   3.945   0.258 -1.6753 -1.7357 -0.3608
 3100TIP3    H2 9254   0.188   4.004   0.125  1.7739  1.4516 -0.1542
 3101TIP3   OH2 9255   0.767   3.155   3.367 -0.6679  0.7342  0.0122
 3101TIP3    H1 9256   0.726   3.080   3.324 -0.5991 -0.0593  1.2921
 3101TIP3    H2 9257   0.737   3.150   3.458  3.1970 -0.6565  1.3589
 3102TIP3   OH2 9258   0.980   3.181   4.110 -0.6926  0.2676 -0.9018
 3102TIP3    H1 9259   0.965   3.269   4.075 -0.7542  0.5921 -0.0609
 3102TIP3    H2 9260   0.931   3.179   4.192  2.9634  1.0163  1.4132
 3103TIP3   OH2 9261   2.511   2.827   4.150  0.2103 -0.0804 -0.7807
 3103TIP3    H1 9262   2.479   2.737   4.157 -2.9740  1.0581  0.1994
 3103TIP3    H2 9263   2.566   2.827   4.071 -1.5123 -2.3833 -2.0454
 3104TIP3   OH2 9264   7.286   2.997   2.702 -0.0042 -0.4170 -0.3435
 3104TIP3    H1 9265   7.308   2.912   2.741 -0.4421 -0.9562 -1.2506
 3104TIP3    H2 9266   7.293   2.982   2.608 -2.6022 -0.1746 -0.6116
 3105TIP3   OH2 9267   6.397   2.187   2.527 -0.4207 -0.5044 -0.0981
 3105TIP3    H1 9268   6.355   2.261   2.572  0.4851 -0.1140  0.1074
 3105TIP3    H2 9269   6.350   2.180   2.444 -0.8306 -0.0060  0.0886
 3106TIP3   OH2 9270   0.188   2.590   5.742 -0.2829  0.0427 -0.4350
 3106TIP3    H1 9271   0.182   2.512   5.798  1.7057 -0.0095 -0.2709
 3106TIP3    H2 9272   0.100   2.600   5.705 -0.7492 -1.8413  0.1286
 3107TIP3   OH2 9273   0.148   4.191   3.504  0.1603  0.3653 -0.3609
 3107TIP3    H1 9274   0.237   4.159   3.496  0.7572  0.7324  3.7548
 3107TIP3    H2 9275   0.098   4.117   3.538 -0.0419  1.5663  2.0242
 3108TIP3   OH2 9276   7.014   3.668   3.662  0.3886 -0.1146  0.4257
 3108TIP3    H1 9277   7.062   3.606   3.716  3.6858  0.4995 -1.6501
 3108TIP3    H2 9278   7.071   3.744   3.655 -1.2290  1.0021 -1.4558
 3109TIP3   OH2 9279   6.540   4.057   4.281 -0.7828 -0.0421  0.5711
 3109TIP3    H1 9280   6.525   3.973   4.237  2.1643  0.0460 -0.7306
 3109TIP3    H2 9281   6.540   4.035   4.374  0.8713 -1.6840  0.2155
 3110TIP3   OH2 9282   0.112   5.783   0.369  0.2579  0.1183  0.0011
 3110TIP3    H1 9283   0.037   5.727   0.349  0.9638 -0.5994 -0.6756
 3110TIP3    H2 9284   0.130   5.767   0.462 -2.0786  2.3100  0.8901
 3111TIP3   OH2 9285   2.219   4.009   4.629 -0.1026 -0.2958 -0.0016
 3111TIP3    H1 9286   2.166   3.949   4.577  1.1226 -0.3977 -1.1561
 3111TIP3    H2 9287   2.305   3.967   4.634 -0.2821 -0.4690  2.4224
 3112TIP3   OH2 9288   1.053   5.729   4.526  0.5755 -0.3991 -0.1994
 3112TIP3    H1 9289   1.090   5.751   4.441  0.5244  0.0609 -0.1017
 3112TIP3    H2 9290   1.055   5.633   4.529  1.7110 -0.3714 -0.2006
 3113TIP3   OH2 9291   1.684   5.687   1.489  0.2643  0.8246 -0.4271
 3113TIP3    H1 9292   1.673   5.613   1.548 -1.6686  1.3458 -0.0879
 3113TIP3    H2 9293   1.776   5.685   1.463  0.8716 -0.0614  1.7442
 3114TIP3   OH2 9294   7.429   4.078   2.418 -0.1121 -0.8512 -0.2710
 3114TIP3    H1 9295   7.358   4.019   2.444  0.1406 -0.2692  1.8612
 3114TIP3    H2 9296   7.506   4.044   2.464  0.5846 -0.3447 -1.0559
 3115TIP3   OH2 9297   2.053   5.697   2.107 -0.1899 -0.1039 -0.1078
 3115TIP3    H1 9298   2.073   5.646   2.186 -0.1772  0.2521  0.1194
 3115TIP3    H2 9299   2.022   5.781   2.140 -1.6373 -0.4754 -0.4515
 3116TIP3   OH2 9300   6.008   5.147   1.388  0.3847  0.2504  0.0968
 3116TIP3    H1 9301   6.050   5.175   1.306  0.0444 -0.2052 -0.2373
 3116TIP3    H2 9302   6.010   5.052   1.384 -0.5075  0.2288  0.1712
 3117TIP3   OH2 9303   0.333   3.043   5.498 -0.6272  0.3280 -0.4496
 3117TIP3    H1 9304   0.264   3.080   5.443 -1.7385 -2.0019 -0.7032
 3117TIP3    H2 9305   0.308   2.952   5.510  2.9188 -0.8701 -1.3602
 3118TIP3   OH2 9306   7.573   4.788   2.248 -0.3602  0.2960  0.1252
 3118TIP3    H1 9307   7.574   4.749   2.335 -0.7462 -0.0591 -0.0281
 3118TIP3    H2 9308   7.481   4.784   2.221  0.0921 -1.5370 -1.1814
 3119TIP3   OH2 9309   2.029   4.648   3.062  0.1530 -0.3647  0.1066
 3119TIP3    H1 9310   2.121   4.662   3.084  0.0762 -0.9580  0.8576
 3119TIP3    H2 9311   1.995   4.597   3.136 -0.4239 -1.3586 -0.8340
 3120TIP3   OH2 9312   5.575   1.295   2.288 -0.3618 -0.0561 -0.1793
 3120TIP3    H1 9313   5.541   1.376   2.326  1.4764  1.4334 -1.5617
 3120TIP3    H2 9314   5.648   1.324   2.233 -0.0095 -2.6175 -1.1219
 3121TIP3   OH2 9315   1.274   3.732   4.351 -0.4365  0.0543  0.2538
 3121TIP3    H1 9316   1.309   3.662   4.296  0.5347  0.2157  0.6551
 3121TIP3    H2 9317   1.291   3.702   4.440  0.5358  1.0783  0.4187
 3122TIP3   OH2 9318   7.465   2.738   3.086 -0.5863 -0.0502 -0.4445
 3122TIP3    H1 9319   7.478   2.701   3.173  0.0390 -0.4005 -0.6848
 3122TIP3    H2 9320   7.460   2.833   3.100  0.9949  0.0073 -0.1883
 3123TIP3   OH2 9321   6.791   3.881   3.017  0.6753 -0.1705  0.3960
 3123TIP3    H1 9322   6.808   3.975   3.025  1.5220 -0.1326 -1.4372
 3123TIP3    H2 9323   6.706   3.876   2.973  1.3323 -0.2151 -0.9116
 3124TIP3   OH2 9324   7.891   5.018   2.345 -0.1672 -0.0276  0.2126
 3124TIP3    H1 9325   7.807   5.041   2.305 -0.3034 -0.1973  0.4018
 3124TIP3    H2 9326   7.875   4.934   2.388 -0.0973  0.2869  0.8602
 3125TIP3   OH2 9327   7.269   2.745   3.708 -0.2179 -0.1092 -0.4378
 3125TIP3    H1 9328   7.309   2.682   3.768  2.9684  2.6559  0.4222
 3125TIP3    H2 9329   7.334   2.759   3.640 -0.0516  3.6720  0.3996
 3126TIP3   OH2 9330   1.192   1.593   5.411 -0.1905  0.1906  0.1728
 3126TIP3    H1 9331   1.128   1.521   5.411 -0.9196  0.8373  0.2712
 3126TIP3    H2 9332   1.274   1.552   5.382 -1.2858 -0.1024 -2.6528
 3127TIP3   OH2 9333   0.923   3.834   0.227  0.1455 -0.0154 -0.2634
 3127TIP3    H1 9334   0.973   3.890   0.167  0.8180 -1.1264 -0.7552
 3127TIP3    H2 9335   0.988   3.798   0.287 -0.3356  0.0107  0.2773
 3128TIP3   OH2 9336   0.246   3.484   3.802  0.0327 -0.1646 -0.4957
 3128TIP3    H1 9337   0.274   3.441   3.883 -0.4587  0.4864  0.0258
 3128TIP3    H2 9338   0.327   3.499   3.754  0.3222 -0.6151 -0.1594
 3129TIP3   OH2 9339   0.999   1.957   2.992 -0.0480 -0.4420 -0.0265
 3129TIP3    H1 9340   0.950   1.903   2.930  1.4759 -2.4941  0.4862
 3129TIP3    H2 9341   0.964   1.933   3.078  1.3411 -1.4363  0.2884
 3130TIP3   OH2 9342   2.134   3.248   1.785 -0.3178  0.0165  0.5913
 3130TIP3    H1 9343   2.200   3.190   1.746 -1.0120 -1.0595  1.0178
 3130TIP3    H2 9344   2.062   3.248   1.722 -0.2998  0.4837  0.5643
 3131TIP3   OH2 9345   1.953   3.137   4.459  0.7657  0.1121  0.5073
 3131TIP3    H1 9346   2.007   3.065   4.489  0.0838 -0.3693  0.5981
 3131TIP3    H2 9347   1.976   3.148   4.366  0.2915 -0.7549  0.2831
 3132TIP3   OH2 9348   1.477   3.362   4.728  0.0448 -0.0138  0.1462
 3132TIP3    H1 9349   1.435   3.294   4.675 -1.5844  0.8888  0.2516
 3132TIP3    H2 9350   1.565   3.371   4.690  0.0140 -1.6436 -0.3300
 3133TIP3   OH2 9351   7.152   2.652   4.370 -0.4551  0.0162  0.0009
 3133TIP3    H1 9352   7.097   2.594   4.317  0.0202 -1.5535  1.1747
 3133TIP3    H2 9353   7.111   2.653   4.456  0.2875  0.3561  0.3632
 3134TIP3   OH2 9354   0.580   2.752   5.010  0.7980  0.0077 -0.4260
 3134TIP3    H1 9355   0.501   2.794   4.976  1.2134  0.7515 -0.4939
 3134TIP3    H2 9356   0.553   2.662   5.028 -0.1151  0.3030 -0.2597
 3135TIP3   OH2 9357   1.726   3.013   3.634  0.7968  0.1622 -0.1553
 3135TIP3    H1 9358   1.647   3.066   3.641  1.6389  1.6656 -1.6665
 3135TIP3    H2 9359   1.695   2.926   3.609 -0.4918  0.2967  0.9214
 3136TIP3   OH2 9360   0.499   3.378   2.996 -0.1312  0.2031 -0.0786
 3136TIP3    H1 9361   0.523   3.427   3.075  1.4368 -0.1858 -0.2841
 3136TIP3    H2 9362   0.410   3.405   2.977  0.5103  2.5900  0.1214
 3137TIP3   OH2 9363   0.822   4.493   3.025 -0.1497 -0.0802  0.7874
 3137TIP3    H1 9364   0.753   4.545   2.984 -2.1949 -1.2613  2.6457
 3137TIP3    H2 9365   0.775   4.430   3.080  2.4153 -1.0509  1.9234
 3138TIP3   OH2 9366   2.030   5.360   4.826  0.2101  0.4006  0.4296
 3138TIP3    H1 9367   2.071   5.283   4.866 -2.7308 -1.4211  0.0718
 3138TIP3    H2 9368   2.005   5.332   4.738  1.8316  2.7588 -0.8659
 3139TIP3   OH2 9369   0.066   2.820   6.222  0.7784  0.2077 -0.0045
 3139TIP3    H1 9370   0.037   2.735   6.190  2.7456 -0.4375 -0.1364
 3139TIP3    H2 9371   0.036   2.824   6.312  1.8156 -1.2055  0.4180
 3140TIP3   OH2 9372   0.460   4.800   3.018 -0.4860  0.4442  0.6560
 3140TIP3    H1 9373   0.365   4.792   3.028 -0.6552  0.9570 -0.4851
 3140TIP3    H2 9374   0.473   4.887   2.980  0.4158  0.2538  0.5213
 3141TIP3   OH2 9375   0.960   2.555   2.441  0.2577  0.1434 -0.1240
 3141TIP3    H1 9376   0.900   2.507   2.384  3.4583 -3.0924 -0.9214
 3141TIP3    H2 9377   0.918   2.553   2.527 -1.7341 -0.2046 -1.0682
 3142TIP3   OH2 9378   0.119   3.780   3.729  0.1297 -0.7103  0.1213
 3142TIP3    H1 9379   0.031   3.790   3.764 -0.3282 -1.4739 -0.7764
 3142TIP3    H2 9380   0.132   3.685   3.722  1.2556 -0.6153  0.8266
 3143TIP3   OH2 9381   0.090   4.557   3.057 -0.6012  0.6150  0.0303
 3143TIP3    H1 9382  -0.002   4.563   3.083 -0.1944  1.4822  1.3233
 3143TIP3    H2 9383   0.120   4.648   3.051 -0.2438  0.3870 -1.9759
 3144TIP3   OH2 9384   6.597   4.724   1.986 -0.4952  0.5914 -0.5944
 3144TIP3    H1 9385   6.624   4.633   1.996 -2.4464 -0.0354 -0.8923
 3144TIP3    H2 9386   6.593   4.738   1.891 -0.2080  0.9921 -0.5496
 3145TIP3   OH2 9387   7.517   3.238   1.262  0.4990  0.3334 -0.1592
 3145TIP3    H1 9388   7.493   3.191   1.183  0.7927 -1.1176  0.6006
 3145TIP3    H2 9389   7.601   3.200   1.289  0.8719  1.4571  0.3356
 3146TIP3   OH2 9390   1.142   3.196   4.768  0.0038 -0.6462 -0.6450
 3146TIP3    H1 9391   1.144   3.286   4.734 -1.3662 -0.7790 -1.1248
 3146TIP3    H2 9392   1.073   3.197   4.834 -0.2134 -1.4227 -0.8555
 3147TIP3   OH2 9393   0.101   5.202   2.100  0.2943 -0.0608 -0.2766
 3147TIP3    H1 9394   0.141   5.115   2.106  0.9817  0.3339  1.1190
 3147TIP3    H2 9395   0.045   5.208   2.178  0.6178  0.9090 -0.1071
 3148TIP3   OH2 9396   1.333   3.585   5.827  0.1177 -0.8805 -0.2358
 3148TIP3    H1 9397   1.249   3.629   5.815  0.7169  0.7460  1.2062
 3148TIP3    H2 9398   1.383   3.645   5.882  0.6647 -3.8450  2.6259
 3149TIP3   OH2 9399   2.693   3.099   3.753 -1.0218  0.2009 -0.0344
 3149TIP3    H1 9400   2.707   3.008   3.728  0.8913  0.7287 -0.9052
 3149TIP3    H2 9401   2.601   3.115   3.731  0.1327  0.2387 -5.6214
 3150TIP3   OH2 9402   7.141   6.295   1.474  0.1441 -0.2611  0.0584
 3150TIP3    H1 9403   7.194   6.283   1.395 -0.0695  0.2012 -0.1525
 3150TIP3    H2 9404   7.075   6.360   1.450  0.0745 -0.1205  0.6128
 3151TIP3   OH2 9405   1.880   4.287   4.579  0.1253  0.1231  0.1983
 3151TIP3    H1 9406   1.792   4.265   4.549  0.0887  1.0063 -0.3891
 3151TIP3    H2 9407   1.883   4.261   4.671 -1.2443  1.4470  0.6298
 3152TIP3   OH2 9408   3.193   3.002   2.245  0.0123 -0.0697 -0.4833
 3152TIP3    H1 9409   3.184   3.091   2.211 -0.3226 -0.2256 -0.8159
 3152TIP3    H2 9410   3.107   2.961   2.227 -0.0782 -0.2306  0.3188
 3153TIP3   OH2 9411   2.673   4.012   4.145  0.1624 -0.5943  0.2000
 3153TIP3    H1 9412   2.620   4.053   4.213 -1.0714 -1.5769 -0.1267
 3153TIP3    H2 9413   2.705   3.931   4.185  0.3160 -0.6457 -0.0260
 3154TIP3   OH2 9414   6.745   2.157   1.914 -0.0214 -0.7592 -0.0161
 3154TIP3    H1 9415   6.676   2.110   1.867  0.2597 -1.0336 -0.1562
 3154TIP3    H2 9416   6.729   2.137   2.006 -0.9907  0.3396  0.0649
 3155TIP3   OH2 9417   1.953   1.798   3.534  0.0874 -0.2155 -0.0324
 3155TIP3    H1 9418   1.886   1.811   3.467 -0.5318 -3.0869 -0.0168
 3155TIP3    H2 9419   2.036   1.802   3.487 -0.2888 -0.8829 -0.7623
 3156TIP3   OH2 9420   0.032   1.963   3.887 -0.0295 -0.1450 -0.1877
 3156TIP3    H1 9421   0.068   1.991   3.803 -1.5955 -0.8787 -1.1141
 3156TIP3    H2 9422   0.049   1.869   3.891  1.6124  0.1548  1.1413
 3157TIP3   OH2 9423   7.350   3.426   2.794 -0.3601  0.1434 -0.1390
 3157TIP3    H1 9424   7.370   3.402   2.884  2.3641 -0.4293 -0.8455
 3157TIP3    H2 9425   7.260   3.457   2.797  0.1137  1.4336  3.0230
 3158TIP3   OH2 9426   0.731   4.258   3.189 -0.5718 -0.1053 -0.2118
 3158TIP3    H1 9427   0.668   4.209   3.242  0.5562  1.2579  2.4632
 3158TIP3    H2 9428   0.801   4.281   3.250  1.7690 -0.2116 -2.7553
 3159TIP3   OH2 9429   7.180   5.019   5.609  0.5441 -0.1874  0.2662
 3159TIP3    H1 9430   7.238   5.083   5.650  1.2167 -1.4600  1.3542
 3159TIP3    H2 9431   7.103   5.017   5.666  0.4475 -0.2007  0.1338
 3160TIP3   OH2 9432   0.334   2.645   2.591  0.0649 -0.3611  0.0631
 3160TIP3    H1 9433   0.374   2.558   2.594 -1.2549 -0.8931  3.9356
 3160TIP3    H2 9434   0.260   2.634   2.531  1.6845 -1.0353 -1.9194
 3161TIP3   OH2 9435   1.209   3.351   4.022 -0.2245  0.0362 -0.1538
 3161TIP3    H1 9436   1.218   3.279   4.085 -0.7292 -0.6673 -0.8763
 3161TIP3    H2 9437   1.127   3.394   4.047  0.2042  0.5257  0.4348
 3162TIP3   OH2 9438   0.707   4.891   3.843 -0.5306  0.2101 -0.3274
 3162TIP3    H1 9439   0.664   4.929   3.767  0.3133 -0.1693 -1.0124
 3162TIP3    H2 9440   0.711   4.962   3.907 -0.3335  0.8272 -1.0195
 3163TIP3   OH2 9441   0.430   5.288   4.505 -0.1192 -0.0378 -0.2627
 3163TIP3    H1 9442   0.460   5.367   4.458 -1.4511  1.7509  1.8169
 3163TIP3    H2 9443   0.511   5.242   4.527  0.7986  1.5991 -0.0792
 3164TIP3   OH2 9444   7.549   3.939   2.732  0.1120  0.5063  0.5047
 3164TIP3    H1 9445   7.478   4.001   2.746  0.2435  0.8463 -0.3095
 3164TIP3    H2 9446   7.506   3.853   2.731 -0.4787  0.7993 -1.2427
 3165TIP3   OH2 9447   2.191   2.958   2.672  0.1835 -0.3221 -0.0290
 3165TIP3    H1 9448   2.225   2.981   2.759  1.3246  0.7942 -0.7438
 3165TIP3    H2 9449   2.218   2.867   2.659  0.3603 -0.3648  0.6210
 3166TIP3   OH2 9450   7.143   4.242   3.348  0.5578  0.2106  0.6327
 3166TIP3    H1 9451   7.224   4.285   3.324 -0.2012  0.9293 -0.7085
 3166TIP3    H2 9452   7.074   4.304   3.324 -0.5817 -1.9023 -1.8310
 3167TIP3   OH2 9453   0.277   2.764   3.515 -0.0441 -0.2371 -0.0619
 3167TIP3    H1 9454   0.327   2.833   3.559  4.1127 -1.6190 -2.3428
 3167TIP3    H2 9455   0.288   2.687   3.571 -0.6083 -0.2495  0.0322
 3168TIP3   OH2 9456   2.825   1.532   5.149  0.1739 -0.0325  0.2529
 3168TIP3    H1 9457   2.732   1.517   5.167  0.4233 -1.1408  0.7066
 3168TIP3    H2 9458   2.827   1.601   5.083 -0.9075  1.4777  1.7415
 3169TIP3   OH2 9459   0.097   3.832   4.306  0.1848 -0.2695 -0.4268
 3169TIP3    H1 9460   0.191   3.816   4.306  0.1049 -0.7380  0.1963
 3169TIP3    H2 9461   0.069   3.817   4.396  0.0184  2.8818  0.1006
 3170TIP3   OH2 9462   1.160   4.015   4.003 -0.1238  0.8750 -0.4479
 3170TIP3    H1 9463   1.183   4.102   3.970 -1.2649  0.9657 -1.0550
 3170TIP3    H2 9464   1.064   4.014   4.002 -0.1195 -0.6762 -1.2286
 3171TIP3   OH2 9465   6.675   3.071   3.312 -0.0105  0.1170  0.2700
 3171TIP3    H1 9466   6.581   3.054   3.321 -0.0672  0.1894 -0.1458
 3171TIP3    H2 9467   6.712   2.986   3.288 -0.0493  0.2046 -0.1082
 3172TIP3   OH2 9468   2.027   1.774   2.480  0.4316 -0.0789  0.2936
 3172TIP3    H1 9469   2.119   1.752   2.496  0.9581  1.6256 -0.3259
 3172TIP3    H2 9470   1.997   1.707   2.419  1.2971 -0.5879  0.4172
 3173TIP3   OH2 9471   1.941   4.143   2.822  0.2711  0.2573 -0.2516
 3173TIP3    H1 9472   1.850   4.174   2.821  0.5406  1.0692 -1.4433
 3173TIP3    H2 9473   1.980   4.186   2.898  0.0764  1.2077 -0.6743
 3174TIP3   OH2 9474   6.607   0.620   3.077  0.3577 -0.2197  0.3745
 3174TIP3    H1 9475   6.686   0.573   3.051 -0.5824 -0.7295 -1.6290
 3174TIP3    H2 9476   6.535   0.563   3.052 -0.6923  0.5984  1.4430
 3175TIP3   OH2 9477   7.675   2.119   2.431 -0.1039 -0.4700 -0.6660
 3175TIP3    H1 9478   7.737   2.188   2.451 -0.7192  0.1125 -0.7396
 3175TIP3    H2 9479   7.729   2.041   2.416  0.4799 -0.4760  1.3558
 3176TIP3   OH2 9480   6.642   1.046   1.795  0.4120 -0.2095  0.4427
 3176TIP3    H1 9481   6.715   1.036   1.857  0.2225 -0.9925  0.5437
 3176TIP3    H2 9482   6.668   0.995   1.719  1.6567  2.5702 -1.0690
 3177TIP3   OH2 9483   1.666   6.343   0.567 -0.0754 -0.1411 -0.0819
 3177TIP3    H1 9484   1.660   6.408   0.498  1.1802  0.1004  0.0271
 3177TIP3    H2 9485   1.758   6.340   0.590  0.1885 -3.1374 -1.2256
 3178TIP3   OH2 9486   1.143   4.530   1.218  0.0142 -0.6671  0.0648
 3178TIP3    H1 9487   1.091   4.585   1.276  1.5505 -0.3982  1.2199
 3178TIP3    H2 9488   1.080   4.470   1.178 -1.3104  0.2945  0.6899
 3179TIP3   OH2 9489   0.829   3.141   2.772  0.3254  0.3272  0.2700
 3179TIP3    H1 9490   0.750   3.194   2.784  0.5229  0.8494 -0.6932
 3179TIP3    H2 9491   0.805   3.054   2.805 -0.7437  0.4132 -0.2461
 3180TIP3   OH2 9492   3.191   4.661   0.312  0.1563 -0.5767 -0.4003
 3180TIP3    H1 9493   3.128   4.637   0.380 -0.2771  0.9742 -0.2390
 3180TIP3    H2 9494   3.271   4.615   0.336  0.4561  1.0947  2.0270
 3181TIP3   OH2 9495   2.709   4.896   5.907  0.2341  0.1088 -0.5079
 3181TIP3    H1 9496   2.648   4.865   5.973 -0.6717 -0.1859 -1.4761
 3181TIP3    H2 9497   2.793   4.904   5.953 -0.8056  1.7994  1.1494
 3182TIP3   OH2 9498   0.494   2.071   4.523  0.1885 -0.2816  0.5516
 3182TIP3    H1 9499   0.542   2.020   4.588 -0.4524 -0.0775  1.1801
 3182TIP3    H2 9500   0.555   2.141   4.498  0.9382 -1.1443 -0.0665
 3183TIP3   OH2 9501   7.717   3.541   3.607 -0.4691 -0.0349  0.1034
 3183TIP3    H1 9502   7.624   3.559   3.601 -0.5466 -0.1429  0.9308
 3183TIP3    H2 9503   7.728   3.497   3.692  0.6790  2.2041  1.1566
 3184TIP3   OH2 9504   2.726   4.502   4.029  0.0949 -0.0977 -0.2070
 3184TIP3    H1 9505   2.673   4.423   4.039  1.0801 -0.4144  3.1069
 3184TIP3    H2 9506   2.815   4.474   4.051  1.1907  1.0634 -2.9659
 3185TIP3   OH2 9507   1.734   2.847   5.758 -0.7016 -0.0610  0.5358
 3185TIP3    H1 9508   1.783   2.891   5.827 -0.2180 -1.7244  1.2705
 3185TIP3    H2 9509   1.772   2.881   5.676  1.9151 -1.5722  1.0883
 3186TIP3   OH2 9510   3.972   3.762   2.343 -0.2147 -0.4384 -0.4106
 3186TIP3    H1 9511   3.891   3.731   2.384 -0.4248 -1.0518 -1.2708
 3186TIP3    H2 9512   4.010   3.822   2.407 -0.0616 -2.0937  1.0935
 3187TIP3   OH2 9513   7.806   4.143   5.028  0.1249 -0.6403 -0.2199
 3187TIP3    H1 9514   7.771   4.069   4.979  0.8235 -1.5154  0.5865
 3187TIP3    H2 9515   7.884   4.108   5.072  0.3451  0.5160  0.3171
 3188TIP3   OH2 9516   6.075   4.362   1.055  0.2983  0.3788  0.0255
 3188TIP3    H1 9517   6.089   4.432   1.119  2.0196  1.2060 -1.2037
 3188TIP3    H2 9518   6.020   4.401   0.987 -0.5806 -0.1532  0.4198
 3189TIP3   OH2 9519   1.604   6.752   3.092 -0.1494  0.5352 -0.1152
 3189TIP3    H1 9520   1.577   6.661   3.104 -0.6252  0.4799 -1.4699
 3189TIP3    H2 9521   1.694   6.756   3.125 -0.7320 -0.0138  1.5540
 3190TIP3   OH2 9522   1.767   2.812   2.687  0.1307 -0.4518 -0.2277
 3190TIP3    H1 9523   1.790   2.855   2.770  1.0300 -1.1295 -0.1198
 3190TIP3    H2 9524   1.674   2.791   2.695 -0.1316  0.7632  0.0358
 3191TIP3   OH2 9525   3.237   2.611   2.794 -0.1913  0.1531 -0.5919
 3191TIP3    H1 9526   3.194   2.527   2.785  0.0126 -0.0066 -0.0875
 3191TIP3    H2 9527   3.269   2.613   2.884 -0.4948  0.9124 -0.4916
 3192TIP3   OH2 9528   4.094   2.342   2.539  0.0020  0.4962 -0.5017
 3192TIP3    H1 9529   4.069   2.420   2.489 -0.0785  1.2570  0.6858
 3192TIP3    H2 9530   4.029   2.276   2.516 -0.8296  1.2572 -0.3750
 3193TIP3   OH2 9531   4.627   2.332   3.080 -0.8617 -0.0814 -0.5562
 3193TIP3    H1 9532   4.578   2.272   3.022 -0.1452 -0.3530 -0.8846
 3193TIP3    H2 9533   4.718   2.323   3.052 -0.5654  0.1047  0.3453
 3194TIP3   OH2 9534   1.558   2.102   4.197  0.0832  0.6758  0.0134
 3194TIP3    H1 9535   1.603   2.038   4.251  0.6110 -0.7260 -2.0037
 3194TIP3    H2 9536   1.465   2.084   4.211  0.2180 -1.3917 -1.4477
 3195TIP3   OH2 9537   2.410   1.388   0.480 -0.2815 -0.0495  0.9061
 3195TIP3    H1 9538   2.424   1.293   0.477 -1.1153 -0.1537  0.2395
 3195TIP3    H2 9539   2.496   1.425   0.459 -0.3969 -0.6822 -0.7645
 3196TIP3   OH2 9540   2.323   4.488   2.872 -0.0940 -0.0068  0.0649
 3196TIP3    H1 9541   2.275   4.531   2.802  0.9791  0.2081 -0.5447
 3196TIP3    H2 9542   2.416   4.501   2.850  0.2801 -3.2802 -0.5688
 3197TIP3   OH2 9543   0.127   2.963   2.658  1.0550 -0.2892  0.2032
 3197TIP3    H1 9544   0.113   2.962   2.752 -0.6847  1.3046  0.0079
 3197TIP3    H2 9545   0.128   2.871   2.632  0.6110 -0.7110  1.6510
 3198TIP3   OH2 9546   1.302   3.432   2.734 -0.0292 -0.5279  0.3314
 3198TIP3    H1 9547   1.231   3.387   2.780 -0.4588 -0.5113 -0.3026
 3198TIP3    H2 9548   1.381   3.408   2.782 -0.4294 -0.8020  0.8555
 3199TIP3   OH2 9549   1.288   3.619   4.599  0.3755  0.1266 -0.5865
 3199TIP3    H1 9550   1.201   3.602   4.635 -0.1103  1.3279 -1.1875
 3199TIP3    H2 9551   1.337   3.537   4.615 -0.8969 -0.6091 -0.3998
 3200TIP3   OH2 9552   3.454   5.803   4.208  0.3779  0.5892  0.2615
 3200TIP3    H1 9553   3.449   5.750   4.289 -0.6151  0.0718 -0.1199
 3200TIP3    H2 9554   3.525   5.864   4.224 -0.2478  0.9566  1.8236
 3201TIP3   OH2 9555   1.954   3.921   4.279 -0.0426  0.4892 -0.1836
 3201TIP3    H1 9556   1.998   3.892   4.359  1.0667 -0.0460 -0.9746
 3201TIP3    H2 9557   1.861   3.927   4.303  0.1401 -0.6791  0.8470
 3202TIP3   OH2 9558   2.782   2.658   1.043 -0.0728 -0.2218  0.1523
 3202TIP3    H1 9559   2.811   2.748   1.023  0.9557 -0.2679  1.3506
 3202TIP3    H2 9560   2.784   2.613   0.959 -0.5821  0.8738 -0.4629
 3203TIP3   OH2 9561   4.197   2.452   3.320  0.1320 -0.2115  0.1945
 3203TIP3    H1 9562   4.267   2.484   3.263 -0.0275 -0.0320  0.1029
 3203TIP3    H2 9563   4.122   2.508   3.301 -0.0615 -0.4536  0.2375
 3204TIP3   OH2 9564   1.651   4.796   2.778 -0.5222 -0.1990 -0.8007
 3204TIP3    H1 9565   1.738   4.833   2.763 -1.0788  0.5135 -2.3974
 3204TIP3    H2 9566   1.615   4.848   2.850  0.1587 -0.1461 -0.4932
 3205TIP3   OH2 9567   2.072   5.013   1.380  0.0333  0.0187  0.0600
 3205TIP3    H1 9568   2.000   4.992   1.440  0.7091  0.7299  1.1355
 3205TIP3    H2 9569   2.130   4.937   1.385 -1.2212 -1.0726 -1.7107
 3206TIP3   OH2 9570   3.289   2.991   2.502 -0.2394  0.3640  0.0034
 3206TIP3    H1 9571   3.214   2.948   2.544 -0.1696 -0.2939 -0.5402
 3206TIP3    H2 9572   3.258   3.013   2.414 -1.0870  3.6478  1.0436
 3207TIP3   OH2 9573   5.058   4.405   1.484  0.0597  0.3546 -0.4997
 3207TIP3    H1 9574   4.965   4.396   1.504  0.4806  0.3605  1.5706
 3207TIP3    H2 9575   5.065   4.384   1.390 -2.0649  0.7568 -0.7646
 3208TIP3   OH2 9576   2.643   4.025   1.571 -0.1702 -0.1031 -0.0966
 3208TIP3    H1 9577   2.721   3.972   1.585 -0.0123  0.5116  1.4493
 3208TIP3    H2 9578   2.582   3.997   1.639 -0.9951 -0.0100 -0.7918
 3209TIP3   OH2 9579   7.864   4.336   0.759 -0.4091 -0.7721  0.5963
 3209TIP3    H1 9580   7.947   4.334   0.806 -0.9062 -0.5560  1.4947
 3209TIP3    H2 9581   7.860   4.424   0.722  1.1077 -1.7184 -1.9264
 3210TIP3   OH2 9582   4.858   3.068   3.402  0.0864 -0.1408 -0.0159
 3210TIP3    H1 9583   4.823   3.109   3.481  0.3589 -0.0458  0.0563
 3210TIP3    H2 9584   4.781   3.054   3.346 -0.4322 -2.3374  1.1996
 3211TIP3   OH2 9585   2.981   3.926   0.543  0.3540 -0.0310 -0.1944
 3211TIP3    H1 9586   2.971   3.831   0.536 -1.9929  0.2001 -0.5802
 3211TIP3    H2 9587   2.896   3.956   0.578  0.5914  2.0389 -1.3050
 3212TIP3   OH2 9588   1.064   3.584   2.659  0.7327  0.0296  0.5089
 3212TIP3    H1 9589   1.141   3.533   2.686  1.4760  1.5490  1.3144
 3212TIP3    H2 9590   1.099   3.669   2.634 -0.5430  0.2693 -0.5072
 3213TIP3   OH2 9591   4.650   3.536   4.200 -0.1276 -0.6251 -0.4010
 3213TIP3    H1 9592   4.592   3.540   4.124 -0.9287 -0.1515  0.2183
 3213TIP3    H2 9593   4.601   3.485   4.265  1.2974 -2.5634 -0.8223
 3214TIP3   OH2 9594   1.096   5.649   3.375 -0.1315 -0.2080  0.6275
 3214TIP3    H1 9595   1.126   5.733   3.340 -0.9165 -0.3483 -0.4150
 3214TIP3    H2 9596   1.037   5.672   3.447 -1.4625  0.1879 -0.5596
 3215TIP3   OH2 9597   4.231   4.257   1.780 -0.2116  0.4021 -0.4256
 3215TIP3    H1 9598   4.265   4.299   1.859  0.5699 -0.0088 -0.5382
 3215TIP3    H2 9599   4.227   4.164   1.802 -1.3904  0.4684 -0.3710
 3216TIP3   OH2 9600   2.301   4.649   3.104  0.6764  0.2450  0.4709
 3216TIP3    H1 9601   2.289   4.584   3.034  0.6464  1.7379 -0.9340
 3216TIP3    H2 9602   2.395   4.644   3.125  0.3756 -1.3809  1.5126
 3217TIP3   OH2 9603   2.983   3.925   2.784  0.1693 -0.5875 -0.3334
 3217TIP3    H1 9604   3.032   3.885   2.711  1.1789  0.4001 -0.1983
 3217TIP3    H2 9605   2.915   3.977   2.741  2.3210  2.0312 -0.6719
 3218TIP3   OH2 9606   3.702   3.276   3.094 -0.2953  0.0455  0.0049
 3218TIP3    H1 9607   3.668   3.209   3.153  0.2874  1.0114  1.4525
 3218TIP3    H2 9608   3.789   3.296   3.128  0.2003  0.3702 -1.3955
 3219TIP3   OH2 9609   0.763   3.572   4.681  0.2574  0.1162 -0.1931
 3219TIP3    H1 9610   0.807   3.512   4.621  1.5254  1.3255 -0.4957
 3219TIP3    H2 9611   0.750   3.652   4.630 -2.7213 -0.3639 -0.2468
 3220TIP3   OH2 9612   1.988   4.060   1.072  0.3241  0.1917  0.3718
 3220TIP3    H1 9613   1.974   4.131   1.010 -2.4404  0.2551  1.0372
 3220TIP3    H2 9614   2.074   4.025   1.048  0.6265  2.1251 -1.5529
 3221TIP3   OH2 9615   1.638   4.366   3.173 -0.4826 -0.0246  0.2661
 3221TIP3    H1 9616   1.642   4.404   3.085 -0.1525  1.1665  0.7974
 3221TIP3    H2 9617   1.728   4.339   3.191 -0.3276  0.7681  0.6940
 3222TIP3   OH2 9618   2.622   3.223   0.800 -0.0099  0.0556 -0.2987
 3222TIP3    H1 9619   2.606   3.129   0.811 -1.0687 -0.0992 -2.8001
 3222TIP3    H2 9620   2.537   3.259   0.775  0.2133  1.8406  1.3765
 3223TIP3   OH2 9621   1.434   5.665   3.171  0.0141  0.3252 -0.4944
 3223TIP3    H1 9622   1.395   5.691   3.087  1.3238 -1.0605 -1.5636
 3223TIP3    H2 9623   1.461   5.748   3.211  1.0517  0.8963 -2.2974
 3224TIP3   OH2 9624   4.800   3.397   2.304 -0.7304 -0.2358 -0.7493
 3224TIP3    H1 9625   4.790   3.309   2.342  0.1013  0.8552  2.1110
 3224TIP3    H2 9626   4.788   3.456   2.378  0.7851  2.0125 -2.2585
 3225TIP3   OH2 9627   1.030   5.582   3.916 -0.0017  0.4190 -0.6968
 3225TIP3    H1 9628   1.027   5.537   4.001 -1.4493  1.9964  0.1165
 3225TIP3    H2 9629   1.103   5.644   3.925 -0.6674  1.1596 -0.2825
 3226TIP3   OH2 9630   3.867   3.411   2.785  0.0697  0.4182 -0.5353
 3226TIP3    H1 9631   3.914   3.396   2.867  1.6055 -0.0521 -1.4813
 3226TIP3    H2 9632   3.869   3.327   2.741  1.1031  1.1981 -1.9972
 3227TIP3   OH2 9633   0.514   6.828   1.830  0.2340  0.0874  0.2175
 3227TIP3    H1 9634   0.444   6.809   1.892  0.0865  0.7193  0.2439
 3227TIP3    H2 9635   0.506   6.922   1.811  0.4622 -0.0379 -0.5271
 3228TIP3   OH2 9636   3.661   3.551   3.852  0.4053 -0.1105 -0.1896
 3228TIP3    H1 9637   3.661   3.607   3.774  1.6348 -0.8462 -0.7275
 3228TIP3    H2 9638   3.569   3.530   3.866  0.1636  0.1000 -1.3861
 3229TIP3   OH2 9639   0.780   3.882   5.160  0.0463 -0.2979  0.2946
 3229TIP3    H1 9640   0.772   3.814   5.093  1.6737  0.5916 -0.8304
 3229TIP3    H2 9641   0.701   3.934   5.151  1.4184  1.4072 -2.7779
 3230TIP3   OH2 9642   7.543   4.077   3.092 -0.2101 -0.6321 -0.0182
 3230TIP3    H1 9643   7.544   4.168   3.063 -0.5091 -0.8044 -0.5730
 3230TIP3    H2 9644   7.454   4.048   3.075  0.4760 -1.6924 -1.9352
 3231TIP3   OH2 9645   3.562   3.806   3.681  0.2403  0.1911  0.3828
 3231TIP3    H1 9646   3.554   3.890   3.637  0.2792 -0.0720 -0.1340
 3231TIP3    H2 9647   3.610   3.825   3.762  0.2098  0.6656  0.2908
 3232TIP3   OH2 9648   1.098   4.631   3.365 -0.2704 -0.0316 -0.4484
 3232TIP3    H1 9649   1.080   4.653   3.274  0.0597 -0.8228 -0.7090
 3232TIP3    H2 9650   1.193   4.636   3.372 -0.3113  0.2530 -0.0887
 3233TIP3   OH2 9651   2.617   4.591   1.762  0.2351 -0.1309 -0.6068
 3233TIP3    H1 9652   2.536   4.608   1.811  0.9367 -2.2844  1.4128
 3233TIP3    H2 9653   2.594   4.608   1.671 -2.3025 -0.0045  0.0130
 3234TIP3   OH2 9654   0.817   4.872   2.264 -0.1071  0.1654  0.5306
 3234TIP3    H1 9655   0.902   4.839   2.234  0.3939  1.7627  0.1549
 3234TIP3    H2 9656   0.805   4.955   2.218 -2.1710 -0.3324  0.1116
 3235TIP3   OH2 9657   2.242   4.698   3.371 -0.1716  0.5228 -0.1354
 3235TIP3    H1 9658   2.290   4.620   3.397  0.0063  1.0188  1.0467
 3235TIP3    H2 9659   2.236   4.692   3.276  0.7971 -0.3747 -0.1446
 3236TIP3   OH2 9660   3.339   4.797   1.913  0.4902 -0.1668 -0.3996
 3236TIP3    H1 9661   3.341   4.703   1.933  1.2111 -0.1134 -0.2036
 3236TIP3    H2 9662   3.257   4.828   1.950  0.4367 -0.6480 -0.1114
 3237TIP3   OH2 9663   3.714   3.568   0.952  0.0376  0.1933  0.7790
 3237TIP3    H1 9664   3.686   3.590   1.041  0.7265  0.7174  0.8675
 3237TIP3    H2 9665   3.712   3.651   0.905  1.4225  0.2330  0.7771
 3238TIP3   OH2 9666   3.931   5.708   2.505  0.2428  0.0889 -0.0369
 3238TIP3    H1 9667   3.880   5.655   2.566 -0.1547 -0.5258 -0.8896
 3238TIP3    H2 9668   4.013   5.727   2.551 -0.0325 -0.4158  0.6579
 3239TIP3   OH2 9669   2.332   3.114   2.444  0.0160 -0.5478 -0.1690
 3239TIP3    H1 9670   2.272   3.105   2.518 -1.4753  1.5856 -1.0301
 3239TIP3    H2 9671   2.357   3.025   2.422 -0.2791 -1.2781  2.2712
 3240TIP3   OH2 9672   2.390   4.527   1.965 -0.4535  0.5065 -0.7090
 3240TIP3    H1 9673   2.428   4.514   2.052 -1.0241  0.2218 -0.4940
 3240TIP3    H2 9674   2.326   4.457   1.957 -0.6071  0.7072 -1.2450
 3241TIP3   OH2 9675   4.513   2.167   2.916 -0.7608 -0.4965 -0.1505
 3241TIP3    H1 9676   4.522   2.098   2.850 -3.6564 -1.8228  0.7298
 3241TIP3    H2 9677   4.427   2.150   2.955 -0.6771  2.4941  1.4072
 3242TIP3   OH2 9678   2.945   3.839   3.470  0.1229 -0.0828 -0.8105
 3242TIP3    H1 9679   2.935   3.775   3.540  1.6551 -0.6062 -1.0594
 3242TIP3    H2 9680   2.919   3.923   3.509 -2.0955 -0.8680 -0.5419
 3243TIP3   OH2 9681   1.177   2.584   0.799  0.7870  0.0619  0.0681
 3243TIP3    H1 9682   1.153   2.551   0.712  0.7508 -0.0670  0.1266
 3243TIP3    H2 9683   1.094   2.617   0.835 -0.1009 -3.7592  1.7561
 3244TIP3   OH2 9684   0.556   2.517   4.629  0.2087 -0.1296  0.3050
 3244TIP3    H1 9685   0.526   2.448   4.688 -0.0974 -0.1982  0.0731
 3244TIP3    H2 9686   0.651   2.514   4.634  0.1764  0.1781  1.1581
 3245TIP3   OH2 9687   1.005   3.246   2.120 -0.1949  0.0775 -0.8134
 3245TIP3    H1 9688   1.060   3.297   2.179 -0.2920 -0.6440 -0.1114
 3245TIP3    H2 9689   1.026   3.155   2.139  1.0909 -0.1503 -3.1267
 3246TIP3   OH2 9690   2.622   3.942   2.289 -0.2093 -0.1185 -0.4024
 3246TIP3    H1 9691   2.620   3.890   2.369 -0.6527 -1.0756 -1.0123
 3246TIP3    H2 9692   2.579   4.024   2.312  1.5150  0.4502  0.8843
 3247TIP3   OH2 9693   2.070   5.197   1.824  0.1158  0.0593 -0.4598
 3247TIP3    H1 9694   2.085   5.271   1.884 -2.2730 -0.5276  0.9499
 3247TIP3    H2 9695   1.993   5.153   1.860 -1.0035 -0.7145 -3.6298
 3248TIP3   OH2 9696   3.993   1.031   2.331 -0.7270 -0.2854 -0.4672
 3248TIP3    H1 9697   4.049   0.954   2.337 -0.5305 -0.0240  1.1002
 3248TIP3    H2 9698   3.941   1.031   2.411 -0.3542  1.5005 -0.1946
 3249TIP3   OH2 9699   0.861   3.756   2.362 -0.0674 -0.1182  0.3098
 3249TIP3    H1 9700   0.808   3.684   2.396 -1.1154  0.4471 -0.1090
 3249TIP3    H2 9701   0.894   3.724   2.278  1.7561 -1.1565  1.3875
 3250TIP3   OH2 9702   0.720   4.562   0.721  0.4548  0.0758 -0.2494
 3250TIP3    H1 9703   0.693   4.506   0.649  0.3264 -0.5112  0.2506
 3250TIP3    H2 9704   0.673   4.644   0.707  1.9357  0.6733 -1.9252
 3251TIP3   OH2 9705   0.386   2.734   1.769  0.0219 -0.0992  0.4846
 3251TIP3    H1 9706   0.313   2.781   1.810  0.9321  0.6501  1.2811
 3251TIP3    H2 9707   0.443   2.803   1.736  0.1683 -0.6860 -0.4975
 3252TIP3   OH2 9708   2.026   5.569   1.381 -0.4975  0.0958 -0.3369
 3252TIP3    H1 9709   1.985   5.576   1.295 -0.8312 -0.4978 -0.2303
 3252TIP3    H2 9710   2.035   5.475   1.395 -0.9551  0.1722  0.5139
 3253TIP3   OH2 9711   0.788   5.117   2.118 -0.8147  0.2957  0.1827
 3253TIP3    H1 9712   0.814   5.109   2.026  0.2458  0.7399  0.4376
 3253TIP3    H2 9713   0.794   5.210   2.136  1.2879 -0.0576  1.3643
 3254TIP3   OH2 9714   3.986   2.121   3.600  0.4377 -0.0633 -0.0959
 3254TIP3    H1 9715   3.921   2.056   3.628 -0.5469 -0.0158 -2.1484
 3254TIP3    H2 9716   3.945   2.206   3.619  0.1697 -0.0387 -0.7586
 3255TIP3   OH2 9717   0.479   4.611   3.792  0.3013 -0.4421 -0.0940
 3255TIP3    H1 9718   0.450   4.528   3.756 -0.2029 -0.7087  0.9193
 3255TIP3    H2 9719   0.530   4.652   3.721 -0.4336 -1.0845 -0.9941
 3256TIP3   OH2 9720   3.163   2.088   2.388 -0.1183 -0.0265  0.5082
 3256TIP3    H1 9721   3.087   2.144   2.375 -0.7400 -0.9292  0.2517
 3256TIP3    H2 9722   3.235   2.135   2.344 -0.5973  0.6460  0.4378
 3257TIP3   OH2 9723   5.107   3.782   2.928  0.1437 -0.3064  0.2112
 3257TIP3    H1 9724   5.077   3.767   2.839 -0.4970 -0.7801  0.4996
 3257TIP3    H2 9725   5.138   3.873   2.929  0.7848 -0.5079 -0.6583
 3258TIP3   OH2 9726   7.368   4.447   2.884  0.5679  0.4195  0.0561
 3258TIP3    H1 9727   7.299   4.381   2.881  0.6878  0.3248 -1.1037
 3258TIP3    H2 9728   7.342   4.508   2.953  0.0606 -0.4096  0.5959
 3259TIP3   OH2 9729   3.459   5.223   1.961  0.3209 -0.2529 -0.5702
 3259TIP3    H1 9730   3.397   5.174   2.014 -0.1762  0.4617 -0.4858
 3259TIP3    H2 9731   3.545   5.204   2.000 -0.0390  0.2867  0.4965
 3260TIP3   OH2 9732   1.367   3.486   5.483  0.1357 -0.1681  0.2655
 3260TIP3    H1 9733   1.443   3.512   5.432  0.8245 -3.2864 -0.3857
 3260TIP3    H2 9734   1.402   3.458   5.567 -0.7087  2.1131  1.4014
 3261TIP3   OH2 9735   1.415   3.749   2.644  0.1317 -0.7040  0.2795
 3261TIP3    H1 9736   1.331   3.785   2.613 -0.0845 -2.3699 -1.1607
 3261TIP3    H2 9737   1.407   3.747   2.739 -1.0283  0.2021  0.2101
 3262TIP3   OH2 9738   0.615   4.244   1.087 -0.1132  0.0551 -0.2686
 3262TIP3    H1 9739   0.564   4.254   1.167  1.1170 -0.6403  0.6212
 3262TIP3    H2 9740   0.642   4.333   1.064 -1.7358  0.4268 -0.7670
 3263TIP3   OH2 9741   2.182   3.293   3.281  0.1490 -0.5586 -0.9938
 3263TIP3    H1 9742   2.120   3.354   3.321  1.5131  0.9517 -1.0952
 3263TIP3    H2 9743   2.135   3.257   3.206 -0.4876  0.8472 -1.2894
 3264TIP3   OH2 9744   0.538   2.987   1.733  0.3045  0.2688 -0.0441
 3264TIP3    H1 9745   0.632   2.984   1.719  0.3971 -1.1225  0.8116
 3264TIP3    H2 9746   0.527   3.029   1.818  0.1409  0.5995 -0.2262
 3265TIP3   OH2 9747   1.926   4.488   3.271  0.4919 -0.3605  0.1065
 3265TIP3    H1 9748   1.964   4.401   3.287 -1.1273 -1.2555 -0.7813
 3265TIP3    H2 9749   1.908   4.522   3.359 -1.0860 -1.9428  0.4223
 3266TIP3   OH2 9750   2.518   3.096   4.224  0.3326 -0.2427  0.0823
 3266TIP3    H1 9751   2.519   3.004   4.198 -1.0574 -0.2167 -0.0901
 3266TIP3    H2 9752   2.499   3.094   4.318 -2.5274 -0.0575 -0.4383
 3267TIP3   OH2 9753   1.620   4.726   3.920  0.2862 -0.5667  0.4745
 3267TIP3    H1 9754   1.679   4.661   3.881 -0.2945 -0.9463  0.2268
 3267TIP3    H2 9755   1.669   4.808   3.916  0.9286 -0.9455  0.5672
 3268TIP3   OH2 9756   2.009   3.138   2.599 -0.5356 -0.5189  0.1975
 3268TIP3    H1 9757   1.937   3.098   2.647 -0.0023  1.1204  2.4833
 3268TIP3    H2 9758   2.086   3.086   2.623 -0.4568 -0.3514  0.3198
 3269TIP3   OH2 9759   7.716   3.952   2.441  0.5683 -0.6401 -0.1218
 3269TIP3    H1 9760   7.747   3.939   2.531  0.2729 -1.0645 -0.0799
 3269TIP3    H2 9761   7.652   3.882   2.427  0.1745 -0.2157 -0.4621
 3270TIP3   OH2 9762   2.944   3.241   2.845 -0.2024  0.2736  0.7059
 3270TIP3    H1 9763   2.936   3.146   2.833  0.3099  0.0763  1.8822
 3270TIP3    H2 9764   2.854   3.273   2.839 -0.2869 -0.1681 -0.6143
 3271TIP3   OH2 9765   3.240   4.263   3.226 -0.0984 -0.1744  0.4180
 3271TIP3    H1 9766   3.192   4.247   3.145  1.0429  0.8862 -0.4902
 3271TIP3    H2 9767   3.238   4.358   3.237 -1.2018 -0.3829  2.2514
 3272TIP3   OH2 9768   3.417   2.064   4.852 -0.2111 -0.3177  0.3133
 3272TIP3    H1 9769   3.398   2.027   4.766 -0.7811 -0.7521  0.6256
 3272TIP3    H2 9770   3.332   2.071   4.895 -0.1715  1.6474  0.1528
 3273TIP3   OH2 9771   4.322   4.297   2.796  0.2789  0.0488  0.2351
 3273TIP3    H1 9772   4.336   4.389   2.777 -1.9642  0.4866  0.5289
 3273TIP3    H2 9773   4.276   4.263   2.719 -1.4064 -0.1339  1.2920
 3274TIP3   OH2 9774   3.056   1.477   3.039  0.0656 -0.5335 -0.1885
 3274TIP3    H1 9775   3.068   1.516   3.125 -0.9145 -0.0728 -0.2453
 3274TIP3    H2 9776   3.093   1.540   2.978  0.7174 -0.8383 -0.1095
 3275TIP3   OH2 9777   2.876   3.785   1.481 -0.4877  0.9586 -0.0123
 3275TIP3    H1 9778   2.858   3.724   1.409  1.4753  0.7071 -0.3181
 3275TIP3    H2 9779   2.865   3.732   1.560 -1.8035  1.0145 -0.1385
 3276TIP3   OH2 9780   3.020   3.544   1.281 -0.1329  0.3427  0.4140
 3276TIP3    H1 9781   3.090   3.610   1.291 -0.1835  0.2188  1.6345
 3276TIP3    H2 9782   3.038   3.504   1.196  1.2876  0.3224  0.6983
 3277TIP3   OH2 9783   2.126   3.956   3.307 -0.3709  0.3010 -0.0072
 3277TIP3    H1 9784   2.031   3.950   3.322 -0.5434 -2.2453 -1.8378
 3277TIP3    H2 9785   2.164   3.931   3.391 -1.2920  2.4088  1.0798
 3278TIP3   OH2 9786   7.567   2.809   2.470  0.0157  0.9645 -0.2480
 3278TIP3    H1 9787   7.574   2.810   2.565  1.6080 -0.8958 -0.3191
 3278TIP3    H2 9788   7.489   2.756   2.452  0.6901 -0.1072 -0.0166
 3279TIP3   OH2 9789   1.354   5.119   2.034 -0.2588 -0.0554 -0.5554
 3279TIP3    H1 9790   1.363   5.073   1.951  1.1033  1.1175 -1.0776
 3279TIP3    H2 9791   1.411   5.071   2.094  0.2198  0.2214 -0.7871
 3280TIP3   OH2 9792   0.531   3.151   1.999  0.5444  0.0851 -0.0817
 3280TIP3    H1 9793   0.485   3.231   2.023  0.1562 -0.4413  0.9854
 3280TIP3    H2 9794   0.624   3.174   2.003  0.4077  0.8384 -1.1016
 3281TIP3   OH2 9795   1.171   5.611   2.127  0.2715 -0.0956 -0.0870
 3281TIP3    H1 9796   1.163   5.679   2.194  0.2082  0.6952 -0.8754
 3281TIP3    H2 9797   1.219   5.540   2.169 -0.9020 -0.1420  1.1839
 3282TIP3   OH2 9798   1.732   4.548   2.943  0.3345  0.4827  0.5761
 3282TIP3    H1 9799   1.725   4.606   2.867  0.5809  2.8856  2.3287
 3282TIP3    H2 9800   1.810   4.579   2.990  0.8108 -1.6573  1.2371
 3283TIP3   OH2 9801   2.719   6.847   2.704  0.3007  0.0548  0.2925
 3283TIP3    H1 9802   2.773   6.778   2.740  0.1030 -0.2535  0.0065
 3283TIP3    H2 9803   2.708   6.910   2.775 -0.4827 -0.7725  0.9225
 3284TIP3   OH2 9804   1.442   4.106   1.126  0.3542  0.0995 -0.2629
 3284TIP3    H1 9805   1.514   4.140   1.179  0.2815  0.2700 -0.2730
 3284TIP3    H2 9806   1.384   4.063   1.188  0.4669 -0.0420 -0.2553
 3285TIP3   OH2 9807   0.784   3.444   3.304  0.4040  0.1979  0.0182
 3285TIP3    H1 9808   0.691   3.460   3.316  0.2302  0.3314 -1.4453
 3285TIP3    H2 9809   0.797   3.353   3.332  0.0303  0.4952  1.1751
 3286TIP3   OH2 9810   2.930   6.085   1.927  0.1948  0.2220  0.2375
 3286TIP3    H1 9811   2.926   6.175   1.894 -1.4852  0.3905  0.8601
 3286TIP3    H2 9812   2.916   6.093   2.021 -2.5429 -0.8776 -0.0325
 3287TIP3   OH2 9813   1.716   2.982   2.451  0.2239 -1.0561  0.0093
 3287TIP3    H1 9814   1.700   2.977   2.545 -1.6819 -0.9451 -0.2882
 3287TIP3    H2 9815   1.733   2.891   2.425  2.0104 -0.9135  0.6628
 3288TIP3   OH2 9816   4.799   2.995   0.744  0.0174 -0.2758 -0.2308
 3288TIP3    H1 9817   4.807   3.006   0.838  0.0608  1.2748 -0.4052
 3288TIP3    H2 9818   4.879   2.950   0.718  0.3551 -0.0210  0.3635
 3289TIP3   OH2 9819   0.844   5.670   3.680 -0.1194 -0.6187 -0.9749
 3289TIP3    H1 9820   0.861   5.626   3.764 -1.5599 -0.0448 -0.3544
 3289TIP3    H2 9821   0.831   5.598   3.618  1.8092 -1.0524 -0.9160
 3290TIP3   OH2 9822   6.115   5.255   1.832  0.3785 -0.3398 -0.5142
 3290TIP3    H1 9823   6.196   5.305   1.835 -0.0119  0.2120  1.2032
 3290TIP3    H2 9824   6.069   5.288   1.755  0.1317  1.9691  0.6028
 3291TIP3   OH2 9825   0.935   5.409   1.818 -0.3283 -0.2002  0.1456
 3291TIP3    H1 9826   0.918   5.469   1.890  0.7790  0.8582 -0.4595
 3291TIP3    H2 9827   1.024   5.376   1.833  0.1148  0.4277 -0.9941
 3292TIP3   OH2 9828   1.459   6.149   3.212 -0.1815  0.4828  0.1216
 3292TIP3    H1 9829   1.464   6.068   3.263 -1.0727  0.5815  0.3681
 3292TIP3    H2 9830   1.371   6.183   3.229  0.4590  1.9088  0.6370
 3293TIP3   OH2 9831   5.044   5.265   3.133 -0.1544  0.4116 -0.5861
 3293TIP3    H1 9832   5.128   5.301   3.163  0.4125 -0.1281 -1.5161
 3293TIP3    H2 9833   4.991   5.342   3.112 -0.2228  0.7771  0.8623
 3294TIP3   OH2 9834   2.921   4.155   3.240 -0.4852 -0.2185 -0.2447
 3294TIP3    H1 9835   2.905   4.246   3.216 -0.8531  0.3304  1.9631
 3294TIP3    H2 9836   2.988   4.160   3.309 -0.7262 -1.5919  0.0980
 3295TIP3   OH2 9837   3.940   3.231   1.973 -0.2322  0.4653  0.0790
 3295TIP3    H1 9838   3.884   3.309   1.970 -0.1116  0.5454 -0.0675
 3295TIP3    H2 9839   3.945   3.210   2.066 -0.7799  0.2617  0.0670
 3296TIP3   OH2 9840   2.783   2.688   2.074  0.2025 -0.2774 -0.6389
 3296TIP3    H1 9841   2.699   2.694   2.120 -0.0175  0.8065 -1.1714
 3296TIP3    H2 9842   2.759   2.684   1.982  0.7193 -0.6636 -0.7552
 3297TIP3   OH2 9843   4.226   4.717   2.588  0.3213  0.5928 -0.2969
 3297TIP3    H1 9844   4.231   4.769   2.508  1.3981 -0.2279 -0.7594
 3297TIP3    H2 9845   4.135   4.728   2.617 -0.4963 -0.3243 -2.4325
 3298TIP3   OH2 9846   1.508   3.490   2.076 -0.3445  0.4512  0.0459
 3298TIP3    H1 9847   1.421   3.525   2.055 -0.6110  0.7207  1.4877
 3298TIP3    H2 9848   1.569   3.556   2.044 -0.7060  0.5447 -0.4454
 3299TIP3   OH2 9849   1.628   4.020   2.805  0.2941  0.3041  0.8453
 3299TIP3    H1 9850   1.552   4.018   2.747 -0.1993  0.5835  1.4802
 3299TIP3    H2 9851   1.659   4.110   2.802  1.3779 -0.0977 -0.4071
 3300TIP3   OH2 9852   2.460   2.699   3.626  0.4134  0.2180  0.3426
 3300TIP3    H1 9853   2.549   2.730   3.605 -0.0199  0.9196 -0.5036
 3300TIP3    H2 9854   2.470   2.650   3.707  1.3504  1.4788  0.9962
 3301TIP3   OH2 9855   7.858   2.942   2.962  0.6090  0.1769 -0.9733
 3301TIP3    H1 9856   7.878   3.021   3.012  0.8835  0.6412 -1.8224
 3301TIP3    H2 9857   7.801   2.971   2.892 -2.7759 -1.0556  1.1482
 3302TIP3   OH2 9858   3.463   2.010   1.907  0.4751  0.3980 -0.1598
 3302TIP3    H1 9859   3.535   1.981   1.963 -0.4782  1.3972  1.6101
 3302TIP3    H2 9860   3.407   2.063   1.964 -1.1623  0.4396 -1.7434
 3303TIP3   OH2 9861   2.181   2.350   2.593  0.0245  0.3024  0.1849
 3303TIP3    H1 9862   2.085   2.348   2.600  0.1615  0.4271  2.3957
 3303TIP3    H2 9863   2.207   2.258   2.598  0.0482  0.2880 -0.1684
 3304TIP3   OH2 9864   7.138   3.365   2.977  0.1407 -0.0477  0.3150
 3304TIP3    H1 9865   7.129   3.455   2.948  0.6762 -0.8849 -2.5563
 3304TIP3    H2 9866   7.217   3.365   3.031  0.6418  0.9975 -0.4125
 3305TIP3   OH2 9867   2.264   4.924   2.875  0.0704 -0.5088 -0.1023
 3305TIP3    H1 9868   2.326   4.852   2.883  2.2603  1.3922  0.5568
 3305TIP3    H2 9869   2.243   4.928   2.782  0.9545 -1.1682 -0.3308
 3306TIP3   OH2 9870   0.481   3.541   3.248 -0.0673 -0.0196 -0.0040
 3306TIP3    H1 9871   0.517   3.630   3.248  0.1658 -0.1025 -1.2048
 3306TIP3    H2 9872   0.441   3.531   3.334 -1.8615  1.9718 -0.5522
 3307TIP3   OH2 9873   7.771   5.132   3.482 -0.5411  0.1855 -0.3907
 3307TIP3    H1 9874   7.738   5.071   3.548  0.6874 -0.7593 -0.6424
 3307TIP3    H2 9875   7.856   5.161   3.516 -0.2756  0.3209 -1.1652
 3308TIP3   OH2 9876   1.575   4.607   2.556 -0.4815 -0.1346 -0.4355
 3308TIP3    H1 9877   1.572   4.656   2.639 -0.4434 -0.1571 -0.4205
 3308TIP3    H2 9878   1.619   4.525   2.579  0.8216  0.4462 -0.7722
 3309TIP3   OH2 9879   7.869   3.127   4.011  0.4644  0.4640 -0.2484
 3309TIP3    H1 9880   7.791   3.078   3.987  0.2487  1.1883 -1.0526
 3309TIP3    H2 9881   7.866   3.131   4.106  0.1871 -0.5934 -0.2093
 3310TIP3   OH2 9882   2.637   4.139   1.945 -0.5563 -0.3184 -0.0185
 3310TIP3    H1 9883   2.572   4.171   1.883 -1.7560 -1.4054  0.6398
 3310TIP3    H2 9884   2.588   4.128   2.027  0.4454 -1.2035  0.4711
 3311TIP3   OH2 9885   1.749   4.002   3.861 -0.4366 -0.0688 -0.1407
 3311TIP3    H1 9886   1.702   4.079   3.828 -2.3613 -1.2227 -0.1865
 3311TIP3    H2 9887   1.701   3.927   3.825  0.5968 -1.3118  0.9959
 3312TIP3   OH2 9888   3.942   2.505   1.789 -0.4273 -0.0764  0.7821
 3312TIP3    H1 9889   3.910   2.563   1.858  4.2437  1.2678  1.9841
 3312TIP3    H2 9890   3.977   2.429   1.837  1.3982  0.1410 -0.1947
 3313TIP3   OH2 9891   1.460   3.335   5.737  0.5178 -0.0862 -0.2544
 3313TIP3    H1 9892   1.409   3.261   5.771  0.1551 -0.7961 -2.2677
 3313TIP3    H2 9893   1.426   3.411   5.783 -0.1634 -0.9855  0.7355
 3314TIP3   OH2 9894   0.979   4.892   2.894 -0.2264  0.3232 -0.4228
 3314TIP3    H1 9895   1.071   4.877   2.875 -0.4042 -0.2150 -0.8778
 3314TIP3    H2 9896   0.932   4.838   2.830 -0.8142 -1.5962  1.5422
 3315TIP3   OH2 9897   2.358   3.740   2.891  0.1677  0.8133 -0.1710
 3315TIP3    H1 9898   2.310   3.785   2.822 -0.8130  1.2489  0.7715
 3315TIP3    H2 9899   2.314   3.766   2.972  2.5946  1.9752  0.8309
 3316TIP3   OH2 9900   2.698   3.555   2.560 -0.0586  0.2003  0.1463
 3316TIP3    H1 9901   2.697   3.463   2.535 -2.2053  0.3008 -0.2547
 3316TIP3    H2 9902   2.744   3.556   2.644 -2.4905 -1.6898  1.5978
 3317TIP3   OH2 9903   1.718   3.771   2.713 -0.4868  0.3761 -0.4700
 3317TIP3    H1 9904   1.634   3.726   2.706 -1.1171  1.5448 -0.4118
 3317TIP3    H2 9905   1.698   3.855   2.755  0.8787  0.1707  0.6415
 3318TIP3   OH2 9906   2.474   4.965   2.361  0.1383 -0.0645  0.4084
 3318TIP3    H1 9907   2.489   4.939   2.270 -0.9872 -1.4252  0.6016
 3318TIP3    H2 9908   2.401   5.026   2.357 -0.3322 -0.6240  0.4701
 3319TIP3   OH2 9909   1.754   3.601   3.503  0.6412 -0.6587 -0.1821
 3319TIP3    H1 9910   1.721   3.539   3.568 -0.6421  0.1828 -0.0096
 3319TIP3    H2 9911   1.675   3.634   3.460  1.4081 -0.2533 -1.2885
 3320TIP3   OH2 9912   7.357   3.847   4.188  0.3541  0.2351 -0.0580
 3320TIP3    H1 9913   7.334   3.939   4.203  1.2703  0.4540  0.0529
 3320TIP3    H2 9914   7.322   3.801   4.265  0.2470  0.5552  0.0850
 3321TIP3   OH2 9915   3.779   4.165   2.887  0.1989  0.0623 -0.5621
 3321TIP3    H1 9916   3.686   4.187   2.900 -0.4664 -2.1515 -1.3246
 3321TIP3    H2 9917   3.806   4.127   2.971 -0.5753 -2.4459 -1.3868
 3322TIP3   OH2 9918   3.445   3.498   3.355  0.0871 -0.0167  0.4702
 3322TIP3    H1 9919   3.535   3.509   3.385  0.0521 -0.2223  0.6553
 3322TIP3    H2 9920   3.391   3.530   3.428  0.0345  3.8614 -1.1654
 3323TIP3   OH2 9921   2.097   1.908   1.303 -0.3514 -0.2230  0.4922
 3323TIP3    H1 9922   2.012   1.878   1.336  0.2083 -2.2348  0.1899
 3323TIP3    H2 9923   2.143   1.941   1.381 -0.7585 -0.7247  0.9465
 3324TIP3   OH2 9924   4.753   3.803   3.033  0.2164 -0.1159 -0.1270
 3324TIP3    H1 9925   4.764   3.780   3.125 -0.5662  1.2658  0.3199
 3324TIP3    H2 9926   4.662   3.780   3.014 -0.1446  1.2497 -0.0711
 3325TIP3   OH2 9927   1.710   4.528   4.276 -0.3155  0.1780 -0.1423
 3325TIP3    H1 9928   1.691   4.459   4.213 -1.0512 -1.3237  1.6820
 3325TIP3    H2 9929   1.626   4.547   4.318  0.2856  0.6156  0.9046
 3326TIP3   OH2 9930   0.165   3.236   2.310  0.3117  0.0483 -0.3951
 3326TIP3    H1 9931   0.133   3.302   2.250  1.3165 -1.5780 -2.7993
 3326TIP3    H2 9932   0.259   3.230   2.292  0.5144 -0.9085  0.8837
 3327TIP3   OH2 9933   3.933   2.681   3.678  0.4631 -0.3801 -0.3052
 3327TIP3    H1 9934   3.858   2.695   3.736  2.2162  0.6677  1.7758
 3327TIP3    H2 9935   3.988   2.619   3.726  1.7571  0.1940 -1.0475
 3328TIP3   OH2 9936   3.855   3.828   6.196 -0.0100 -0.3521  0.6124
 3328TIP3    H1 9937   3.833   3.906   6.145  0.2692 -0.5659  0.1580
 3328TIP3    H2 9938   3.825   3.754   6.143  1.0607 -0.6127  0.3501
 3329TIP3   OH2 9939   2.750   4.064   2.660  0.1161  0.1051 -0.4702
 3329TIP3    H1 9940   2.693   4.079   2.585 -0.6715  1.1994  0.3353
 3329TIP3    H2 9941   2.696   4.015   2.721  0.6352 -0.4527 -0.4521
 3330TIP3   OH2 9942  -0.001   3.510   5.541  0.2321  0.0457 -0.1145
 3330TIP3    H1 9943   0.075   3.521   5.598 -0.2675 -0.5537  0.6870
 3330TIP3    H2 9944  -0.072   3.489   5.601 -0.0130 -1.9629 -1.0640
 3331TIP3   OH2 9945   3.303   4.934   3.790  0.0045 -0.1498  0.0229
 3331TIP3    H1 9946   3.220   4.899   3.756 -0.8812  0.0332  1.9102
 3331TIP3    H2 9947   3.323   4.877   3.865  0.9119  0.6134  0.3605
 3332TIP3   OH2 9948   1.069   2.767   3.597  0.6760 -0.2582 -0.1530
 3332TIP3    H1 9949   1.117   2.721   3.666  1.1065 -0.6179 -0.6864
 3332TIP3    H2 9950   0.977   2.761   3.624  1.0424  1.7524  1.6406
 3333TIP3   OH2 9951   3.252   5.129   3.311  0.0087 -0.0316 -0.0510
 3333TIP3    H1 9952   3.182   5.066   3.292  0.3021 -0.3903  0.0499
 3333TIP3    H2 9953   3.296   5.093   3.388 -0.3794  0.7560  0.5526
 3334TIP3   OH2 9954   0.874   2.349   3.598  0.7108 -0.2092  0.0650
 3334TIP3    H1 9955   0.803   2.392   3.550  0.6111 -0.8069 -0.3227
 3334TIP3    H2 9956   0.900   2.413   3.664  0.7301  0.5434 -0.6695
 3335TIP3   OH2 9957   0.736   4.801   2.711  0.1171 -0.0146  0.1488
 3335TIP3    H1 9958   0.648   4.783   2.677  0.7584 -0.2911 -1.4149
 3335TIP3    H2 9959   0.770   4.870   2.654  1.4600 -0.9160 -0.1740
 3336TIP3   OH2 9960   1.376   4.469   4.276 -0.2104 -0.3343 -0.3130
 3336TIP3    H1 9961   1.392   4.384   4.317  0.0126  0.3896  1.1158
 3336TIP3    H2 9962   1.406   4.458   4.186  0.9337 -1.4145  0.1848
 3337TIP3   OH2 9963   1.858   5.019   1.597  0.2700 -0.2147  0.8120
 3337TIP3    H1 9964   1.867   5.087   1.663 -1.0656 -1.4931  2.3710
 3337TIP3    H2 9965   1.786   5.050   1.541  0.3882  0.1620  0.8683
 3338TIP3   OH2 9966   1.122   7.348   0.320 -0.3767  0.3042 -0.3631
 3338TIP3    H1 9967   1.029   7.330   0.331 -0.8779  1.8906 -1.7291
 3338TIP3    H2 9968   1.128   7.444   0.322  1.6026  0.1804  2.4354
 3339TIP3   OH2 9969   0.160   4.079   2.370  0.3368 -0.3495  0.3191
 3339TIP3    H1 9970   0.132   4.061   2.280  2.7803 -0.7075 -0.4050
 3339TIP3    H2 9971   0.102   4.149   2.400  0.3323  0.6978 -2.0097
 3340TIP3   OH2 9972   1.375   4.190   2.798 -0.8374 -0.9312  0.4094
 3340TIP3    H1 9973   1.378   4.286   2.798  1.3437 -0.9539  2.5063
 3340TIP3    H2 9974   1.392   4.165   2.708 -0.9843  0.6314 -0.0662
 3341TIP3   OH2 9975   3.361   6.530   2.888  0.5192 -0.2972 -0.4669
 3341TIP3    H1 9976   3.431   6.586   2.920 -0.5797 -0.3953  2.1850
 3341TIP3    H2 9977   3.399   6.442   2.885  0.7589 -0.2162  0.1997
 3342TIP3   OH2 9978   2.498   3.134   2.062 -0.3041 -0.8254 -0.2247
 3342TIP3    H1 9979   2.440   3.072   2.018 -0.3716 -1.3526  0.6004
 3342TIP3    H2 9980   2.438   3.192   2.111 -0.1739 -0.9065  0.0310
 3343TIP3   OH2 9981   3.546   6.383   3.723 -0.2058 -0.2012 -0.0259
 3343TIP3    H1 9982   3.573   6.319   3.790 -3.1209 -2.0857 -0.5750
 3343TIP3    H2 9983   3.491   6.445   3.771  0.5114  0.4470 -0.0249
 3344TIP3   OH2 9984   2.872   4.579   3.050 -0.1315 -0.5790 -0.3457
 3344TIP3    H1 9985   2.911   4.630   2.978 -0.2787  0.4388  0.2906
 3344TIP3    H2 9986   2.945   4.531   3.088  0.1616 -0.1728 -0.3979
 3345TIP3   OH2 9987   3.704   3.441   1.658  0.9087 -0.0200  0.1740
 3345TIP3    H1 9988   3.635   3.415   1.719  1.7993  0.1463  1.2774
 3345TIP3    H2 9989   3.699   3.378   1.586 -1.4613  0.9880 -0.5713
 3346TIP3   OH2 9990   3.379   5.824   2.390 -0.4401  0.3345  0.4160
 3346TIP3    H1 9991   3.353   5.737   2.417  2.2318 -1.1987 -1.7120
 3346TIP3    H2 9992   3.298   5.864   2.356 -1.2168 -2.2147 -0.8459
 3347TIP3   OH2 9993   4.720   4.050   2.877  0.0221  0.0000  0.2428
 3347TIP3    H1 9994   4.695   4.120   2.938  0.4814  1.0811 -0.7686
 3347TIP3    H2 9995   4.742   3.976   2.933  1.3896  1.2775  1.4588
 3348TIP3   OH2 9996   3.423   1.280   1.428  0.3312  0.9445  0.1521
 3348TIP3    H1 9997   3.458   1.285   1.339 -2.5210  2.6829 -0.9518
 3348TIP3    H2 9998   3.402   1.370   1.450 -2.2564  0.1136  1.1993
 3349TIP3   OH2 9999   1.001   1.988   1.262  0.0754 -0.2317  0.4321
 3349TIP3    H110000   0.939   1.918   1.286  2.2115 -2.0401  0.8605
 3349TIP3    H210001   0.963   2.067   1.299 -2.0166 -1.2923  0.6413
 3350TIP3   OH210002   5.458   2.993   1.850 -0.3268  0.8380  0.6979
 3350TIP3    H110003   5.460   3.088   1.860 -1.8074  1.0682 -0.8416
 3350TIP3    H210004   5.371   2.975   1.814  0.9695 -0.8139 -1.7262
 3351TIP3   OH210005   1.837   6.807  -0.016  0.1072 -0.3521 -0.1561
 3351TIP3    H110006   1.916   6.853   0.013 -0.8433  1.4036 -0.2779
 3351TIP3    H210007   1.778   6.811   0.058 -0.7922  0.5293 -0.9070
 3352TIP3   OH210008   3.112   6.327   3.482 -0.6617 -0.5467  0.2726
 3352TIP3    H110009   3.205   6.333   3.505 -0.8666  1.9316  0.6055
 3352TIP3    H210010   3.072   6.278   3.554 -0.2017  1.6053  2.0640
 3353TIP3   OH210011   2.918   5.730   3.791 -0.0718 -0.1335 -0.1032
 3353TIP3    H110012   2.997   5.679   3.811  0.7468  1.2743  0.3031
 3353TIP3    H210013   2.946   5.795   3.727 -0.8847  0.4179  0.0894
 3354TIP3   OH210014   2.595   2.461   1.614  0.1406  0.7057 -0.4556
 3354TIP3    H110015   2.502   2.441   1.617  0.0579  1.0909 -0.5168
 3354TIP3    H210016   2.601   2.545   1.569  0.3798  1.6247  1.2423
 3355TIP3   OH210017   3.008   2.495   2.877 -0.1946  0.4115  0.2984
 3355TIP3    H110018   2.952   2.442   2.934 -1.2312  2.3446  1.1248
 3355TIP3    H210019   3.048   2.559   2.935 -0.0310  1.4165 -0.9084
 3356TIP3   OH210020   3.143   2.988   0.537  0.0744  0.5799  0.6301
 3356TIP3    H110021   3.066   3.004   0.591  0.4941 -1.2692  1.8330
 3356TIP3    H210022   3.214   2.976   0.601  0.6660 -1.2017 -0.3316
 3357TIP3   OH210023   1.652   3.900   3.233 -0.0553 -0.0037  1.0298
 3357TIP3    H110024   1.711   3.968   3.266 -0.1728  0.6966 -0.1836
 3357TIP3    H210025   1.614   3.861   3.312  1.3964  0.1061  1.7911
 3358TIP3   OH210026   1.851   5.982   2.112  0.2428  0.1419 -0.1173
 3358TIP3    H110027   1.881   5.963   2.200 -1.7947  0.8354  0.7736
 3358TIP3    H210028   1.785   5.915   2.094 -0.8555  1.2381 -0.2671
 3359TIP3   OH210029   2.468   4.291   3.873 -0.5068  0.6472  0.2990
 3359TIP3    H110030   2.556   4.282   3.911 -0.1074  1.6108 -0.3942
 3359TIP3    H210031   2.438   4.377   3.902 -0.8485  0.7087 -0.2512
 3360TIP3   OH210032   3.315   3.596   2.430 -0.3801  0.0633  0.6243
 3360TIP3    H110033   3.365   3.667   2.391 -2.1285 -0.4217 -2.6478
 3360TIP3    H210034   3.378   3.524   2.438 -0.1724 -0.0976 -2.1321
 3361TIP3   OH210035   2.218   4.341   4.249  0.5022  0.4401 -0.6074
 3361TIP3    H110036   2.174   4.412   4.296  0.8858 -1.4502  2.8139
 3361TIP3    H210037   2.148   4.280   4.228  0.6046  0.3795 -0.7639
 3362TIP3   OH210038   1.923   3.092   3.459 -0.0390  0.4784  0.1550
 3362TIP3    H110039   1.874   3.055   3.533 -0.5475  0.8351 -0.0042
 3362TIP3    H210040   2.014   3.089   3.488 -0.0553 -1.0379  0.0913
 3363TIP3   OH210041   3.168   3.305   2.733 -0.1252 -0.4405 -0.6063
 3363TIP3    H110042   3.231   3.320   2.803 -0.7976  3.5773 -0.7646
 3363TIP3    H210043   3.089   3.274   2.778  0.1009  0.1174  0.1849
 3364TIP3   OH210044   0.023   2.283   3.573 -0.3313  0.4741 -0.6297
 3364TIP3    H110045   0.062   2.240   3.496  0.5032  0.8592 -0.4234
 3364TIP3    H210046  -0.069   2.294   3.549 -0.8171 -2.4110 -0.2667
 3365TIP3   OH210047   2.733   2.795   2.812 -0.0480 -0.3329  0.3046
 3365TIP3    H110048   2.675   2.736   2.765  1.2615 -1.2687 -0.1600
 3365TIP3    H210049   2.699   2.796   2.902 -2.2415  1.0522 -0.5073
 3366TIP3   OH210050   1.490   4.675   2.298  0.0622  0.2385  0.0011
 3366TIP3    H110051   1.455   4.618   2.230 -1.5927  1.3728 -0.1244
 3366TIP3    H210052   1.504   4.617   2.373  1.3095 -0.8949 -1.0786
 3367TIP3   OH210053   0.690   4.424   5.627  0.6863  0.0121  0.3363
 3367TIP3    H110054   0.754   4.360   5.598  1.9885  1.3246  0.2634
 3367TIP3    H210055   0.700   4.427   5.723  1.3640  0.8523  0.2468
 3368TIP3   OH210056   2.647   5.942   3.348 -0.4272  0.0329 -0.0534
 3368TIP3    H110057   2.706   5.888   3.295 -0.1849  0.8083 -0.5902
 3368TIP3    H210058   2.566   5.891   3.354 -1.1935  0.8366 -2.9375
 3369TIP3   OH210059   2.504   6.109   4.229  0.8156  0.0267 -0.3464
 3369TIP3    H110060   2.570   6.105   4.159  1.0267  0.0666 -0.1521
 3369TIP3    H210061   2.548   6.156   4.300  0.7186 -0.3121 -0.0631
 3370TIP3   OH210062   2.619   4.362   2.716 -0.1917  0.0392 -0.2945
 3370TIP3    H110063   2.636   4.300   2.645 -0.7186 -0.4851  0.0330
 3370TIP3    H210064   2.646   4.316   2.795  1.8765  1.2042 -0.2864
 3371TIP3   OH210065   2.228   5.828   4.607  0.2242  0.3301 -0.2667
 3371TIP3    H110066   2.202   5.736   4.609 -0.7552  0.4971 -3.1667
 3371TIP3    H210067   2.159   5.874   4.655  1.1864 -0.5018  1.9919
 3372TIP3   OH210068   4.078   4.333   3.502 -0.6024 -0.6941  0.1389
 3372TIP3    H110069   4.080   4.245   3.464 -1.5606 -0.2995 -0.8517
 3372TIP3    H210070   4.001   4.333   3.559 -1.0974 -0.2357 -0.5261
 3373TIP3   OH210071   2.073   5.101   3.363 -0.1870  0.7414 -0.2012
 3373TIP3    H110072   2.045   5.189   3.339  0.5453  1.1493  0.4005
 3373TIP3    H210073   2.028   5.083   3.445  0.7533  1.1209  0.4048
 3374TIP3   OH210074   6.964   4.470   3.274  0.5533 -0.0566  0.3610
 3374TIP3    H110075   6.926   4.493   3.190 -1.1743 -0.1531  1.1034
 3374TIP3    H210076   7.023   4.543   3.294 -2.7899  2.5068  1.3807
 3375TIP3   OH210077   1.100   4.561   2.325  0.0666  0.0652 -0.0355
 3375TIP3    H110078   1.061   4.495   2.382  0.2445  0.7306  0.8668
 3375TIP3    H210079   1.068   4.644   2.359  1.0065  0.5310 -0.2709
 3376TIP3   OH210080   2.998   7.159   2.364 -0.5734 -0.9309 -0.2441
 3376TIP3    H110081   2.990   7.066   2.343 -1.4146 -0.5925 -1.5335
 3376TIP3    H210082   3.005   7.202   2.279  0.2286  0.1535  0.3588
 3377TIP3   OH210083   1.884   4.910   2.352 -0.2032 -0.0919 -0.0767
 3377TIP3    H110084   1.791   4.914   2.373 -0.6508 -2.7182 -1.2974
 3377TIP3    H210085   1.888   4.864   2.268  2.3350 -3.2212  1.6009
 3378TIP3   OH210086   0.451   1.746   4.931  0.0169 -0.0313  0.8292
 3378TIP3    H110087   0.359   1.758   4.907 -0.3462 -1.6470  1.3610
 3378TIP3    H210088   0.456   1.779   5.021  0.1157  0.6426  0.5847
 3379TIP3   OH210089   1.526   5.319   1.519 -0.3635  0.4511  0.5067
 3379TIP3    H110090   1.563   5.231   1.523  1.5099  0.9710 -3.0416
 3379TIP3    H210091   1.451   5.311   1.460 -0.1340  1.2425  0.1016
 3380TIP3   OH210092   3.447   5.625   2.149  0.0127  0.3851  0.0234
 3380TIP3    H110093   3.430   5.715   2.177 -1.0220  0.5452 -1.0540
 3380TIP3    H210094   3.428   5.625   2.055 -4.0188 -1.8578  0.7104
 3381TIP3   OH210095   3.845   4.935   2.402 -0.3971 -0.0419  0.1461
 3381TIP3    H110096   3.916   4.999   2.395  0.7288 -1.2896  0.0586
 3381TIP3    H210097   3.766   4.989   2.405  0.3713  1.3025 -2.0844
 3382TIP3   OH210098   4.808   4.405   2.197  0.3030  0.3326 -0.0986
 3382TIP3    H110099   4.787   4.411   2.290 -1.1449 -1.8837 -0.2437
 3382TIP3    H210100   4.901   4.385   2.195  0.1613 -0.4506  0.8985
 3383TIP3   OH210101   7.759   1.888   2.935 -0.3993 -0.3930 -0.0274
 3383TIP3    H110102   7.733   1.873   2.844 -1.1501  0.8133 -0.0314
 3383TIP3    H210103   7.700   1.834   2.986 -1.4486  0.5983 -0.1597
 3384TIP3   OH210104   1.409   3.929   4.563  0.2672  0.2717  0.2926
 3384TIP3    H110105   1.358   3.856   4.596 -1.1869 -0.0502 -2.5008
 3384TIP3    H210106   1.493   3.891   4.537  0.1090 -0.1146  0.3502
 3385TIP3   OH210107   0.032   3.941   3.508  0.0474  0.2639  0.2403
 3385TIP3    H110108   0.064   3.870   3.564 -1.2174  0.2664  0.9770
 3385TIP3    H210109  -0.040   3.902   3.459 -0.1214  0.8134  0.0454
 3386TIP3   OH210110   2.651   4.868   2.566  0.2487 -0.3676  0.3205
 3386TIP3    H110111   2.605   4.880   2.483  1.3431  0.9650 -0.1197
 3386TIP3    H210112   2.696   4.784   2.557  0.2305 -0.3041 -0.3767
 3387TIP3   OH210113   2.049   2.246   5.193  0.0142 -0.3367  0.1398
 3387TIP3    H110114   2.086   2.326   5.231 -1.0734  0.3583 -0.2342
 3387TIP3    H210115   2.123   2.204   5.149  1.0049 -0.4888  1.8921
 3388TIP3   OH210116   3.936   2.452   4.271 -0.3765 -0.3062 -0.3249
 3388TIP3    H110117   3.937   2.374   4.327 -0.5902  0.7707  1.2050
 3388TIP3    H210118   3.916   2.524   4.331  1.3693  1.1365 -1.4427
 3389TIP3   OH210119   7.470   5.250   2.073 -0.9073 -0.1460  0.6552
 3389TIP3    H110120   7.494   5.201   2.152  0.5346  0.8948  0.8882
 3389TIP3    H210121   7.551   5.253   2.022 -1.4987  0.3122 -0.2645
 3390TIP3   OH210122   7.011   4.754   2.987 -0.2054  0.7939  0.1054
 3390TIP3    H110123   6.961   4.716   2.915 -0.9507  1.3384  0.3337
 3390TIP3    H210124   7.072   4.814   2.944  0.8114 -0.4733 -0.2347
 3391TIP3   OH210125   5.233   4.793   2.122  0.0560 -0.1605 -0.5515
 3391TIP3    H110126   5.279   4.786   2.205 -0.0770 -1.2181 -0.5625
 3391TIP3    H210127   5.173   4.866   2.133  2.8469  2.2927 -1.0695
 3392TIP3   OH210128   1.542   4.185   2.564  0.3190  0.1267  0.0202
 3392TIP3    H110129   1.559   4.111   2.505  1.0900  0.0805  0.2941
 3392TIP3    H210130   1.541   4.262   2.507  2.7951  0.2960  0.1499
 3393TIP3   OH210131   2.317   4.045   1.805 -0.0556 -0.0928 -0.1451
 3393TIP3    H110132   2.259   3.983   1.762  2.1617 -1.0891 -1.7800
 3393TIP3    H210133   2.335   4.005   1.891 -1.1740 -0.1202  0.0868
 3394TIP3   OH210134   7.297   3.794   3.903  0.0159 -0.0891  0.1994
 3394TIP3    H110135   7.247   3.747   3.970  0.5815 -0.0852  0.6279
 3394TIP3    H210136   7.379   3.817   3.946  1.2038 -1.7925 -1.0702
 3395TIP3   OH210137   2.506   6.414   2.193  0.1847 -0.1614  0.2055
 3395TIP3    H110138   2.550   6.463   2.262  1.7399 -0.1490 -0.7634
 3395TIP3    H210139   2.536   6.324   2.205 -2.0775 -0.7664  1.5240
 3396TIP3   OH210140   1.257   3.415   2.471 -0.4500 -0.1872 -0.2123
 3396TIP3    H110141   1.296   3.444   2.554  0.1409 -0.7316 -0.2969
 3396TIP3    H210142   1.236   3.323   2.485  1.0541 -0.6897 -1.1786
 3397TIP3   OH210143   1.608   1.237   4.498  0.0575 -0.1003 -0.8182
 3397TIP3    H110144   1.539   1.275   4.444 -0.6309  0.8271  0.6753
 3397TIP3    H210145   1.574   1.241   4.587  1.8912  0.0325 -0.0985
 3398TIP3   OH210146   2.734   5.182   2.458  0.2465  0.4050 -0.4270
 3398TIP3    H110147   2.752   5.214   2.370 -1.3488 -1.0126 -1.2938
 3398TIP3    H210148   2.736   5.087   2.449  0.0591  0.2535  1.0803
 3399TIP3   OH210149   5.093   4.032   0.902 -0.7756  0.3051 -0.3884
 3399TIP3    H110150   5.161   3.970   0.926 -0.4807  0.6784 -0.2487
 3399TIP3    H210151   5.123   4.072   0.821 -1.4613 -0.4798 -1.0342
 3400TIP3   OH210152   3.442   4.660   1.492  0.6441  0.0029 -0.0361
 3400TIP3    H110153   3.350   4.677   1.470  0.8484 -0.7741 -1.5681
 3400TIP3    H210154   3.438   4.593   1.561  0.0497  0.9127  0.8390
 3401TIP3   OH210155   3.918   2.162   2.421 -0.9480  0.1718 -0.3202
 3401TIP3    H110156   3.990   2.116   2.377  0.3863 -1.3275  3.2459
 3401TIP3    H210157   3.846   2.099   2.421 -0.6754 -0.1408  0.3707
 3402TIP3   OH210158   4.420   4.869   1.679  0.0079  0.1660  0.4554
 3402TIP3    H110159   4.398   4.878   1.586 -0.0326  0.1783  0.4664
 3402TIP3    H210160   4.466   4.950   1.701 -1.8730  1.1170  0.9933
 3403TIP3   OH210161   2.190   4.367   2.022 -0.3101 -0.1859  0.0094
 3403TIP3    H110162   2.183   4.405   2.110 -1.1382 -0.1636 -0.0607
 3403TIP3    H210163   2.109   4.393   1.978  0.3086  0.1899 -0.9160
 3404TIP3   OH210164   3.915   5.869   2.849 -0.3620 -0.1155 -0.3888
 3404TIP3    H110165   3.907   5.964   2.839  0.0371  0.0330  0.6223
 3404TIP3    H210166   4.006   5.856   2.874 -0.0784 -0.8841 -1.7980
 3405TIP3   OH210167   4.353   4.563   1.155 -0.4066 -0.0136 -0.1424
 3405TIP3    H110168   4.304   4.636   1.194 -1.5163  1.1343 -3.4845
 3405TIP3    H210169   4.303   4.540   1.077  1.7898 -2.0802 -1.0035
 3406TIP3   OH210170   2.575   3.828   2.530  0.4903  0.3240  0.1335
 3406TIP3    H110171   2.561   3.835   2.625 -0.4840  0.2679  0.0009
 3406TIP3    H210172   2.627   3.749   2.520 -0.5341 -0.4205  0.5307
 3407TIP3   OH210173   4.341   2.715   2.459  0.0897  0.8737 -0.0007
 3407TIP3    H110174   4.376   2.649   2.400 -1.3205 -0.2549  0.4090
 3407TIP3    H210175   4.391   2.706   2.539  1.4493  1.8570 -0.7214
 3408TIP3   OH210176   4.894   4.852   3.385 -0.1454  0.5533 -0.2113
 3408TIP3    H110177   4.881   4.903   3.465  0.9489 -0.7347  0.7986
 3408TIP3    H210178   4.989   4.844   3.377 -0.3242 -1.7562 -0.0947
 3409TIP3   OH210179   2.214   2.835   3.587  0.5045 -0.4334  0.2678
 3409TIP3    H110180   2.305   2.806   3.588  0.8387  0.5764  1.6029
 3409TIP3    H210181   2.171   2.783   3.655  0.0459 -0.9832 -0.4304
 3410TIP3   OH210182   3.692   2.590   2.081  0.3272 -0.0892  0.2337
 3410TIP3    H110183   3.736   2.525   2.137 -0.0098  0.0068  0.6144
 3410TIP3    H210184   3.707   2.674   2.126 -0.5522 -0.1049  0.5484
 3411TIP3   OH210185   5.478   5.454   2.237  0.2033 -0.2793  0.9513
 3411TIP3    H110186   5.498   5.416   2.323 -1.2314  2.4083  2.5452
 3411TIP3    H210187   5.385   5.474   2.241  0.5028  1.5776 -0.5183
 3412TIP3   OH210188   4.848   2.950   1.012 -0.3636  0.4701  0.2689
 3412TIP3    H110189   4.854   2.939   1.107 -0.4193 -0.0625  0.2110
 3412TIP3    H210190   4.923   2.901   0.978  0.7633  2.2219  0.1449
 3413TIP3   OH210191   5.962   3.745   3.171  0.3725 -0.9969 -0.1228
 3413TIP3    H110192   5.981   3.836   3.194  0.7432 -0.6795 -1.6661
 3413TIP3    H210193   5.885   3.723   3.224  0.3739  0.1609  0.3701
 3414TIP3   OH210194   3.740   2.007   3.814 -0.0432 -0.2483  0.3484
 3414TIP3    H110195   3.655   2.015   3.858 -0.3358 -2.6319  0.2941
 3414TIP3    H210196   3.776   1.925   3.847  2.0706  0.5466  0.0509
 3415TIP3   OH210197   7.345   7.332   5.804 -0.3074 -0.0539 -0.8978
 3415TIP3    H110198   7.266   7.331   5.750 -0.8826 -0.8143 -0.0565
 3415TIP3    H210199   7.346   7.420   5.842  0.6778  0.8662 -2.9414
 3416TIP3   OH210200   4.566   3.021   2.102 -0.1134 -0.1688 -0.3694
 3416TIP3    H110201   4.488   3.072   2.083  0.7256  0.9565 -0.7995
 3416TIP3    H210202   4.563   3.008   2.197 -0.9463 -0.3529 -0.4152
 3417TIP3   OH210203   4.492   2.782   1.672 -0.3154  0.0712  0.4419
 3417TIP3    H110204   4.453   2.859   1.714 -0.8666 -0.5786  1.1442
 3417TIP3    H210205   4.483   2.799   1.578 -1.1968  0.4829  0.5932
 3418TIP3   OH210206   3.110   4.380   2.626 -0.3147  1.0854 -0.2822
 3418TIP3    H110207   3.110   4.309   2.561 -0.1040  0.5229  0.3278
 3418TIP3    H210208   3.039   4.356   2.686  0.4235  0.8682  0.5000
 3419TIP3   OH210209   3.267   3.670   2.898  0.1625 -0.4155  0.4836
 3419TIP3    H110210   3.356   3.700   2.881  0.4104 -0.3963  1.7420
 3419TIP3    H210211   3.276   3.607   2.969 -0.9901  0.6204  1.5715
 3420TIP3   OH210212   1.770   3.710   2.315  0.4252 -0.0418  0.5154
 3420TIP3    H110213   1.676   3.712   2.331 -0.0792 -0.4783 -2.1469
 3420TIP3    H210214   1.799   3.800   2.329 -0.7686  0.5541 -0.7499
 3421TIP3   OH210215   4.955   2.211   0.995 -0.3438 -0.3270 -0.4110
 3421TIP3    H110216   4.870   2.224   1.037  0.4847  0.2212  1.1155
 3421TIP3    H210217   4.983   2.299   0.970  0.8922 -0.1999  1.3269
 3422TIP3   OH210218   5.378   3.757   0.873  0.0039  0.0960 -0.5202
 3422TIP3    H110219   5.418   3.694   0.814  0.9355 -0.6690  0.8903
 3422TIP3    H210220   5.319   3.704   0.928 -1.5331  0.9241 -1.3279
 3423TIP3   OH210221   7.141   7.133   6.293 -0.1429 -0.1645 -0.0328
 3423TIP3    H110222   7.208   7.140   6.360 -1.1959 -0.7920  1.1123
 3423TIP3    H210223   7.059   7.153   6.339 -0.7953  0.1335 -1.2993
 3424TIP3   OH210224   4.794   4.932   0.487 -0.4396  0.8610  0.0595
 3424TIP3    H110225   4.808   4.839   0.503 -0.9132  0.9319  0.9419
 3424TIP3    H210226   4.699   4.941   0.484 -0.3748  1.0962 -1.3902
 3425TIP3   OH210227   2.935   4.998   2.993  0.0213 -0.4871 -0.0090
 3425TIP3    H110228   2.878   4.963   2.925 -0.7776 -0.0645  0.4326
 3425TIP3    H210229   2.878   5.054   3.046  0.4237 -1.4805  1.5189
 3426TIP3   OH210230   2.818   2.200   0.856 -0.4828 -0.2493  0.0228
 3426TIP3    H110231   2.745   2.146   0.826  0.5715 -0.2512 -2.7103
 3426TIP3    H210232   2.875   2.140   0.903 -0.5513 -1.0033 -0.8334
 3427TIP3   OH210233   3.720   5.383   1.495  0.2349  0.1261  0.3800
 3427TIP3    H110234   3.698   5.361   1.405 -0.3271 -0.0078  0.5487
 3427TIP3    H210235   3.657   5.334   1.548  0.9252 -0.2483  0.8690
 3428TIP3   OH210236   4.437   4.555   2.711  0.5805 -0.1299 -0.5213
 3428TIP3    H110237   4.373   4.624   2.729  1.2462  0.6597 -1.1313
 3428TIP3    H210238   4.483   4.585   2.632 -0.5742 -2.2859 -2.0564
 3429TIP3   OH210239   6.280   7.100   6.231 -0.2088 -0.2865 -0.1144
 3429TIP3    H110240   6.209   7.163   6.246 -0.0230 -0.4405  1.4434
 3429TIP3    H210241   6.277   7.041   6.306 -0.5321 -2.3214 -1.6734
 3430TIP3   OH210242   4.955   4.234   1.822  0.2092  0.0301 -0.4744
 3430TIP3    H110243   4.899   4.311   1.835 -0.5515 -0.7451  0.8226
 3430TIP3    H210244   4.939   4.179   1.898 -0.5112 -2.2148 -2.1853
 3431TIP3   OH210245   3.576   4.968   1.573  0.3464 -0.0109 -0.4851
 3431TIP3    H110246   3.503   4.995   1.630 -0.7014  0.9528 -2.2425
 3431TIP3    H210247   3.559   4.876   1.554  0.2295 -0.1040  0.0549
 3432TIP3   OH210248   3.371   6.418   1.115  0.9220 -0.1340 -0.7117
 3432TIP3    H110249   3.286   6.392   1.080  0.5362 -0.2756  0.3403
 3432TIP3    H210250   3.357   6.507   1.148  0.9298 -0.5185  0.3441
 3433TIP3   OH210251   4.980   4.389   1.190  0.2940  0.7816 -0.5327
 3433TIP3    H110252   4.912   4.322   1.197  0.7073  0.5385  1.2382
 3433TIP3    H210253   5.062   4.341   1.188  0.4804  1.1338 -1.5792
 3434TIP3   OH210254   4.130   5.611   3.137  0.3202 -0.3544  0.3495
 3434TIP3    H110255   4.181   5.553   3.081 -0.5682 -0.9300  0.1265
 3434TIP3    H210256   4.154   5.588   3.226 -1.2715 -2.2478  0.3272
 3435TIP3   OH210257   6.279   5.221   4.958 -0.4218 -0.9454 -0.2290
 3435TIP3    H110258   6.304   5.179   5.040  1.4696  0.2436 -0.1743
 3435TIP3    H210259   6.359   5.221   4.906 -1.1919 -0.1806 -1.4164
 3436TIP3   OH210260   2.785   4.624   3.776  0.2734 -0.3738 -0.0629
 3436TIP3    H110261   2.748   4.596   3.860  3.2457  0.9972  1.7920
 3436TIP3    H210262   2.856   4.562   3.759  1.1506  0.7062 -0.3929
 3437TIP3   OH210263   3.547   3.910   0.049  0.0057  0.4221 -0.0063
 3437TIP3    H110264   3.570   3.978   0.112 -0.2217  0.8217 -0.3491
 3437TIP3    H210265   3.481   3.856   0.094  0.5882  0.0997  0.4662
 3438TIP3   OH210266   2.336   5.909   2.734 -0.4878 -0.7839  0.1620
 3438TIP3    H110267   2.392   5.831   2.735  0.2042 -0.2937  1.6968
 3438TIP3    H210268   2.386   5.974   2.784 -0.3880  1.1179 -2.3555
 3439TIP3   OH210269   4.223   1.460   2.032  0.5424 -0.2046  0.2680
 3439TIP3    H110270   4.128   1.457   2.036  0.5576  0.1804  0.9017
 3439TIP3    H210271   4.245   1.416   1.950 -0.3472  3.1501 -1.8200
 3440TIP3   OH210272   1.101   4.373   4.151 -0.0462  0.0217  0.0868
 3440TIP3    H110273   1.038   4.349   4.083  2.4030 -3.6944 -1.0371
 3440TIP3    H210274   1.079   4.317   4.225  1.4047 -0.7723 -0.0587
 3441TIP3   OH210275   1.119   0.674   6.172 -0.0605 -0.1058  0.0365
 3441TIP3    H110276   1.148   0.758   6.138 -0.0452 -0.7327 -1.5045
 3441TIP3    H210277   1.029   0.689   6.200 -0.4563  0.1272 -1.3356
 3442TIP3   OH210278   2.865   6.640   2.780 -0.2336  0.4669 -0.3694
 3442TIP3    H110279   2.869   6.590   2.862 -0.4679  0.7234 -0.1963
 3442TIP3    H210280   2.918   6.591   2.719  0.3737  0.5428  0.0928
 3443TIP3   OH210281   1.256   3.828   1.822 -0.6885  0.4049 -0.4451
 3443TIP3    H110282   1.169   3.860   1.800 -0.3960  1.2872 -0.3047
 3443TIP3    H210283   1.309   3.845   1.744 -0.5621  0.1570 -0.4148
 3444TIP3   OH210284   5.109   5.683   2.975  0.1353  0.7548 -0.0017
 3444TIP3    H110285   5.060   5.760   2.946 -0.2954  0.7457  0.6968
 3444TIP3    H210286   5.186   5.719   3.019 -0.1828  0.7855  0.5260
 3445TIP3   OH210287   6.072   4.495   1.707  0.0424  0.0694 -0.1770
 3445TIP3    H110288   6.007   4.425   1.705 -1.1119  1.1635 -1.1266
 3445TIP3    H210289   6.028   4.568   1.750  1.1541  0.3270  0.5689
 3446TIP3   OH210290   4.189   5.807   2.947  0.2665 -0.0320 -0.1164
 3446TIP3    H110291   4.167   5.743   3.014  0.6359  0.1040  0.1353
 3446TIP3    H210292   4.248   5.868   2.990 -0.0185  0.4336 -0.3793
 3447TIP3   OH210293   4.007   4.345   2.854  0.7401  0.5274 -0.3419
 3447TIP3    H110294   4.007   4.390   2.770 -0.3915  1.9554  0.4116
 3447TIP3    H210295   3.938   4.279   2.846  1.2779  0.0205 -0.8596
 3448TIP3   OH210296   3.888   4.675   0.336 -0.1302  0.0020  0.2449
 3448TIP3    H110297   3.961   4.651   0.393 -1.2069 -0.0076  1.6431
 3448TIP3    H210298   3.929   4.689   0.250  1.5331  0.1879  1.0378
 3449TIP3   OH210299   3.605   3.259   0.611  0.3351 -0.2067 -0.0710
 3449TIP3    H110300   3.660   3.185   0.638  1.1019 -0.0176 -1.0719
 3449TIP3    H210301   3.529   3.219   0.570  0.4938 -0.4562 -0.1256
 3450TIP3   OH210302   3.509   3.382   2.518 -0.4233 -0.1807  0.0634
 3450TIP3    H110303   3.424   3.341   2.502  0.6124 -1.6331 -1.9589
 3450TIP3    H210304   3.570   3.309   2.521  0.6866  0.8007  2.1279
 3451TIP3   OH210305   4.246   7.456   1.680  0.2298  0.6391  0.3127
 3451TIP3    H110306   4.321   7.447   1.622 -0.3465 -1.2665 -0.1956
 3451TIP3    H210307   4.269   7.404   1.757  0.2468  1.6877  1.0275
 3452TIP3   OH210308   4.703   3.868   1.856 -0.5463 -0.1421 -0.4448
 3452TIP3    H110309   4.702   3.896   1.765 -1.2645  3.3521  0.5367
 3452TIP3    H210310   4.791   3.889   1.887 -0.5926 -0.4552 -0.1006
 3453TIP3   OH210311   4.457   2.939   4.130  0.1896  0.0121 -0.1944
 3453TIP3    H110312   4.384   2.925   4.070 -1.2099  1.8898  1.0028
 3453TIP3    H210313   4.520   2.990   4.080  0.2418 -0.7320 -0.9060
 3454TIP3   OH210314   3.987   5.928   3.507  0.7398 -0.5230  0.1788
 3454TIP3    H110315   4.063   5.982   3.486 -0.4573  1.5575  1.0478
 3454TIP3    H210316   3.978   5.870   3.432  2.4109  0.0676 -0.5120
 3455TIP3   OH210317   6.174   7.260   5.699 -0.1524  0.1284 -0.5748
 3455TIP3    H110318   6.090   7.290   5.664  0.1228  0.1880 -1.1940
 3455TIP3    H210319   6.158   7.248   5.793 -1.3536 -1.5926 -0.9653
 3456TIP3   OH210320   4.536   1.570   2.958 -0.1439  0.0415 -0.3207
 3456TIP3    H110321   4.476   1.567   2.884 -0.5976  0.6480  0.0146
 3456TIP3    H210322   4.545   1.664   2.978 -0.9227 -0.1730  1.1122
 3457TIP3   OH210323   3.588   3.297   2.118  0.2234 -0.4929  0.0776
 3457TIP3    H110324   3.613   3.332   2.203  1.7750  0.6731 -0.8118
 3457TIP3    H210325   3.530   3.363   2.080 -0.6834 -1.1343  0.3262
 3458TIP3   OH210326   2.049   1.757   1.040 -0.4276  0.1856 -0.1500
 3458TIP3    H110327   2.078   1.783   1.128 -2.6446  1.3143  0.2791
 3458TIP3    H210328   2.032   1.840   0.995 -1.0339 -0.4260 -1.0570
 3459TIP3   OH210329   2.230   3.913   1.366 -0.4482  0.4608  0.5688
 3459TIP3    H110330   2.157   3.959   1.325  0.2801  0.9927 -0.1463
 3459TIP3    H210331   2.236   3.830   1.319 -0.0735  0.7663  0.0699
 3460TIP3   OH210332   2.605   4.196   2.465 -0.3596 -0.2699  0.0205
 3460TIP3    H110333   2.667   4.195   2.392  0.6061 -0.4939  0.8279
 3460TIP3    H210334   2.537   4.258   2.438 -0.4065 -0.9033 -1.3818
 3461TIP3   OH210335   5.451   4.029   0.092  0.4715  0.0298  0.5492
 3461TIP3    H110336   5.428   3.983   0.011 -1.6626 -0.0134  1.1681
 3461TIP3    H210337   5.379   4.011   0.152  0.9670  1.8642  1.7384
 3462TIP3   OH210338   2.053   4.752   3.734  0.2693 -0.1214 -0.1125
 3462TIP3    H110339   2.051   4.830   3.679 -0.8229  0.3178  0.5317
 3462TIP3    H210340   2.146   4.727   3.738  0.6188  1.1398 -0.3377
 3463TIP3   OH210341   1.832   4.161   0.224 -0.0642 -0.1362 -0.1964
 3463TIP3    H110342   1.793   4.126   0.144  0.8423  0.9833 -1.1419
 3463TIP3    H210343   1.911   4.108   0.238 -0.2866 -0.4092  0.0171
 3464TIP3   OH210344   2.574   2.454   5.055  0.4761 -0.0761 -0.3945
 3464TIP3    H110345   2.503   2.505   5.017  1.1190 -1.0583 -3.0147
 3464TIP3    H210346   2.627   2.518   5.103 -2.4414  0.5765  2.1027
 3465TIP3   OH210347   1.988   1.460   3.395 -0.6612  0.3084  0.0833
 3465TIP3    H110348   2.003   1.366   3.380  0.0490  0.1473  1.7102
 3465TIP3    H210349   2.053   1.503   3.339 -1.6302 -0.1211 -1.4173
 3466TIP3   OH210350   5.331   4.207   2.547 -0.3277 -0.2731  0.2773
 3466TIP3    H110351   5.412   4.192   2.499 -0.0781  1.7752  0.0206
 3466TIP3    H210352   5.318   4.126   2.597  0.9558 -1.2836 -0.9663
 3467TIP3   OH210353   2.349   3.501   1.750  0.1890  0.1800 -0.0478
 3467TIP3    H110354   2.256   3.518   1.736 -0.1013  0.2765  1.8881
 3467TIP3    H210355   2.368   3.426   1.694 -0.8529  0.6760 -1.0954
 3468TIP3   OH210356   3.145   2.370   4.350 -0.5238 -0.7100 -0.4874
 3468TIP3    H110357   3.115   2.461   4.346  0.2669 -0.3485  1.3409
 3468TIP3    H210358   3.073   2.322   4.389 -0.0598 -0.4512  0.6977
 3469TIP3   OH210359   4.881   4.934   2.774 -0.2859 -0.1371  0.1691
 3469TIP3    H110360   4.861   5.012   2.721 -2.8085 -0.1681  0.9899
 3469TIP3    H210361   4.797   4.889   2.782  0.9224 -2.3653  0.6721
 3470TIP3   OH210362   3.723   2.798   2.227 -0.4355  0.0599  0.0444
 3470TIP3    H110363   3.664   2.812   2.301  0.4124  1.0605  0.5502
 3470TIP3    H210364   3.714   2.877   2.174 -0.8293 -0.5324 -0.7762
 3471TIP3   OH210365   4.585   4.751   5.166 -0.2643  0.0056  0.0797
 3471TIP3    H110366   4.523   4.814   5.129  0.5212  1.1124  0.6161
 3471TIP3    H210367   4.592   4.774   5.258 -3.2065 -3.5767  1.2961
 3472TIP3   OH210368   4.905   5.520   1.653 -0.7296  0.0199 -0.9687
 3472TIP3    H110369   4.919   5.587   1.587 -0.2185  2.0418  1.1172
 3472TIP3    H210370   4.959   5.547   1.727  1.7193 -4.2124 -1.0466
 3473TIP3   OH210371   3.019   3.667   0.527  0.7642 -0.1640  0.5421
 3473TIP3    H110372   3.108   3.675   0.560  1.3518  1.0684 -1.2566
 3473TIP3    H210373   3.021   3.590   0.470  0.1286 -1.3954  2.1510
 3474TIP3   OH210374   1.956   3.701   1.324  0.2522 -0.4096 -0.3368
 3474TIP3    H110375   2.039   3.685   1.279 -0.2167  0.3967 -1.5135
 3474TIP3    H210376   1.906   3.621   1.311  0.5850 -0.6417 -0.2062
 3475TIP3   OH210377   4.637   4.223   1.698  0.3414  0.3523 -0.5750
 3475TIP3    H110378   4.686   4.141   1.696 -1.1578 -0.6051  0.9683
 3475TIP3    H210379   4.679   4.274   1.767 -0.8395 -0.4704  0.7522
 3476TIP3   OH210380   2.845   2.212   0.195  0.6510 -0.4974  0.5423
 3476TIP3    H110381   2.848   2.276   0.123  1.5958 -1.2944 -0.1466
 3476TIP3    H210382   2.875   2.261   0.272 -1.3008  0.6272  0.6182
 3477TIP3   OH210383   2.349   3.177   0.410 -0.1819 -0.4783  0.2971
 3477TIP3    H110384   2.341   3.230   0.331 -0.8403 -1.3016 -0.1987
 3477TIP3    H210385   2.441   3.151   0.412 -0.6094 -2.2008 -1.3575
 3478TIP3   OH210386   4.798   5.441   2.384 -0.4039  0.5094 -0.0672
 3478TIP3    H110387   4.777   5.378   2.315  0.9423 -0.5587  0.4966
 3478TIP3    H210388   4.886   5.418   2.412 -0.4953  1.6745  1.2124
 3479TIP3   OH210389   5.128   1.429   2.869  0.7195  0.1148  0.0506
 3479TIP3    H110390   5.201   1.367   2.872  0.2112 -0.5074 -0.3407
 3479TIP3    H210391   5.052   1.378   2.898  0.3548  0.6370  0.0190
 3480TIP3   OH210392   3.617   3.210   1.422 -0.4161  0.2239 -0.4030
 3480TIP3    H110393   3.557   3.150   1.467  0.4324 -0.4493 -0.1615
 3480TIP3    H210394   3.686   3.153   1.389 -0.2695  0.9103 -1.2862
 3481TIP3   OH210395   6.970   6.907   6.096  0.0081  0.2464  0.1778
 3481TIP3    H110396   7.011   6.994   6.090  0.6731 -0.0355  0.6618
 3481TIP3    H210397   6.996   6.874   6.182 -1.3384  0.1153  0.5385
 3482TIP3   OH210398   3.141   5.163   2.888  0.4885  0.0160  0.3047
 3482TIP3    H110399   3.067   5.126   2.936 -1.0949  0.6954 -1.5260
 3482TIP3    H210400   3.218   5.134   2.936 -0.9084 -1.8141  1.5141
 3483TIP3   OH210401   4.682   4.748   3.231 -0.1493 -0.2688  0.4851
 3483TIP3    H110402   4.625   4.820   3.203 -1.2133 -0.8561  1.1368
 3483TIP3    H210403   4.748   4.791   3.287 -0.2632  0.3261  0.1695
 3484TIP3   OH210404   3.038   4.817   1.138 -0.6348  0.3163  0.9981
 3484TIP3    H110405   3.074   4.902   1.113  1.1958 -0.8771 -0.5244
 3484TIP3    H210406   2.943   4.828   1.129 -0.3003  1.4930 -1.5774
 3485TIP3   OH210407   4.671   5.633   2.881 -1.0459 -0.6831  0.8843
 3485TIP3    H110408   4.658   5.542   2.857  1.3300 -0.6454 -0.6600
 3485TIP3    H210409   4.698   5.676   2.800  0.3906  0.8400  2.1317
 3486TIP3   OH210410   5.615   5.087   3.473 -0.0820  0.1887 -0.6936
 3486TIP3    H110411   5.659   5.151   3.530 -0.9071  0.9703 -0.9165
 3486TIP3    H210412   5.652   5.003   3.499 -1.3243  0.3711  1.8593
 3487TIP3   OH210413   4.781   2.212   2.246  0.4441 -0.0043 -0.9499
 3487TIP3    H110414   4.771   2.223   2.341  2.7404 -1.8993 -0.4204
 3487TIP3    H210415   4.835   2.133   2.237 -0.3729 -0.2957 -3.8721
 3488TIP3   OH210416   4.741   5.465   3.717 -0.4343  0.3348 -0.2609
 3488TIP3    H110417   4.791   5.421   3.649  0.0100 -0.6564  0.6906
 3488TIP3    H210418   4.718   5.396   3.779  0.2711  1.4132  1.2509
 3489TIP3   OH210419   7.223   6.738   5.769  0.1463 -0.1460 -0.0966
 3489TIP3    H110420   7.133   6.735   5.803  0.7841 -1.7242  1.5831
 3489TIP3    H210421   7.249   6.646   5.764  1.4305  0.2601 -1.2825
 3490TIP3   OH210422   4.638   2.411   2.117 -0.3741  0.5170 -0.1303
 3490TIP3    H110423   4.637   2.376   2.028 -0.0598  2.3171 -0.8771
 3490TIP3    H210424   4.681   2.344   2.169 -2.2121 -1.3526 -0.9745
 3491TIP3   OH210425   3.011   6.181   3.698 -0.2209 -0.0679 -0.3586
 3491TIP3    H110426   2.941   6.224   3.747  0.5776  3.0267 -1.7973
 3491TIP3    H210427   3.037   6.107   3.752 -0.8050  1.9964  2.8461
 3492TIP3   OH210428   2.203   0.747   5.652 -0.2574  0.1809  0.0915
 3492TIP3    H110429   2.143   0.820   5.670 -0.5914  0.0159 -0.3306
 3492TIP3    H210430   2.148   0.669   5.661 -0.2401  0.0550 -0.8440
 3493TIP3   OH210431   4.239   6.523   6.207 -0.3460 -0.0392  0.2871
 3493TIP3    H110432   4.323   6.495   6.170 -0.6108  0.4575 -0.7120
 3493TIP3    H210433   4.187   6.443   6.209 -0.6659  0.1018 -1.3626
 3494TIP3   OH210434   3.608   5.445   2.308 -0.3559  0.0196 -0.5664
 3494TIP3    H110435   3.527   5.434   2.258 -0.6923  2.4488 -0.5830
 3494TIP3    H210436   3.653   5.518   2.267  0.9937 -0.1374  0.5793
 3495TIP3   OH210437   4.067   2.358   0.975 -0.2164  0.2835 -0.4321
 3495TIP3    H110438   4.113   2.281   0.942 -0.5596 -0.4297  0.6957
 3495TIP3    H210439   4.136   2.421   0.994  0.1952 -0.3029  0.0359
 3496TIP3   OH210440   4.967   4.640   1.719  0.1463 -0.0461  0.4914
 3496TIP3    H110441   4.976   4.600   1.632  1.2129 -1.0450  1.0515
 3496TIP3    H210442   5.056   4.666   1.743 -0.4116  1.8846  0.5250
 3497TIP3   OH210443   5.593   4.964   0.296  0.5332  0.1192 -0.3573
 3497TIP3    H110444   5.602   5.047   0.343  2.4041  0.0761 -0.6013
 3497TIP3    H210445   5.515   4.975   0.242 -0.9387  0.6277  1.8013
 3498TIP3   OH210446   5.659   5.953   3.211  0.1974 -0.4061  0.3754
 3498TIP3    H110447   5.647   5.863   3.243  0.2231  0.0907  1.7816
 3498TIP3    H210448   5.625   6.008   3.281  1.6476  0.7313  0.2086
 3499TIP3   OH210449   4.740   2.789   1.825 -0.0232 -0.0457 -0.6352
 3499TIP3    H110450   4.797   2.806   1.750 -1.8158  3.4724 -1.2677
 3499TIP3    H210451   4.660   2.754   1.786  0.0374 -0.8219 -0.0879
 3500TIP3   OH210452   4.972   2.818   3.384 -0.3342 -0.1194 -0.0853
 3500TIP3    H110453   4.941   2.908   3.397  1.2725  0.7771 -2.1589
 3500TIP3    H210454   5.046   2.809   3.444 -0.2018  0.1125 -0.2133
 3501TIP3   OH210455   3.646   3.160   0.981  0.4254  0.6586 -0.0031
 3501TIP3    H110456   3.637   3.085   1.040  0.7766 -0.8816 -1.8860
 3501TIP3    H210457   3.726   3.203   1.010  0.3708  0.1749  0.9109
 3502TIP3   OH210458   4.959   6.376   2.086 -0.2654  0.1122  0.3246
 3502TIP3    H110459   4.906   6.337   2.156  1.0579  1.0052  1.8810
 3502TIP3    H210460   4.906   6.447   2.052 -0.5209  0.3306  1.1534
 3503TIP3   OH210461   1.615   0.192   6.242  0.1985 -0.2023  0.5551
 3503TIP3    H110462   1.591   0.155   6.327  1.5481 -0.2823  0.9033
 3503TIP3    H210463   1.599   0.286   6.252 -2.0601 -0.5028  0.0629
 3504TIP3   OH210464   1.587   5.082   1.781  0.8067  0.0621  0.0464
 3504TIP3    H110465   1.603   5.070   1.688  0.0468 -1.1535  0.0579
 3504TIP3    H210466   1.672   5.066   1.822  1.0594  0.2274 -0.4077
 3505TIP3   OH210467   1.845   2.633   1.145 -0.5923  0.5693  0.2124
 3505TIP3    H110468   1.901   2.558   1.169 -0.9559  0.8458  1.9730
 3505TIP3    H210469   1.882   2.665   1.063 -0.6502 -1.7684 -0.7703
 3506TIP3   OH210470   4.221   2.396   2.207 -0.1544  0.3219 -0.0483
 3506TIP3    H110471   4.267   2.325   2.161 -0.1384  1.6409 -2.1178
 3506TIP3    H210472   4.291   2.452   2.240 -0.1287 -1.1596  2.5606
 3507TIP3   OH210473   2.607   4.299   1.202  0.0125 -0.0758 -0.3533
 3507TIP3    H110474   2.522   4.324   1.239  1.4837  0.1596  3.1126
 3507TIP3    H210475   2.652   4.383   1.187  0.3704 -0.2461 -0.2398
 3508TIP3   OH210476   2.857   3.871   2.157 -0.3221  0.9840  0.0387
 3508TIP3    H110477   2.862   3.776   2.155  1.1761  1.0249  0.7709
 3508TIP3    H210478   2.782   3.891   2.213 -0.4043  0.2438  0.1949
 3509TIP3   OH210479   5.567   2.670   2.147 -0.0023  0.5178 -0.0222
 3509TIP3    H110480   5.630   2.670   2.219 -0.5271 -1.5789  0.4664
 3509TIP3    H210481   5.599   2.602   2.088 -1.2111  0.1872 -0.3123
 3510TIP3   OH210482   3.766   4.069   3.166 -0.5228  0.4574 -1.2526
 3510TIP3    H110483   3.681   4.099   3.199 -0.9929 -0.1361 -1.9109
 3510TIP3    H210484   3.775   3.980   3.199  1.2408  1.5743  1.3731
 3511TIP3   OH210485   2.653   2.396   0.976  0.4753 -0.2170  0.0153
 3511TIP3    H110486   2.562   2.381   0.950 -0.6647  2.3485  2.3399
 3511TIP3    H210487   2.699   2.317   0.947 -2.7182 -2.1826  0.0260
 3512TIP3   OH210488   3.844   3.029   3.008 -0.7338 -0.2141  0.3209
 3512TIP3    H110489   3.772   2.967   3.022  0.8905 -2.8616 -2.4003
 3512TIP3    H210490   3.821   3.075   2.927  0.6239 -1.2037 -0.6702
 3513TIP3   OH210491   5.739   4.067   0.115 -0.7119 -0.2599 -0.4036
 3513TIP3    H110492   5.674   3.998   0.104 -0.6268 -0.2136 -1.2722
 3513TIP3    H210493   5.812   4.041   0.058 -0.4086  0.2104 -0.2368
 3514TIP3   OH210494   4.721   3.575   0.227 -0.4969 -0.3725 -0.5396
 3514TIP3    H110495   4.644   3.628   0.208 -2.1063 -1.9411  1.3458
 3514TIP3    H210496   4.728   3.575   0.323  1.7440 -0.4353 -0.6613
 3515TIP3   OH210497   3.520   4.428   1.742 -0.3119 -0.5350 -0.0295
 3515TIP3    H110498   3.554   4.417   1.654 -0.8320 -1.2086 -0.1567
 3515TIP3    H210499   3.595   4.412   1.799  0.0109 -0.1543 -0.3483
 3516TIP3   OH210500   4.043   2.890   1.235  0.5692 -0.4727  0.0913
 3516TIP3    H110501   4.096   2.834   1.293  0.9423 -0.5067 -0.2825
 3516TIP3    H210502   4.000   2.829   1.175  1.3808 -0.3253 -0.6506
 3517TIP3   OH210503   1.841   3.406   3.147 -0.1714 -0.0357  0.5777
 3517TIP3    H110504   1.836   3.381   3.055 -0.6121  1.8629  0.0752
 3517TIP3    H210505   1.926   3.449   3.156 -0.3949  0.3344  0.9280
 3518TIP3   OH210506   3.597   2.685   0.342  0.6068  0.0134 -0.0854
 3518TIP3    H110507   3.515   2.733   0.346  1.1732  1.0752 -0.8485
 3518TIP3    H210508   3.616   2.677   0.248 -0.2431 -3.0561 -0.0536
 3519TIP3   OH210509   3.434   3.862   0.989  0.1884  0.2746  0.9643
 3519TIP3    H110510   3.366   3.913   1.034 -0.5290 -0.3226  0.5598
 3519TIP3    H210511   3.513   3.879   1.040 -0.1713  1.3059  1.1948
 3520TIP3   OH210512   3.900   3.923   1.811 -0.2324 -0.0386 -0.3483
 3520TIP3    H110513   3.937   3.955   1.728 -0.6723 -1.7563 -1.2261
 3520TIP3    H210514   3.966   3.861   1.843 -1.7169 -2.1099 -1.2482
 3521TIP3   OH210515   2.434   5.658   2.350 -0.2585 -0.0712  0.0662
 3521TIP3    H110516   2.500   5.602   2.308 -0.0755  0.3540 -0.2111
 3521TIP3    H210517   2.367   5.597   2.381  0.2161 -0.4950  0.2586
 3522TIP3   OH210518   4.202   4.585   3.448  0.2245 -0.0111  0.0816
 3522TIP3    H110519   4.168   4.530   3.518 -0.8266  1.5955  0.8740
 3522TIP3    H210520   4.269   4.639   3.490  1.4294 -0.8600 -0.7391
 3523TIP3   OH210521   3.493   3.713   2.249 -0.2742 -0.5526 -0.8264
 3523TIP3    H110522   3.513   3.767   2.173 -0.7259 -1.0766 -1.3238
 3523TIP3    H210523   3.557   3.641   2.244 -0.6865 -0.9036 -1.0391
 3524TIP3   OH210524   5.324   6.072   1.544 -0.2978 -0.4161  0.1473
 3524TIP3    H110525   5.401   6.074   1.601  1.7423 -0.5728 -2.5137
 3524TIP3    H210526   5.252   6.097   1.601  1.6957 -0.3550  2.7470
 3525TIP3   OH210527   4.376   6.939   0.090 -0.0211 -0.2237 -0.2747
 3525TIP3    H110528   4.371   7.006   0.023 -0.5042 -0.0258 -0.0400
 3525TIP3    H210529   4.337   6.861   0.050 -3.8171  0.9096  1.0480
 3526TIP3   OH210530   3.111   5.269   2.635 -0.1235 -0.0188  0.4451
 3526TIP3    H110531   3.042   5.328   2.666 -1.0270 -1.8670  2.0827
 3526TIP3    H210532   3.137   5.220   2.713  1.9831 -0.4351 -0.4735
 3527TIP3   OH210533   1.052   2.963   2.113 -0.5311 -0.3180 -0.1329
 3527TIP3    H110534   1.113   2.995   2.180  1.2328 -1.1844 -1.2741
 3527TIP3    H210535   1.042   2.870   2.133 -1.3222 -0.2187 -0.0754
 3528TIP3   OH210536   4.917   5.737   1.495 -0.3560 -0.0726  0.6595
 3528TIP3    H110537   5.005   5.703   1.477  0.6717  1.1615  3.0701
 3528TIP3    H210538   4.914   5.820   1.446  0.2394  0.4190  1.4479
 3529TIP3   OH210539   4.290   3.668   0.746  0.7780 -0.6422  0.3779
 3529TIP3    H110540   4.339   3.705   0.819  1.2887 -0.9529  0.1904
 3529TIP3    H210541   4.308   3.574   0.750 -0.8796 -0.9421  1.1293
 3530TIP3   OH210542   4.277   4.428   1.405  0.3775  0.2527  0.5896
 3530TIP3    H110543   4.339   4.455   1.338 -1.2748  0.6357 -0.8130
 3530TIP3    H210544   4.262   4.335   1.387 -1.4164  0.7717 -0.7030
 3531TIP3   OH210545   4.154   4.213   3.057  0.5466  0.2682 -0.1093
 3531TIP3    H110546   4.217   4.164   3.004  0.2709  1.4096 -1.5629
 3531TIP3    H210547   4.089   4.243   2.993 -0.6046  0.4326  1.1330
 3532TIP3   OH210548   2.021   5.289   1.009  0.0416 -0.2445  0.6467
 3532TIP3    H110549   2.083   5.216   1.015  0.6567  0.2093 -0.1452
 3532TIP3    H210550   2.065   5.362   1.053 -0.6201 -0.3666  1.5396
 3533TIP3   OH210551   2.305   3.524   0.557  0.1433 -0.4578  0.2691
 3533TIP3    H110552   2.263   3.536   0.642 -1.6260 -0.2573 -0.6042
 3533TIP3    H210553   2.236   3.547   0.493  1.2213 -1.2874 -1.2144
 3534TIP3   OH210554   6.487   6.918   5.852 -0.3455  0.0357 -0.2576
 3534TIP3    H110555   6.576   6.932   5.820 -1.3104  1.3773 -2.5490
 3534TIP3    H210556   6.479   6.975   5.928  0.2245  1.3052 -1.1224
 3535TIP3   OH210557   4.168   3.757   0.017  0.3447 -0.5759 -0.2850
 3535TIP3    H110558   4.198   3.826   0.076 -1.4997 -0.2194  0.2529
 3535TIP3    H210559   4.081   3.734   0.049 -0.3087 -1.0320 -2.3111
 3536TIP3   OH210560   4.600   4.600   1.554  0.3393 -0.2494  0.1701
 3536TIP3    H110561   4.600   4.688   1.590  1.5505 -0.5575  0.9465
 3536TIP3    H210562   4.611   4.612   1.460 -1.2142  0.4864  0.0664
 3537TIP3   OH210563   4.704   5.703   2.614 -0.0661  0.3811 -0.1088
 3537TIP3    H110564   4.709   5.624   2.559  2.0391  1.0534 -0.9447
 3537TIP3    H210565   4.674   5.771   2.554  0.6841  0.7753 -0.0352
 3538TIP3   OH210566   3.167   4.145   2.485  0.3286  0.1375  0.0381
 3538TIP3    H110567   3.102   4.074   2.489 -0.4926  0.8459 -0.5175
 3538TIP3    H210568   3.216   4.127   2.405  0.0397  0.2508 -0.1694
 3539TIP3   OH210569   3.705   4.200   2.539 -0.6721 -0.2287  0.0260
 3539TIP3    H110570   3.721   4.170   2.449 -0.0615 -0.7222  0.2987
 3539TIP3    H210571   3.609   4.201   2.547 -0.7293 -0.1400 -0.6427
 3540TIP3   OH210572   5.144   5.136   4.039 -0.4537  0.5074  0.2313
 3540TIP3    H110573   5.124   5.229   4.026 -1.8371  0.0536 -1.0700
 3540TIP3    H210574   5.194   5.110   3.963  0.1219  0.2359  0.6983
 3541TIP3   OH210575   4.190   4.959   2.147 -0.5365 -0.6771  0.0018
 3541TIP3    H110576   4.245   4.920   2.079 -0.5682 -0.8946  0.1033
 3541TIP3    H210577   4.102   4.927   2.129 -1.0368  1.3893 -1.4890
 3542TIP3   OH210578   3.282   4.546   4.061  0.2059  0.0812 -0.7202
 3542TIP3    H110579   3.323   4.629   4.036 -0.1839  1.1946  2.1488
 3542TIP3    H210580   3.339   4.479   4.024  2.6613  1.6398  0.1240
 3543TIP3   OH210581   3.885   3.738   3.650 -0.4169 -0.1380  0.1849
 3543TIP3    H110582   3.892   3.803   3.580 -1.7076  1.5310  1.5387
 3543TIP3    H210583   3.871   3.790   3.730  0.7927 -1.9915  1.6611
 3544TIP3   OH210584   4.321   4.820   1.945 -0.1758 -0.2933 -0.0012
 3544TIP3    H110585   4.335   4.869   1.865 -0.4966 -0.5198 -0.1969
 3544TIP3    H210586   4.399   4.764   1.953 -0.3334 -0.5647 -0.3693
 3545TIP3   OH210587   3.491   2.112   2.973  0.2186  0.3452  0.2100
 3545TIP3    H110588   3.536   2.186   3.014  1.6637 -1.4770  2.0328
 3545TIP3    H210589   3.408   2.105   3.021 -0.2971  1.3068 -0.5401
 3546TIP3   OH210590   5.330   3.269   3.301  0.2344  0.2839  0.4445
 3546TIP3    H110591   5.395   3.217   3.348  0.4069  1.5985  1.6975
 3546TIP3    H210592   5.256   3.275   3.361 -0.5427 -0.1154 -0.4626
 3547TIP3   OH210593   1.757   4.241   2.276  0.7810  0.0918 -0.0139
 3547TIP3    H110594   1.802   4.161   2.301 -0.3856 -0.1007  1.5458
 3547TIP3    H210595   1.664   4.219   2.280  0.4919  0.7591 -2.2366
 3548TIP3   OH210596   3.784   3.464   1.990  0.7747 -0.2509 -0.6927
 3548TIP3    H110597   3.719   3.448   2.058 -0.6308 -2.8209 -2.5730
 3548TIP3    H210598   3.739   3.519   1.926  0.9830 -0.6839 -1.2145
 3549TIP3   OH210599   4.273   3.530   1.756 -0.0059 -0.0010  0.7481
 3549TIP3    H110600   4.217   3.599   1.792 -1.9526 -0.0498 -2.0370
 3549TIP3    H210601   4.325   3.575   1.688 -0.3538 -1.0012 -0.1909
 3550TIP3   OH210602   3.560   4.428   2.263  0.0380 -1.0515  0.3058
 3550TIP3    H110603   3.507   4.417   2.343 -0.6478  1.5324  0.2497
 3550TIP3    H210604   3.496   4.452   2.196  1.0741  0.4890 -0.1428
 3551TIP3   OH210605   1.763   3.100   0.828 -0.6301  0.4641  0.2859
 3551TIP3    H110606   1.676   3.131   0.852 -0.3466  1.6427 -0.1745
 3551TIP3    H210607   1.822   3.169   0.858  0.2441 -0.7496  1.4427
 3552TIP3   OH210608   1.690   4.399   1.681  0.4487  0.2570 -0.8168
 3552TIP3    H110609   1.729   4.320   1.642 -0.5743  0.1268 -1.6129
 3552TIP3    H210610   1.651   4.445   1.606  1.2530  1.6519 -0.3945
 3553TIP3   OH210611   1.751   4.391   2.563  0.6037  0.1518 -0.1806
 3553TIP3    H110612   1.782   4.438   2.485 -0.6595  1.0669 -0.1431
 3553TIP3    H210613   1.816   4.412   2.630  1.3831 -0.1680 -0.8305
 3554TIP3   OH210614   6.985   6.381   5.082 -0.2678  0.0332  0.4045
 3554TIP3    H110615   7.050   6.388   5.151  0.2687  0.0086 -0.0927
 3554TIP3    H210616   7.002   6.296   5.042 -0.3093  0.2218 -0.0166
 3555TIP3   OH210617   5.843   4.547   1.546  0.0381 -0.2421 -0.0442
 3555TIP3    H110618   5.776   4.577   1.607  0.6302  0.2423  0.3675
 3555TIP3    H210619   5.921   4.533   1.600  0.8883  1.2742 -0.8497
 3556TIP3   OH210620   5.415   4.197   4.666 -0.1265 -0.6584 -0.1883
 3556TIP3    H110621   5.339   4.173   4.613 -0.6991  0.1119  0.2758
 3556TIP3    H210622   5.461   4.264   4.615  1.2113 -2.3528 -1.2656
 3557TIP3   OH210623   3.478   3.035   0.474  0.1594  0.0671  0.5008
 3557TIP3    H110624   3.421   2.959   0.463 -0.9898  0.9780  0.0780
 3557TIP3    H210625   3.558   2.999   0.511  0.3359 -1.6254 -1.4273
 3558TIP3   OH210626   5.656   4.264   2.708  0.0227 -0.5842  0.0199
 3558TIP3    H110627   5.579   4.216   2.739  0.2802 -0.1019  1.4273
 3558TIP3    H210628   5.722   4.248   2.775  1.3054 -1.3879 -1.4108
 3559TIP3   OH210629   5.980   5.754   2.024 -0.1046 -0.1073 -0.5322
 3559TIP3    H110630   5.966   5.660   2.012 -1.4291  0.0936 -0.6830
 3559TIP3    H210631   5.907   5.794   1.977  0.5686  0.9994 -0.6286
 3560TIP3   OH210632   4.007   4.204   1.105 -0.5368 -0.3226 -0.0420
 3560TIP3    H110633   3.930   4.148   1.106  0.0290 -1.0991  1.8347
 3560TIP3    H210634   4.045   4.191   1.018 -1.2267 -1.7257 -0.1436
 3561TIP3   OH210635   3.478   2.784   2.716  0.2300 -0.1111 -0.1703
 3561TIP3    H110636   3.458   2.707   2.663  1.5116  0.1891 -1.1065
 3561TIP3    H210637   3.394   2.808   2.756  0.0148 -2.6469  1.0335
 3562TIP3   OH210638   4.208   2.195   0.686  0.3645 -0.3739  0.4906
 3562TIP3    H110639   4.203   2.288   0.667  1.0615 -0.0672  1.7322
 3562TIP3    H210640   4.195   2.152   0.601  2.5786  0.9049 -0.5276
 3563TIP3   OH210641   5.477   4.043   1.721 -0.1193  0.7974 -0.4144
 3563TIP3    H110642   5.406   3.995   1.764  1.3376  0.4843  1.7121
 3563TIP3    H210643   5.458   4.135   1.739  0.4339  0.6720  0.8736
 3564TIP3   OH210644   3.538   4.042   3.522 -0.5510 -0.3387 -0.1718
 3564TIP3    H110645   3.445   4.051   3.504 -0.7692 -1.6931  0.2173
 3564TIP3    H210646   3.581   4.098   3.458 -1.5573 -1.0012 -1.4459
 3565TIP3   OH210647   3.037   3.400   1.894  0.5285  0.6695  0.0121
 3565TIP3    H110648   2.980   3.462   1.940  1.2641  1.0307  0.4558
 3565TIP3    H210649   3.026   3.317   1.940 -2.3344 -0.1798 -2.0949
 3566TIP3   OH210650   6.451   2.945   2.369 -0.0102 -0.3923  0.4817
 3566TIP3    H110651   6.482   2.866   2.324 -1.6854 -0.6032 -0.3515
 3566TIP3    H210652   6.362   2.924   2.395 -0.3329  1.0796  0.6182
 3567TIP3   OH210653   3.934   3.301   1.418 -0.5145 -0.6367 -0.1051
 3567TIP3    H110654   3.992   3.376   1.421 -0.4096 -0.7317  0.2502
 3567TIP3    H210655   3.858   3.331   1.369  0.7022 -1.1161 -2.3330
 3568TIP3   OH210656   5.076   4.548   0.286 -0.3404 -0.1542 -0.4786
 3568TIP3    H110657   5.073   4.585   0.374 -0.7055  0.3126 -0.6886
 3568TIP3    H210658   5.156   4.494   0.285  1.7519  2.8344 -1.0498
 3569TIP3   OH210659   4.476   1.082   2.375  0.4866 -0.1575  0.6082
 3569TIP3    H110660   4.470   0.995   2.337  1.7380 -0.2659  0.6271
 3569TIP3    H210661   4.446   1.141   2.306  1.6475 -0.4436 -0.1459
 3570TIP3   OH210662   4.499   4.284   2.242 -0.1056  0.4817 -0.3475
 3570TIP3    H110663   4.581   4.330   2.225  1.6278 -1.6031  2.1121
 3570TIP3    H210664   4.461   4.329   2.317  0.5209 -0.6852  0.6881
 3571TIP3   OH210665   3.303   4.063   2.266  0.1108 -1.0634 -0.2606
 3571TIP3    H110666   3.241   4.070   2.193 -1.2943  0.5636  1.0434
 3571TIP3    H210667   3.389   4.074   2.226 -0.6817  0.4626 -1.5968
 3572TIP3   OH210668   5.000   3.516   2.742 -0.6374  0.5716 -0.3079
 3572TIP3    H110669   5.001   3.600   2.697 -2.0278  0.6876 -0.1258
 3572TIP3    H210670   4.927   3.468   2.703 -0.2230 -0.3310  0.0061
 3573TIP3   OH210671   3.980   2.508   2.167 -0.2888 -0.0692 -0.6180
 3573TIP3    H110672   3.998   2.579   2.104 -0.9918 -1.0755 -1.9880
 3573TIP3    H210673   4.066   2.474   2.190 -0.0433 -0.0633 -1.4811
 3574TIP3   OH210674   3.865   3.280   1.094  0.2509  0.8296  0.0293
 3574TIP3    H110675   3.924   3.341   1.049 -0.5840  1.4342 -0.2660
 3574TIP3    H210676   3.801   3.337   1.136 -1.4547  0.0908 -1.5325
 3575TIP3   OH210677   2.255   4.760   1.693 -0.4833  0.3932  0.0073
 3575TIP3    H110678   2.311   4.829   1.659 -1.5715  0.9644 -0.6741
 3575TIP3    H210679   2.281   4.682   1.645 -0.0797  0.6017 -0.1115
 3576TIP3   OH210680   4.836   4.569   1.056 -0.1863  0.3102  0.3287
 3576TIP3    H110681   4.852   4.550   0.964  0.2536  1.8457  0.0623
 3576TIP3    H210682   4.896   4.512   1.104 -0.8132 -0.8982 -0.3027
 3577TIP3   OH210683   1.803   0.702   4.876 -0.2301 -0.5617 -0.0313
 3577TIP3    H110684   1.852   0.642   4.820 -1.3397 -1.3047 -0.2145
 3577TIP3    H210685   1.800   0.658   4.961 -0.0777 -0.2454  0.1386
 3578TIP3   OH210686   0.113   0.312   5.535 -0.2796  0.5395  0.0417
 3578TIP3    H110687   0.117   0.237   5.475  0.0483 -0.7092  1.5749
 3578TIP3    H210688   0.194   0.360   5.518 -0.2299  0.2468 -0.5825
 3579TIP3   OH210689   2.266   4.519   1.559 -0.0440 -0.8777  0.5546
 3579TIP3    H110690   2.197   4.463   1.596 -0.0220 -1.3600 -0.1315
 3579TIP3    H210691   2.330   4.458   1.523 -0.0635 -0.4155 -0.2831
 3580TIP3   OH210692   4.225   4.647   1.674 -0.0946  0.0328  0.0833
 3580TIP3    H110693   4.319   4.659   1.681 -0.2504  0.6490  1.2507
 3580TIP3    H210694   4.201   4.599   1.754 -1.3894  3.7441  2.0080
 3581TIP3   OH210695   6.802   5.365   1.864 -0.0890  0.0179 -0.3656
 3581TIP3    H110696   6.854   5.439   1.894  0.7180 -0.4846 -0.5132
 3581TIP3    H210697   6.866   5.300   1.838 -0.7815 -1.1889  0.8678
 3582TIP3   OH210698   4.045   5.179   1.821  0.5391 -0.3465  0.1894
 3582TIP3    H110699   4.040   5.090   1.786 -2.6236 -0.2993  0.3926
 3582TIP3    H210700   4.035   5.236   1.745 -1.2276 -0.2175  0.4962
 3583TIP3   OH210701   2.409   3.312   1.535  0.2429  0.3223 -0.4358
 3583TIP3    H110702   2.373   3.230   1.569  0.6846  0.5723  0.6568
 3583TIP3    H210703   2.338   3.350   1.483  0.0146 -0.7220 -0.8974
 3584TIP3   OH210704   4.649   6.884   2.163  0.1274 -0.5912  0.2583
 3584TIP3    H110705   4.692   6.956   2.207  1.3625 -0.5468 -0.9817
 3584TIP3    H210706   4.691   6.805   2.198 -0.0036 -0.6341  0.3226
 3585TIP3   OH210707   4.536   2.948   3.025 -0.2079  0.1937 -0.0149
 3585TIP3    H110708   4.524   2.903   3.109 -1.7655 -1.2337 -0.9727
 3585TIP3    H210709   4.496   2.890   2.961 -0.2830  1.9307 -1.5785
 3586TIP3   OH210710   5.175   5.874   2.246 -0.4878 -0.5978 -0.2909
 3586TIP3    H110711   5.203   5.806   2.308  2.3467  0.7207 -0.0066
 3586TIP3    H210712   5.231   5.861   2.170  0.2603  1.5232 -0.1337
 3587TIP3   OH210713   3.031   6.705   3.659 -0.3507 -0.5499 -0.2333
 3587TIP3    H110714   3.035   6.652   3.579  0.3920  0.3319 -0.7895
 3587TIP3    H210715   2.951   6.675   3.703 -0.8781 -0.9082 -1.4034
 3588TIP3   OH210716   4.750   3.745   0.955 -0.1759 -0.4426  0.0014
 3588TIP3    H110717   4.715   3.818   0.903 -0.8259  0.6889  1.9895
 3588TIP3    H210718   4.806   3.786   1.020  0.2055 -1.8096  0.5556
 3589TIP3   OH210719   4.974   3.179   0.611  0.2944 -0.2792 -0.6306
 3589TIP3    H110720   5.058   3.198   0.652  0.4258  0.4042 -1.2086
 3589TIP3    H210721   4.993   3.108   0.550  0.8163  0.9721 -1.9689
 3590TIP3   OH210722   4.355   5.854   2.487 -0.0131 -0.0255  0.2065
 3590TIP3    H110723   4.319   5.787   2.545  0.3763  0.6487  1.2482
 3590TIP3    H210724   4.295   5.857   2.413 -2.1000  1.0382  1.8781
 3591TIP3   OH210725   2.794   6.403   2.604  0.6228  0.8625 -0.1670
 3591TIP3    H110726   2.841   6.386   2.521 -0.0197  1.1721 -0.5944
 3591TIP3    H210727   2.715   6.450   2.578 -0.5593 -0.7709  0.4272
 3592TIP3   OH210728   2.133   4.312   1.694  0.5094  0.1835 -0.4638
 3592TIP3    H110729   2.202   4.261   1.737  0.8426  0.9545 -0.0768
 3592TIP3    H210730   2.103   4.256   1.623 -0.3478 -1.3011  1.0362
 3593TIP3   OH210731   2.616   3.086   0.385 -0.3698 -0.2083  0.2736
 3593TIP3    H110732   2.687   3.142   0.418 -0.3411 -0.9056  1.4477
 3593TIP3    H210733   2.662   3.016   0.338 -0.3074 -0.2142  0.3415
 3594TIP3   OH210734   2.943   1.902   3.222  0.2975 -0.4391 -0.5808
 3594TIP3    H110735   2.854   1.867   3.228 -0.3054  1.1244 -0.1706
 3594TIP3    H210736   2.952   1.931   3.131 -0.3991  1.3869 -0.0930
 3595TIP3   OH210737   4.247   0.594   3.131 -0.1092 -0.4815  0.4351
 3595TIP3    H110738   4.343   0.598   3.134 -0.0464 -2.2668  1.0394
 3595TIP3    H210739   4.227   0.507   3.097 -1.5437 -0.7071  1.8139
 3596TIP3   OH210740   2.169   1.248   1.087  0.3359 -0.2889 -0.1112
 3596TIP3    H110741   2.108   1.174   1.086  0.2703 -0.2411  0.4711
 3596TIP3    H210742   2.221   1.237   1.007 -0.7440 -0.0618 -0.8559
 3597TIP3   OH210743   2.504   2.283   0.332  0.1485 -0.0457 -0.2369
 3597TIP3    H110744   2.516   2.324   0.417 -0.2924  0.4513 -0.4053
 3597TIP3    H210745   2.511   2.189   0.348 -0.3975  0.0279  0.4240
 3598TIP3   OH210746   3.939   2.888   0.623  0.3987 -0.0960 -0.2418
 3598TIP3    H110747   3.977   2.814   0.672  0.9775 -0.3709 -1.0866
 3598TIP3    H210748   3.964   2.965   0.674  3.0859 -0.1805 -1.3530
 3599TIP3   OH210749   6.883   7.028   5.557  0.0320 -0.0256 -0.6863
 3599TIP3    H110750   6.958   7.009   5.614 -1.7072 -3.3791  0.6587
 3599TIP3    H210751   6.920   7.028   5.468  1.4157 -3.2651 -0.1946
 3600TIP3   OH210752   5.401   1.923   3.536  0.5749 -0.6408 -0.5827
 3600TIP3    H110753   5.370   1.985   3.470  0.6754  0.0804  0.0432
 3600TIP3    H210754   5.354   1.946   3.615  0.9932 -1.0399 -0.2106
 3601TIP3   OH210755   4.230   1.802   0.933 -0.4710  0.9473  0.3974
 3601TIP3    H110756   4.146   1.759   0.919 -0.6674  1.3549  0.3391
 3601TIP3    H210757   4.287   1.732   0.966 -0.2009  0.1425 -1.7100
 3602TIP3   OH210758   2.349   3.297   0.728 -0.2454 -0.5236 -0.2551
 3602TIP3    H110759   2.335   3.203   0.718  0.7616 -0.4659 -2.5965
 3602TIP3    H210760   2.340   3.332   0.639 -0.0422  1.5119  0.4992
 3603TIP3   OH210761   4.365   1.452   2.728 -0.8116  0.4753  0.5301
 3603TIP3    H110762   4.275   1.449   2.759 -0.5190 -2.5928  1.1895
 3603TIP3    H210763   4.410   1.384   2.777  1.5464  1.0076 -0.8154
 3604TIP3   OH210764   2.072   3.966   0.386  0.0817  0.5349  0.0164
 3604TIP3    H110765   2.060   3.874   0.412 -0.0213  0.4200 -0.4368
 3604TIP3    H210766   2.060   3.966   0.292  0.1361  1.0110  0.0084
 3605TIP3   OH210767   1.433   0.621   6.103 -0.2608  0.2246  0.2208
 3605TIP3    H110768   1.459   0.564   6.175  2.8053  0.3230 -0.7309
 3605TIP3    H210769   1.422   0.707   6.143  1.0015  0.1874  0.6831
 3606TIP3   OH210770   3.990   5.199   2.356  0.2907  0.0718  0.4689
 3606TIP3    H110771   3.897   5.196   2.333  0.0807  0.8054  1.1697
 3606TIP3    H210772   4.034   5.226   2.275 -0.1556  0.1636  0.2557
 3607TIP3   OH210773   4.468   3.217   2.992  0.1004  0.0582  0.5339
 3607TIP3    H110774   4.519   3.267   3.056 -0.9089  0.8461  0.7262
 3607TIP3    H210775   4.505   3.129   2.996 -1.7608 -0.6638  4.2927
 3608TIP3   OH210776   1.430   5.345   2.205  0.4803  0.3388  0.4838
 3608TIP3    H110777   1.404   5.272   2.149 -0.5818  1.4294 -0.4744
 3608TIP3    H210778   1.490   5.397   2.151  0.9589  0.3680  1.0384
 3609TIP3   OH210779   5.053   4.621   2.566  0.1922  0.5014  0.1127
 3609TIP3    H110780   5.090   4.585   2.646 -1.6588  0.2936  0.9006
 3609TIP3    H210781   5.020   4.545   2.518  0.5887  0.7030 -0.4906
 3610TIP3   OH210782   6.759   7.314   3.370  0.4391 -0.1487  0.5684
 3610TIP3    H110783   6.854   7.311   3.377  0.2051 -2.2397  3.6460
 3610TIP3    H210784   6.730   7.355   3.451 -1.3850 -1.7216  0.7348
 3611TIP3   OH210785   2.721   1.023   5.762 -0.0138  0.2897  0.3754
 3611TIP3    H110786   2.678   1.103   5.731 -0.8112  0.4852  1.9280
 3611TIP3    H210787   2.651   0.959   5.772  0.5318 -0.4074 -0.2519
 3612TIP3   OH210788   6.868   6.462   1.772  0.5530  0.3083  0.0991
 3612TIP3    H110789   6.787   6.488   1.818  0.2457 -1.5306  0.6159
 3612TIP3    H210790   6.921   6.542   1.771 -0.2112  0.8744  2.0190
 3613TIP3   OH210791   5.766   4.920   2.053  0.6009 -0.4185  0.2790
 3613TIP3    H110792   5.843   4.970   2.078 -0.4915  1.1605  0.5078
 3613TIP3    H210793   5.762   4.928   1.957  1.1651 -1.1830  0.1823
 3614TIP3   OH210794   7.530   4.378   2.387 -0.5944 -0.0584  0.1502
 3614TIP3    H110795   7.555   4.292   2.421 -0.2288 -0.2650 -0.6222
 3614TIP3    H210796   7.516   4.363   2.293 -0.7833  0.6725  0.0595
 3615TIP3   OH210797   4.509   0.823   4.615  0.3093 -0.2485  0.0585
 3615TIP3    H110798   4.601   0.848   4.627  0.7656 -0.4682 -2.6860
 3615TIP3    H210799   4.475   0.886   4.551 -1.0318 -1.1071 -0.0966
 3616TIP3   OH210800   4.199   4.044   2.267 -0.1644 -0.3632  0.1592
 3616TIP3    H110801   4.292   4.049   2.242 -0.0657 -1.6045  0.2602
 3616TIP3    H210802   4.157   3.999   2.193 -1.0652  2.0762 -0.8542
 3617TIP3   OH210803   1.790   0.687   6.033  0.2790  0.1863  0.0127
 3617TIP3    H110804   1.794   0.592   6.018  1.1937 -0.0969  1.9344
 3617TIP3    H210805   1.763   0.696   6.124  0.8764  1.7651  0.0462
 3618TIP3   OH210806   6.220   4.969   0.764  0.0905  0.3230  0.0047
 3618TIP3    H110807   6.224   5.062   0.742  0.6741  0.2754 -0.1120
 3618TIP3    H210808   6.201   4.966   0.857  0.6382  0.5698  0.1272
 3619TIP3   OH210809   5.540   5.156   3.102  0.0844  0.2040 -0.1418
 3619TIP3    H110810   5.605   5.218   3.068  0.3616 -0.9543 -1.8301
 3619TIP3    H210811   5.502   5.117   3.023 -0.5682 -1.2489  0.8788
 3620TIP3   OH210812   5.509   3.823   0.359 -0.3334  0.1584  0.1277
 3620TIP3    H110813   5.491   3.733   0.389 -0.0284 -0.7457 -2.3260
 3620TIP3    H210814   5.427   3.870   0.375 -0.7533 -0.7474  0.7250
 3621TIP3   OH210815   5.575   1.753   3.081  0.6569  0.0572  0.2401
 3621TIP3    H110816   5.560   1.683   3.144  1.3986 -0.3121  0.0019
 3621TIP3    H210817   5.669   1.750   3.063  0.3941 -0.0574 -1.1421
 3622TIP3   OH210818   4.345   5.173   2.184 -0.4249  0.2634  0.1610
 3622TIP3    H110819   4.306   5.085   2.192 -0.0720  0.1993  1.2289
 3622TIP3    H210820   4.381   5.175   2.095  1.3234 -1.4088  0.8041
 3623TIP3   OH210821   7.142   3.011   2.019 -0.2263 -0.1943 -0.3297
 3623TIP3    H110822   7.224   3.012   2.069  0.3416  0.3196 -1.2712
 3623TIP3    H210823   7.084   2.954   2.071  0.0042  1.1480  1.4565
 3624TIP3   OH210824   5.376   6.622   6.115 -0.2075 -0.6062 -0.3320
 3624TIP3    H110825   5.291   6.590   6.084  0.4135 -1.5785 -1.0196
 3624TIP3    H210826   5.439   6.590   6.052  0.7941 -0.6298  0.6596
 3625TIP3   OH210827   2.975   1.102   5.812  0.1006 -0.0401 -0.5686
 3625TIP3    H110828   2.885   1.090   5.779 -0.8304  1.8690  1.1386
 3625TIP3    H210829   2.973   1.066   5.901  0.8849  0.4274 -0.3546
 3626TIP3   OH210830   7.213   3.868   3.651  0.2462  0.4991 -0.0325
 3626TIP3    H110831   7.251   3.845   3.735 -1.2927 -0.9456  0.2971
 3626TIP3    H210832   7.229   3.962   3.642  2.3225  0.2484  0.8569
 3627TIP3   OH210833   2.560   2.123   2.313  0.1915  0.0062  0.0906
 3627TIP3    H110834   2.575   2.091   2.224  1.0207 -0.4561  0.3934
 3627TIP3    H210835   2.581   2.048   2.369 -1.7602 -0.1820  0.6130
 3628TIP3   OH210836   6.408   5.794   1.426  0.9361 -0.1801 -0.0729
 3628TIP3    H110837   6.377   5.712   1.464 -1.1573  0.5880 -0.0280
 3628TIP3    H210838   6.371   5.795   1.338  1.5602  0.3746 -0.3320
 3629TIP3   OH210839   3.822   3.039   5.600  0.3076 -0.3963 -0.3397
 3629TIP3    H110840   3.790   3.064   5.686 -0.1160  1.1746 -0.9346
 3629TIP3    H210841   3.912   3.010   5.616 -0.2391 -1.4749  0.8284
 3630TIP3   OH210842   5.300   4.425   2.254  0.0278  0.0181 -0.0564
 3630TIP3    H110843   5.334   4.513   2.268 -1.6519  0.6025  0.4592
 3630TIP3    H210844   5.375   4.375   2.219  1.1937  1.4286  0.4005
 3631TIP3   OH210845   4.837   2.418   0.179  0.4803 -0.1687 -0.4569
 3631TIP3    H110846   4.917   2.373   0.206  1.4452  0.9191 -1.4454
 3631TIP3    H210847   4.868   2.501   0.143 -1.1810  0.7691  0.2293
 3632TIP3   OH210848   5.201   4.242   1.253 -0.4151 -0.2014 -0.3775
 3632TIP3    H110849   5.183   4.159   1.296 -1.0906 -0.2499 -0.7567
 3632TIP3    H210850   5.290   4.233   1.220 -0.2007 -0.4809  0.2713
 3633TIP3   OH210851   7.799   5.708   5.846  0.5403 -0.0461 -0.9813
 3633TIP3    H110852   7.747   5.771   5.896 -0.1427 -0.2170 -1.4626
 3633TIP3    H210853   7.841   5.760   5.777  1.5463  0.2027 -0.1835
 3634TIP3   OH210854   5.944   5.921   1.229  0.4575 -0.6397  0.3742
 3634TIP3    H110855   5.964   6.014   1.217 -0.7385 -0.5352 -0.9714
 3634TIP3    H210856   5.953   5.906   1.323  0.5984  0.8487  0.6017
 3635TIP3   OH210857   6.632   3.019   0.349  0.3465 -0.2600 -0.0874
 3635TIP3    H110858   6.615   3.064   0.266  0.5752 -0.1447 -0.0736
 3635TIP3    H210859   6.568   2.948   0.352 -0.6823  0.6724  0.3503
 3636TIP3   OH210860   4.769   1.584   3.964 -0.5029 -0.3567 -0.2778
 3636TIP3    H110861   4.821   1.513   4.002  0.0905 -0.6109 -1.5791
 3636TIP3    H210862   4.811   1.664   3.995  0.1411 -0.5637 -0.6167
 3637TIP3   OH210863   4.379   3.765   2.794  0.5283  0.4841  0.1892
 3637TIP3    H110864   4.390   3.855   2.762  0.2751  0.8155  1.0320
 3637TIP3    H210865   4.301   3.733   2.749  1.0696  0.4215 -0.7054
 3638TIP3   OH210866   5.939   6.455   6.263 -0.0030 -0.2401 -0.0838
 3638TIP3    H110867   6.032   6.439   6.248  0.0466 -1.7034  1.5649
 3638TIP3    H210868   5.932   6.465   6.358 -1.3531  1.1116 -0.3110
 3639TIP3   OH210869   0.322   4.590   2.579  0.0295 -0.0820 -0.4091
 3639TIP3    H110870   0.264   4.579   2.654  0.7496 -2.7759 -0.1759
 3639TIP3    H210871   0.269   4.564   2.504  0.9455 -2.8317 -0.1634
 3640TIP3   OH210872   5.233   2.108   2.621  0.3032 -0.7037 -0.7524
 3640TIP3    H110873   5.236   2.154   2.705 -4.2436  0.4238 -1.0277
 3640TIP3    H210874   5.247   2.176   2.555 -0.4583 -0.7851 -1.0044
 3641TIP3   OH210875   4.669   4.603   0.777 -0.4637 -0.2367 -0.0901
 3641TIP3    H110876   4.624   4.670   0.726 -0.0158 -0.2258 -0.4759
 3641TIP3    H210877   4.660   4.632   0.868 -0.0870  0.4634 -0.2743
 3642TIP3   OH210878   7.592   3.320   1.789  0.0708 -1.1419 -0.0561
 3642TIP3    H110879   7.543   3.387   1.838  3.2841  0.7837  0.6915
 3642TIP3    H210880   7.528   3.283   1.728 -3.3157 -1.5246  3.5054
 3643TIP3   OH210881   6.679   6.062   1.981 -0.3547  0.0994 -0.4993
 3643TIP3    H110882   6.732   6.046   2.059  1.0360 -0.5724 -1.5602
 3643TIP3    H210883   6.700   6.152   1.955 -0.4761  0.1674 -0.3643
 3644TIP3   OH210884   7.148   4.404   0.339 -0.4208 -0.0175  0.4984
 3644TIP3    H110885   7.078   4.446   0.390 -0.8444  1.9281 -1.5899
 3644TIP3    H210886   7.114   4.400   0.250  1.3160 -0.9606 -0.1467
 3645TIP3   OH210887   6.084   4.701   2.521  0.1891  0.2188 -0.1560
 3645TIP3    H110888   6.139   4.622   2.520 -1.9051 -1.3176  1.4132
 3645TIP3    H210889   6.089   4.733   2.611 -0.5383  0.7321 -0.2927
 3646TIP3   OH210890   5.843   4.064   2.839  0.1824 -0.2377  0.1242
 3646TIP3    H110891   5.912   4.127   2.820 -0.0971  0.2934  0.8742
 3646TIP3    H210892   5.887   3.979   2.839  0.9688  0.1602  1.2940
 3647TIP3   OH210893   0.078   6.271   1.393 -0.2330 -0.6511  0.3547
 3647TIP3    H110894   0.021   6.346   1.408 -0.3171 -0.5688 -0.3264
 3647TIP3    H210895   0.065   6.250   1.300  1.8491  0.2091 -0.1564
 3648TIP3   OH210896   5.250   4.835   0.865  0.0207  0.7555 -0.2477
 3648TIP3    H110897   5.286   4.878   0.787 -3.0846  1.1828 -1.5400
 3648TIP3    H210898   5.308   4.761   0.881  0.7898  0.7338 -2.9344
 3649TIP3   OH210899   5.659   5.185   1.653 -0.3866  0.1589  0.2569
 3649TIP3    H110900   5.566   5.166   1.642 -0.0698 -0.6175 -1.2966
 3649TIP3    H210901   5.686   5.225   1.570  0.5197  0.9833  0.9348
 3650TIP3   OH210902   4.872   2.275   2.491  0.3163  0.1643 -0.0827
 3650TIP3    H110903   4.833   2.331   2.558  1.9835 -1.4418  2.3127
 3650TIP3    H210904   4.922   2.336   2.435 -0.2188  1.3947  0.7483
 3651TIP3   OH210905   4.632   3.358   0.077  0.1788 -0.0573 -0.7299
 3651TIP3    H110906   4.677   3.414   0.140  0.8549 -0.0488 -1.2161
 3651TIP3    H210907   4.556   3.324   0.125  1.3446 -1.0183  0.4852
 3652TIP3   OH210908   7.324   6.736   6.076  0.1761  0.1469 -0.6366
 3652TIP3    H110909   7.285   6.725   6.163 -0.0365  0.3233 -0.7098
 3652TIP3    H210910   7.263   6.794   6.029 -0.2520 -0.8035 -1.2572
 3653TIP3   OH210911   4.096   3.915   2.526 -0.1708 -0.7455 -0.3528
 3653TIP3    H110912   4.141   3.959   2.453 -0.5335 -1.7508 -1.1938
 3653TIP3    H210913   4.047   3.985   2.569  0.7509  0.0245 -0.5365
 3654TIP3   OH210914   5.044   6.765   2.212 -0.3516  0.0552  0.6955
 3654TIP3    H110915   5.022   6.826   2.141  1.9758  0.2771  0.1436
 3654TIP3    H210916   4.959   6.727   2.237 -1.7205  2.7932  0.4138
 3655TIP3   OH210917   5.887   3.895   1.463 -0.0942 -0.7189  0.1500
 3655TIP3    H110918   5.955   3.884   1.396  0.8372 -1.4379  1.1986
 3655TIP3    H210919   5.810   3.923   1.414  1.3657  1.6245 -0.8548
 3656TIP3   OH210920   3.873   3.717   1.239  0.2139  0.3114 -0.2758
 3656TIP3    H110921   3.787   3.754   1.258  0.2158 -0.7865  2.0514
 3656TIP3    H210922   3.910   3.774   1.172 -0.6907  3.1450  1.5771
 3657TIP3   OH210923   4.883   4.672   1.974 -0.3336  0.2005 -0.7204
 3657TIP3    H110924   4.820   4.698   1.906  0.0808  0.5533 -0.9637
 3657TIP3    H210925   4.886   4.576   1.967 -0.9826  0.1677 -0.5866
 3658TIP3   OH210926   4.061   6.095   0.742  0.1221 -0.4502 -0.3493
 3658TIP3    H110927   3.970   6.111   0.719  0.2387  0.9163  0.0801
 3658TIP3    H210928   4.102   6.067   0.661 -0.4427  0.0304 -0.8072
 3659TIP3   OH210929   7.576   4.642   2.490  0.4078  0.5876  0.7909
 3659TIP3    H110930   7.572   4.554   2.452  0.7552  1.3841 -1.1412
 3659TIP3    H210931   7.484   4.668   2.500  0.2951  0.9610 -0.9838
 3660TIP3   OH210932   6.724   4.345   3.620  0.2823  0.0237 -0.0853
 3660TIP3    H110933   6.793   4.279   3.609  1.0119  0.9379 -1.1918
 3660TIP3    H210934   6.655   4.317   3.560 -0.7128 -1.3677  1.6526
 3661TIP3   OH210935   6.956   4.432   0.574 -0.5630  0.3502 -0.5733
 3661TIP3    H110936   6.925   4.342   0.566 -0.2041  0.3096 -1.5953
 3661TIP3    H210937   6.970   4.444   0.668  1.9736 -1.5577 -0.6268
 3662TIP3   OH210938   3.766   4.691   3.592  0.4409 -0.1235  0.4090
 3662TIP3    H110939   3.848   4.730   3.562  0.3482  0.8425  1.3885
 3662TIP3    H210940   3.769   4.700   3.687 -1.1117  0.5086  0.3988
 3663TIP3   OH210941   4.812   3.550   0.776 -0.2113  0.6849  0.2258
 3663TIP3    H110942   4.788   3.608   0.848  0.7387 -0.1618  1.2378
 3663TIP3    H210943   4.792   3.462   0.808 -0.4408  0.3512 -0.8153
 3664TIP3   OH210944   4.648   5.741   1.237  0.2141 -0.0201 -0.0283
 3664TIP3    H110945   4.579   5.769   1.176 -0.4191  0.2625  0.8021
 3664TIP3    H210946   4.722   5.799   1.218 -0.4812  1.0508  0.4508
 3665TIP3   OH210947   5.044   3.639   1.199 -0.6377 -0.1873  0.0815
 3665TIP3    H110948   4.988   3.615   1.273 -1.3525  0.3659 -0.2836
 3665TIP3    H210949   5.040   3.735   1.196 -0.6982 -0.2160 -0.7528
 3666TIP3   OH210950   2.037   1.566   6.220 -0.2044  0.0236 -0.0713
 3666TIP3    H110951   2.050   1.474   6.243 -2.7886  0.3421  3.1564
 3666TIP3    H210952   1.969   1.564   6.152  0.1011 -0.4940 -0.3606
 3667TIP3   OH210953   6.716   2.506   2.881 -0.7116  0.2695  0.0372
 3667TIP3    H110954   6.715   2.411   2.894  1.5723  0.0813 -0.9775
 3667TIP3    H210955   6.806   2.532   2.901 -1.1347  2.1138 -0.4010
 3668TIP3   OH210956   5.306   3.803   3.167 -0.2830 -0.1111  0.4046
 3668TIP3    H110957   5.350   3.718   3.163  1.9692  1.0663 -0.8805
 3668TIP3    H210958   5.240   3.799   3.097  1.0893 -0.1333 -0.9165
 3669TIP3   OH210959   3.130   2.834   2.671 -0.2741 -0.6672 -0.1963
 3669TIP3    H110960   3.080   2.894   2.726 -1.6189 -0.3151 -1.7741
 3669TIP3    H210961   3.158   2.765   2.731 -0.9598  0.1636  1.1111
 3670TIP3   OH210962   7.831   5.945   5.125 -0.1634  0.2726  0.1295
 3670TIP3    H110963   7.770   5.926   5.196 -0.9108  1.4285 -0.1824
 3670TIP3    H210964   7.883   6.018   5.157  1.8161 -1.3927  0.8175
 3671TIP3   OH210965   5.715   3.702   2.079  0.0114 -0.2119  0.4214
 3671TIP3    H110966   5.632   3.750   2.074  0.1488 -0.0260 -0.2346
 3671TIP3    H210967   5.748   3.719   2.167 -1.0390 -0.9558  0.9681
 3672TIP3   OH210968   4.048   3.555   1.369 -0.0982  0.2701 -0.2410
 3672TIP3    H110969   4.098   3.515   1.297 -0.2185 -0.8522  0.2841
 3672TIP3    H210970   3.982   3.608   1.325  0.3074  0.1929 -0.9559
 3673TIP3   OH210971   4.949   3.901   1.099  0.7315  0.4007 -0.0150
 3673TIP3    H110972   4.976   3.935   1.013  3.6010  1.1588  1.1257
 3673TIP3    H210973   4.911   3.977   1.143 -1.2502 -0.1175 -0.7667
 3674TIP3   OH210974   6.513   2.590   1.141 -1.0285  0.1439 -0.7612
 3674TIP3    H110975   6.512   2.584   1.237 -0.6607  2.1907 -0.6064
 3674TIP3    H210976   6.603   2.567   1.117 -1.0747 -0.2078 -0.5938
 3675TIP3   OH210977   5.753   3.695   2.345 -0.1354 -0.1303 -0.1644
 3675TIP3    H110978   5.659   3.703   2.360 -0.0546  0.2224  0.1730
 3675TIP3    H210979   5.791   3.770   2.392  0.3183 -0.3242 -0.2209
 3676TIP3   OH210980   6.505   3.370   1.160  0.0624  0.1032  0.2363
 3676TIP3    H110981   6.432   3.425   1.188  0.5066  0.6008  0.4175
 3676TIP3    H210982   6.508   3.379   1.065 -0.2754 -0.1195  0.2061
 3677TIP3   OH210983   4.424   4.098   2.948 -0.1952 -0.4552  0.2966
 3677TIP3    H110984   4.459   4.062   2.867 -0.1341  0.9167 -0.2964
 3677TIP3    H210985   4.375   4.176   2.921 -0.4146 -0.1473  1.5382
 3678TIP3   OH210986   4.753   2.642   1.084  0.0577 -0.7622  0.6544
 3678TIP3    H110987   4.684   2.604   1.029  1.3371  0.5792 -1.9826
 3678TIP3    H210988   4.715   2.724   1.116  0.2017 -0.2879 -0.3594
 3679TIP3   OH210989   6.247   2.378   2.666 -0.0047 -0.2278 -0.1815
 3679TIP3    H110990   6.275   2.469   2.677  1.6483 -0.6374 -0.9261
 3679TIP3    H210991   6.155   2.384   2.640 -0.0328  1.2039  0.2201
 3680TIP3   OH210992   6.031   6.385   0.904  0.1881 -0.2476  0.3518
 3680TIP3    H110993   6.089   6.330   0.957  1.4650  0.2582 -0.5139
 3680TIP3    H210994   5.983   6.437   0.969  0.1015 -1.2566  1.1090
 3681TIP3   OH210995   5.618   1.919   2.790  0.1467  0.0835  0.3544
 3681TIP3    H110996   5.709   1.933   2.817  0.1587  1.3833 -0.3728
 3681TIP3    H210997   5.569   1.913   2.872  0.5610  1.6036  0.7230
 3682TIP3   OH210998   5.936   2.637   2.890  0.3941 -0.2194  0.0063
 3682TIP3    H110999   5.872   2.583   2.936  0.7922 -1.3193 -0.7077
 3682TIP3    H211000   6.015   2.632   2.943  0.0505  0.7543  0.6365
 3683TIP3   OH211001   5.972   2.485   2.039 -0.0865  0.6330  0.7418
 3683TIP3    H111002   6.014   2.479   2.125  1.7938 -0.4391 -0.2018
 3683TIP3    H211003   5.976   2.395   2.005 -2.7298  0.6139  0.3914
 3684TIP3   OH211004   6.011   4.947   1.905 -0.4861  1.1519 -0.3138
 3684TIP3    H111005   6.010   5.006   1.980 -0.0926  1.7760 -0.7904
 3684TIP3    H211006   6.100   4.912   1.903 -1.0963 -0.5092  0.7686
 3685TIP3   OH211007   0.610   6.817   6.248 -0.2396 -0.1945  0.3729
 3685TIP3    H111008   0.652   6.733   6.227 -1.2738 -0.5208 -0.4204
 3685TIP3    H211009   0.560   6.839   6.170  0.9102  1.7320  0.1527
 3686TIP3   OH211010   7.301   5.737   1.334  0.1351  1.0347 -0.0718
 3686TIP3    H111011   7.350   5.818   1.327  0.6272  0.8209  0.7390
 3686TIP3    H211012   7.363   5.675   1.374 -0.7648  0.7508  0.9221
 3687TIP3   OH211013   4.814   3.648   1.353  0.3789  0.3054 -0.0016
 3687TIP3    H111014   4.778   3.567   1.390 -0.0586  1.3007  1.8101
 3687TIP3    H211015   4.739   3.707   1.346  0.7381  0.6304 -1.1084
 3688TIP3   OH211016   7.050   3.513   2.122 -0.2278 -0.1620  0.1657
 3688TIP3    H111017   7.110   3.461   2.069  1.6150  0.6144  1.4384
 3688TIP3    H211018   6.964   3.494   2.086  0.7185 -1.7089 -1.3635
 3689TIP3   OH211019   2.159   3.369   2.702 -0.1955 -0.6106 -0.6756
 3689TIP3    H111020   2.107   3.444   2.730 -0.7175 -1.3057  0.2191
 3689TIP3    H211021   2.109   3.330   2.631 -0.1851 -0.4421 -0.7768
 3690TIP3   OH211022   6.445   4.525   4.084  0.4107 -0.3150  0.0223
 3690TIP3    H111023   6.474   4.436   4.102  2.1575 -0.1673 -1.8433
 3690TIP3    H211024   6.472   4.541   3.993 -2.1303  1.2175 -0.5039
 3691TIP3   OH211025   4.787   1.655   0.304 -0.4934 -0.1749  0.8238
 3691TIP3    H111026   4.729   1.615   0.369 -1.1158  0.8697  0.9164
 3691TIP3    H211027   4.855   1.697   0.356  0.3773 -1.4304  0.7140
 3692TIP3   OH211028   5.825   4.524   2.418  0.0962 -0.3489 -0.3401
 3692TIP3    H111029   5.739   4.514   2.459  0.3924  1.0955  0.6889
 3692TIP3    H211030   5.883   4.548   2.491  0.9804  0.5182 -1.3206
 3693TIP3   OH211031   5.322   3.044   0.487  0.0449 -0.1322 -0.4125
 3693TIP3    H111032   5.350   2.970   0.433  2.8555 -0.9016  1.9797
 3693TIP3    H211033   5.332   3.014   0.577  0.9386  3.0057  0.6227
 3694TIP3   OH211034   4.495   3.385   2.776  0.1235 -0.2519 -0.3319
 3694TIP3    H111035   4.466   3.319   2.840 -0.4699 -0.2893 -0.6336
 3694TIP3    H211036   4.584   3.360   2.754 -0.0739 -0.9179 -0.3924
 3695TIP3   OH211037   4.118   2.615   1.627 -0.0468 -0.0071 -0.5904
 3695TIP3    H111038   4.188   2.628   1.691 -0.3783  0.9277 -0.3999
 3695TIP3    H211039   4.040   2.598   1.680  0.2502 -2.1612 -0.8323
 3696TIP3   OH211040   4.772   3.358   2.697  0.1388  0.2628  0.1937
 3696TIP3    H111041   4.734   3.400   2.620  1.6919 -0.2457 -0.8740
 3696TIP3    H211042   4.785   3.266   2.670 -0.2385 -0.1543  1.4066
 3697TIP3   OH211043   5.478   3.564   0.469 -0.2787  0.0027 -0.2620
 3697TIP3    H111044   5.444   3.525   0.549  0.7660 -0.4685 -0.0324
 3697TIP3    H211045   5.547   3.503   0.440 -0.1052  0.5747 -1.0742
 3698TIP3   OH211046   6.185   4.485   4.513 -0.2333  0.4597  0.4702
 3698TIP3    H111047   6.259   4.451   4.463 -0.2729  0.4022  0.4508
 3698TIP3    H211048   6.219   4.563   4.556 -0.5463  1.2262 -0.6520
 3699TIP3   OH211049   5.388   2.033   0.958 -0.1489  0.0141  0.1869
 3699TIP3    H111050   5.383   2.114   0.906 -1.8555 -0.2053 -0.0153
 3699TIP3    H211051   5.304   2.028   1.003  0.6621 -0.6906  1.6726
 3700TIP3   OH211052   5.304   3.881   0.619  0.4009  0.1203 -0.0361
 3700TIP3    H111053   5.334   3.821   0.687 -1.2700  0.3942  0.9924
 3700TIP3    H211054   5.258   3.825   0.557 -0.0565  0.1529  0.2662
 3701TIP3   OH211055   7.447   6.058   2.174  0.5141 -0.1536  0.7225
 3701TIP3    H111056   7.477   6.149   2.178  0.1286 -0.0137  0.3563
 3701TIP3    H211057   7.516   6.012   2.125 -0.6034  0.4701 -1.4944
 3702TIP3   OH211058   5.027   6.246   2.779  0.2169 -0.5597  0.3190
 3702TIP3    H111059   4.994   6.268   2.692 -0.8308 -2.4867  0.1929
 3702TIP3    H211060   5.103   6.303   2.791 -0.8443  1.2106 -0.9939
 3703TIP3   OH211061   6.414   5.512   1.294  0.9100 -0.2096 -0.7164
 3703TIP3    H111062   6.319   5.523   1.286  1.1448  1.8272 -1.1287
 3703TIP3    H211063   6.427   5.474   1.380 -0.2839 -0.5428 -0.6692
 3704TIP3   OH211064   6.686   2.729   0.228 -0.3204  0.6988 -0.3483
 3704TIP3    H111065   6.760   2.672   0.208  2.0067  3.9862 -1.7124
 3704TIP3    H211066   6.665   2.771   0.145  0.7597  4.7533  1.2583
 3705TIP3   OH211067   5.709   3.476   0.362 -0.5992 -0.0332 -0.3289
 3705TIP3    H111068   5.786   3.501   0.413 -0.0229 -0.0101 -1.2080
 3705TIP3    H211069   5.721   3.521   0.278 -1.5481 -0.0672 -0.4822
 3706TIP3   OH211070   4.125   5.791   0.872  0.2294  0.2952 -0.0929
 3706TIP3    H111071   4.047   5.826   0.829 -0.7855 -1.6492  0.0734
 3706TIP3    H211072   4.096   5.771   0.961  0.4126 -1.9730 -0.4972
 3707TIP3   OH211073   3.699   4.682   0.930 -0.0056  0.7610 -0.9874
 3707TIP3    H111074   3.744   4.736   0.994  0.0069  0.6142 -0.8698
 3707TIP3    H211075   3.617   4.657   0.973  1.0016 -1.2171 -0.1175
 3708TIP3   OH211076   4.627   7.108   6.288 -0.2602  0.3281  0.1599
 3708TIP3    H111077   4.689   7.038   6.270 -1.4662 -0.6023 -0.4869
 3708TIP3    H211078   4.637   7.127   6.381 -0.2875 -1.0856  0.4619
 3709TIP3   OH211079   4.469   5.258   1.158  0.6055  0.5407 -0.0853
 3709TIP3    H111080   4.509   5.297   1.235 -0.3864 -0.6316  1.0385
 3709TIP3    H211081   4.393   5.313   1.140 -0.0646 -0.1183  0.7267
 3710TIP3   OH211082   4.747   4.234   1.294  0.0774  0.7297  0.4128
 3710TIP3    H111083   4.750   4.302   1.361 -0.0104  0.3815  0.7689
 3710TIP3    H211084   4.669   4.182   1.316 -2.0839  2.7579 -2.0386
 3711TIP3   OH211085   7.255   3.634   3.454  0.0284 -0.5915 -0.0067
 3711TIP3    H111086   7.291   3.581   3.525  0.9407 -2.1042 -1.5669
 3711TIP3    H211087   7.230   3.716   3.496  0.9706 -1.2866  1.9751
 3712TIP3   OH211088   2.983   1.354   5.903 -0.7877 -0.6000  0.3304
 3712TIP3    H111089   2.971   1.278   5.846  4.9114 -1.1925 -0.2964
 3712TIP3    H211090   2.982   1.318   5.992 -1.9651 -0.7696  0.2631
 3713TIP3   OH211091   6.549   3.624   3.508 -0.9440  0.5046  0.0912
 3713TIP3    H111092   6.467   3.577   3.497 -2.0812  1.8438  2.3887
 3713TIP3    H211093   6.539   3.703   3.455 -0.3833 -0.2112 -1.0941
 3714TIP3   OH211094   6.473   3.849   1.312  0.5376 -0.1468  0.2324
 3714TIP3    H111095   6.452   3.943   1.308  0.3225 -0.1409  1.2717
 3714TIP3    H211096   6.540   3.843   1.381  0.5388 -0.7593  0.1761
 3715TIP3   OH211097   5.010   4.214   2.397 -0.1168 -0.0543  0.1373
 3715TIP3    H111098   5.053   4.245   2.317 -0.3518 -0.3432 -0.1008
 3715TIP3    H211099   5.007   4.119   2.387  0.0389 -0.1065  0.5836
 3716TIP3   OH211100   5.550   1.972   0.073 -0.2044 -0.5328 -0.0642
 3716TIP3    H111101   5.563   1.996  -0.019  0.3672 -0.9332 -0.0906
 3716TIP3    H211102   5.473   1.916   0.073 -0.2299 -0.5003 -0.2906
 3717TIP3   OH211103   5.060   6.779   5.787 -0.3365  0.3458 -0.7149
 3717TIP3    H111104   4.992   6.712   5.793 -0.3735  0.5478  1.7246
 3717TIP3    H211105   5.110   6.755   5.709 -1.4129 -1.5045 -0.8785
 3718TIP3   OH211106   4.908   3.896   1.425 -0.1948  0.4418  0.2267
 3718TIP3    H111107   4.893   3.802   1.416 -0.7169  0.6891 -1.6714
 3718TIP3    H211108   4.841   3.936   1.370 -0.3563  1.9557  1.4943
 3719TIP3   OH211109   5.521   3.860   1.176 -0.4758 -0.0924  0.2146
 3719TIP3    H111110   5.460   3.786   1.176  0.0808 -0.5571  1.0563
 3719TIP3    H211111   5.551   3.867   1.267  1.3945 -0.4175 -0.3539
 3720TIP3   OH211112   5.551   3.894   2.539  1.2413  0.4786  0.4022
 3720TIP3    H111113   5.529   3.802   2.526  1.6136  0.4843 -0.2996
 3720TIP3    H211114   5.526   3.913   2.630  0.8532 -0.2211  0.4394
 3721TIP3   OH211115   3.646   2.934   3.478 -0.0264  0.0776  0.1152
 3721TIP3    H111116   3.648   2.991   3.555 -0.7753 -0.8577  0.8400
 3721TIP3    H211117   3.585   2.865   3.501  0.5158 -0.7662 -0.9407
 3722TIP3   OH211118   5.622   4.009   1.482 -0.0078  0.0314 -0.2011
 3722TIP3    H111119   5.607   4.004   1.576 -2.3735 -0.7972 -0.6073
 3722TIP3    H211120   5.593   4.097   1.458  1.6729  0.6579  0.0129
 3723TIP3   OH211121   0.090   4.066   2.113 -0.0749  0.1187 -0.2238
 3723TIP3    H111122   0.119   4.037   2.026  0.0769 -0.3224 -0.0300
 3723TIP3    H211123   0.020   4.128   2.095 -0.9746 -0.9956 -0.6502
 3724TIP3   OH211124   6.277   3.682   1.571 -0.4626  0.1334 -0.1913
 3724TIP3    H111125   6.355   3.632   1.550 -1.7547 -1.6609 -0.7911
 3724TIP3    H211126   6.206   3.617   1.576 -1.6994  1.5604  1.5377
 3725TIP3   OH211127   4.403   3.376   1.128 -0.1432  0.0777 -0.2489
 3725TIP3    H111128   4.310   3.399   1.130 -0.3951 -0.8663  3.3975
 3725TIP3    H211129   4.404   3.282   1.144  1.4520  0.0642 -0.4013
 3726TIP3   OH211130   7.335   3.553   1.470  0.9168 -0.6631 -0.5238
 3726TIP3    H111131   7.359   3.479   1.525  0.4933 -1.7538 -1.7496
 3726TIP3    H211132   7.323   3.514   1.383  2.0743  1.0946 -1.4843
 3727TIP3   OH211133   6.658   2.883   1.516  0.1391  0.0939  0.1635
 3727TIP3    H111134   6.679   2.962   1.466  0.8607 -0.7439 -0.8789
 3727TIP3    H211135   6.729   2.822   1.496 -0.8400 -1.1170  0.2944
 3728TIP3   OH211136   5.022   5.679   1.212 -0.6684 -0.5458 -0.3884
 3728TIP3    H111137   5.105   5.669   1.260 -0.7366 -0.0876 -0.1733
 3728TIP3    H211138   4.970   5.603   1.238 -1.0383  0.1348  0.9430
 3729TIP3   OH211139   1.062   1.384   5.296  0.7701 -0.0626 -0.0208
 3729TIP3    H111140   1.077   1.301   5.251 -4.0135 -1.4722  0.7314
 3729TIP3    H211141   1.008   1.361   5.371 -1.5931  3.8400 -0.3957
 3730TIP3   OH211142   5.344   2.266   3.170 -0.1816 -0.0486 -0.1061
 3730TIP3    H111143   5.312   2.233   3.254 -0.2871  2.7939  1.0144
 3730TIP3    H211144   5.284   2.338   3.148  0.8767  0.3452 -1.7622
 3731TIP3   OH211145   7.130   5.062   0.413  0.0431  0.5921 -0.0439
 3731TIP3    H111146   7.085   5.138   0.377 -1.8804 -0.7554 -0.6216
 3731TIP3    H211147   7.133   5.000   0.340  1.7578  0.1902  0.3531
 3732TIP3   OH211148   4.777   3.682   2.035 -0.3116 -0.0668  0.3190
 3732TIP3    H111149   4.713   3.715   1.972 -0.4385  0.3411  0.6594
 3732TIP3    H211150   4.740   3.705   2.120  0.5898  0.7216  0.4978
 3733TIP3   OH211151   5.177   2.756   1.914  0.1985  0.2226  0.0847
 3733TIP3    H111152   5.253   2.723   1.961  0.8381  1.3637 -0.1297
 3733TIP3    H211153   5.109   2.690   1.928  2.1914 -2.4908 -2.4687
 3734TIP3   OH211154   3.925   4.867   3.383 -0.2386  0.4361 -0.2397
 3734TIP3    H111155   3.922   4.954   3.424  1.4426 -0.5095  2.0054
 3734TIP3    H211156   4.017   4.853   3.363 -0.1401 -1.7177  1.4872
 3735TIP3   OH211157   4.374   6.323   2.173  0.4708  0.2464  0.2308
 3735TIP3    H111158   4.439   6.256   2.149 -0.1217 -0.4209  0.4595
 3735TIP3    H211159   4.418   6.406   2.156  1.1009 -0.2014 -0.3889
 3736TIP3   OH211160   5.428   5.303   0.611 -0.2462 -0.2628 -0.2945
 3736TIP3    H111161   5.420   5.344   0.697  0.3456 -0.4336 -0.1534
 3736TIP3    H211162   5.371   5.226   0.615 -0.7476  0.1091 -0.2905
 3737TIP3   OH211163   6.391   6.640   0.723 -0.6105  0.3524 -0.4674
 3737TIP3    H111164   6.306   6.655   0.763 -0.3341 -1.3307  0.8261
 3737TIP3    H211165   6.390   6.547   0.698  1.8326 -0.4241  2.0700
 3738TIP3   OH211166   4.405   4.236   1.002 -0.7773 -0.1340  0.0393
 3738TIP3    H111167   4.391   4.208   0.911  0.5544 -1.1149  0.1283
 3738TIP3    H211168   4.498   4.224   1.017 -0.9101  0.4501  1.4128
 3739TIP3   OH211169   5.007   5.491   1.999 -0.1423  0.2574  0.1682
 3739TIP3    H111170   5.077   5.470   1.937  0.3220 -0.0488  0.7861
 3739TIP3    H211171   4.949   5.415   1.996  1.1949 -0.9082  1.9242
 3740TIP3   OH211172   4.531   4.989   1.199 -0.3704 -0.3312  0.3746
 3740TIP3    H111173   4.514   5.081   1.180 -1.3717 -0.6973 -0.6130
 3740TIP3    H211174   4.517   4.945   1.115  0.8675 -1.2876  0.6554
 3741TIP3   OH211175   5.297   6.701   1.747  0.4825 -0.2593  0.2333
 3741TIP3    H111176   5.349   6.634   1.790  0.2502 -0.4348  0.2424
 3741TIP3    H211177   5.216   6.705   1.798 -0.0984 -0.9780 -0.6137
 3742TIP3   OH211178   6.569   1.807   5.931  0.2545  0.8634  0.0364
 3742TIP3    H111179   6.629   1.852   5.990  0.9576  1.0668 -0.8101
 3742TIP3    H211180   6.508   1.875   5.903 -0.1984  0.7204  0.6886
 3743TIP3   OH211181   6.667   5.411   3.103 -0.0354 -0.4567 -0.0276
 3743TIP3    H111182   6.660   5.412   3.198  1.2118 -0.1438  0.0692
 3743TIP3    H211183   6.697   5.322   3.082 -2.4907 -1.2509 -0.3097
 3744TIP3   OH211184   5.309   5.137   1.260 -0.1134 -0.0405 -0.4831
 3744TIP3    H111185   5.243   5.080   1.301  0.1590 -0.7007 -0.9627
 3744TIP3    H211186   5.291   5.131   1.166 -0.1488  0.7501 -0.5261
 3745TIP3   OH211187   3.988   2.937   2.705 -0.1746 -0.4229  0.2965
 3745TIP3    H111188   3.913   2.930   2.646  1.5049 -0.2514 -1.9340
 3745TIP3    H211189   4.064   2.919   2.649  1.4971  0.0688  2.3488
 3746TIP3   OH211190   6.292   3.083   0.499  0.3753 -0.0725  0.2318
 3746TIP3    H111191   6.210   3.107   0.543  0.7530  0.7441  0.5105
 3746TIP3    H211192   6.265   3.048   0.414 -0.3006 -0.5687  0.6481
 3747TIP3   OH211193   5.765   4.087   1.787 -0.6560 -0.3282 -0.2949
 3747TIP3    H111194   5.760   4.113   1.878  0.7447  2.0349 -0.8529
 3747TIP3    H211195   5.674   4.074   1.760 -1.1046 -0.4142  1.2371
 3748TIP3   OH211196   5.797   3.488   0.809 -0.3653 -0.2856  0.1534
 3748TIP3    H111197   5.872   3.430   0.791  0.1545  0.8403 -1.3901
 3748TIP3    H211198   5.833   3.557   0.864  0.0489  0.9081 -1.5618
 3749TIP3   OH211199   6.546   5.277   1.959 -0.6207  0.0559 -0.3098
 3749TIP3    H111200   6.495   5.238   1.888  1.1975  0.4482 -1.8718
 3749TIP3    H211201   6.629   5.302   1.918  0.5566  0.0703  2.0184
 3750TIP3   OH211202   6.460   4.109   1.839  0.3878 -0.1466 -0.0362
 3750TIP3    H111203   6.434   4.046   1.772 -0.7566 -0.8159  1.0171
 3750TIP3    H211204   6.474   4.191   1.792 -1.8605 -0.2337 -0.8942
 3751TIP3   OH211205   5.925   2.934   2.338 -0.3675  0.4874 -0.5104
 3751TIP3    H111206   6.015   2.920   2.367 -0.5277 -0.6791 -0.5282
 3751TIP3    H211207   5.876   2.953   2.418  0.0202  1.8827 -0.5884
 3752TIP3   OH211208   5.101   6.127   2.080  0.5367  0.5019 -0.1848
 3752TIP3    H111209   5.154   6.124   2.160 -0.1655 -0.3650  0.2519
 3752TIP3    H211210   5.074   6.218   2.072  0.5741  0.5795  0.5836
 3753TIP3   OH211211   4.166   3.439   2.205  0.1743  0.0543  0.4628
 3753TIP3    H111212   4.235   3.478   2.257  0.7034 -0.9978  0.5610
 3753TIP3    H211213   4.201   3.436   2.116  0.3273 -0.6301  0.5417
 3754TIP3   OH211214   6.124   4.648   0.272 -0.0963  0.3786 -0.1617
 3754TIP3    H111215   6.126   4.553   0.278  0.8200  0.3997 -0.0761
 3754TIP3    H211216   6.041   4.668   0.228 -0.8571 -0.3985  0.8995
 3755TIP3   OH211217   4.459   4.452   1.757  0.3297 -0.6649  0.1487
 3755TIP3    H111218   4.508   4.487   1.683  0.7216  0.5403  0.9633
 3755TIP3    H211219   4.436   4.362   1.731  2.8718 -1.2210 -0.2936
 3756TIP3   OH211220   4.958   6.588   3.849  0.0224  0.3926  0.4782
 3756TIP3    H111221   4.899   6.578   3.774 -0.5821  1.6959  0.7709
 3756TIP3    H211222   4.945   6.678   3.879  0.0247 -0.2091  2.3638
 3757TIP3   OH211223   7.265   2.750   1.537 -0.4763  0.3699 -0.8018
 3757TIP3    H111224   7.192   2.793   1.493 -1.0170  0.1490 -0.1256
 3757TIP3    H211225   7.280   2.802   1.616 -1.5165 -1.0020  0.3210
 3758TIP3   OH211226   7.266   3.972   3.054  0.8476  0.2995  0.3245
 3758TIP3    H111227   7.209   3.899   3.080  2.9325 -0.6909  2.3704
 3758TIP3    H211228   7.219   4.050   3.081 -0.5915 -0.3825 -0.1619
 3759TIP3   OH211229   6.648   2.344   1.606  0.6668 -0.0749 -0.0446
 3759TIP3    H111230   6.711   2.385   1.547  0.5647  0.4976  0.2465
 3759TIP3    H211231   6.640   2.405   1.680 -1.4094  0.6145 -0.8122
 3760TIP3   OH211232   5.811   2.930   2.040  0.4652 -0.0950 -0.2273
 3760TIP3    H111233   5.875   2.859   2.042  1.0398  0.4449  1.5704
 3760TIP3    H211234   5.756   2.916   2.117  1.4841  2.1960  0.9771
 3761TIP3   OH211235   7.069   2.517   0.352 -0.3305  0.3760  0.7469
 3761TIP3    H111236   7.093   2.437   0.306 -2.8290 -0.4240  0.7514
 3761TIP3    H211237   7.152   2.556   0.378  1.0379 -0.6077 -1.9556
 3762TIP3   OH211238   6.317   6.703   1.906  0.0551  0.3177  0.2789
 3762TIP3    H111239   6.236   6.754   1.905 -0.1551 -0.0384 -1.6501
 3762TIP3    H211240   6.382   6.764   1.941 -0.8751  0.8319  1.1763
 3763TIP3   OH211241   5.824   4.171   0.920  0.3126 -0.3918 -0.0510
 3763TIP3    H111242   5.734   4.202   0.925  0.6625  0.3729  2.3856
 3763TIP3    H211243   5.872   4.243   0.879  0.0103 -0.3630 -0.3582
 3764TIP3   OH211244   3.669   4.441   3.231  0.0690 -0.6311  0.6649
 3764TIP3    H111245   3.606   4.508   3.204  1.5865  0.1911 -0.9341
 3764TIP3    H211246   3.629   4.358   3.204 -1.0122 -0.2363  1.0359
 3765TIP3   OH211247   4.523   5.853   2.078 -0.2451  0.5879 -0.0270
 3765TIP3    H111248   4.499   5.898   2.159  1.3103 -0.9148  1.3029
 3765TIP3    H211249   4.507   5.761   2.096  1.0285  0.1420 -1.0902
 3766TIP3   OH211250   6.517   5.225   0.432  0.0434 -0.6527 -0.2930
 3766TIP3    H111251   6.503   5.195   0.521 -1.6176 -0.6787 -0.5523
 3766TIP3    H211252   6.604   5.265   0.433  0.0413 -0.6878  1.3192
 3767TIP3   OH211253   5.503   5.315   1.366  0.0423 -0.0154  0.3328
 3767TIP3    H111254   5.597   5.294   1.362 -0.2056 -1.0614 -0.2577
 3767TIP3    H211255   5.461   5.242   1.321 -1.0532  0.5121  0.4993
 3768TIP3   OH211256   6.995   5.582   3.584  0.4146 -0.0126  0.5133
 3768TIP3    H111257   6.960   5.671   3.588 -1.8301 -0.7427 -1.6449
 3768TIP3    H211258   7.026   5.564   3.673 -1.1679  2.0949  1.5273
 3769TIP3   OH211259   7.403   5.509   1.456 -0.1726  0.7638 -0.3552
 3769TIP3    H111260   7.414   5.417   1.479  0.0943  0.5473 -1.3432
 3769TIP3    H211261   7.375   5.550   1.538 -0.3838 -0.2037  0.0706
 3770TIP3   OH211262   3.940   6.500   0.780 -0.3382 -0.0110  0.0352
 3770TIP3    H111263   3.863   6.444   0.771  1.0746 -1.7953 -0.9827
 3770TIP3    H211264   3.998   6.452   0.839  0.3880  0.9450  0.1083
 3771TIP3   OH211265   0.445   5.069   1.754 -0.5374 -0.5011 -0.3821
 3771TIP3    H111266   0.432   5.024   1.838  0.4000 -2.2214 -1.1257
 3771TIP3    H211267   0.515   5.132   1.771 -2.8340  1.7643  1.0459
 3772TIP3   OH211268   1.149   6.989   0.365  0.1233  0.6322 -0.4425
 3772TIP3    H111269   1.242   7.008   0.374 -0.1608  2.1324 -0.4602
 3772TIP3    H211270   1.124   7.028   0.281 -0.4799  0.0902 -0.5213
 3773TIP3   OH211271   2.889   5.370   1.366 -0.8058  0.3528  0.1701
 3773TIP3    H111272   2.821   5.303   1.375  0.2711 -0.6904  0.7026
 3773TIP3    H211273   2.915   5.367   1.274 -0.3883 -0.3318  0.3099
 3774TIP3   OH211274   4.963   2.294   0.587  0.3512  0.5666  0.5220
 3774TIP3    H111275   4.943   2.249   0.506 -0.1395  0.7993  0.5117
 3774TIP3    H211276   5.027   2.238   0.631 -0.6590 -0.3983  0.7630
 3775TIP3   OH211277   6.678   2.224   1.240  0.1588  0.2299 -0.1505
 3775TIP3    H111278   6.584   2.213   1.253  0.1099  0.0387 -0.6563
 3775TIP3    H211279   6.696   2.182   1.155  0.7836 -0.1748  0.1803
 3776TIP3   OH211280   5.487   4.231   0.278  0.2080 -0.6585  0.0350
 3776TIP3    H111281   5.487   4.159   0.214  1.3706 -1.2698  0.7199
 3776TIP3    H211282   5.579   4.246   0.297 -0.0812  0.3799  0.6315
 3777TIP3   OH211283   6.512   6.917   1.625  0.1257 -0.2748  0.0380
 3777TIP3    H111284   6.464   6.963   1.556  0.5951 -0.0646 -0.1540
 3777TIP3    H211285   6.459   6.929   1.704  1.3550  2.5424  0.4972
 3778TIP3   OH211286   0.270   4.940   2.793 -0.0662  0.0803  0.3348
 3778TIP3    H111287   0.298   5.002   2.725  0.7488  1.3631  1.8117
 3778TIP3    H211288   0.188   4.904   2.759  1.5615 -1.1767 -2.4681
 3779TIP3   OH211289   4.611   2.867   1.145 -0.0014  0.2967 -0.2558
 3779TIP3    H111290   4.537   2.847   1.088 -0.5472  1.0207  0.1954
 3779TIP3    H211291   4.661   2.934   1.098 -0.5962  1.0857  0.2339
 3780TIP3   OH211292   6.031   2.371   3.212  0.0935 -0.6771  0.5105
 3780TIP3    H111293   5.956   2.312   3.214  0.2520 -0.9039 -0.2765
 3780TIP3    H211294   6.026   2.419   3.295 -1.7875  0.3991 -0.2057
 3781TIP3   OH211295   7.047   5.392   0.470 -0.1255 -0.4879  0.3445
 3781TIP3    H111296   7.130   5.404   0.515  0.2522  1.1483 -0.7491
 3781TIP3    H211297   6.986   5.449   0.516 -0.7896 -2.0483  1.4497
 3782TIP3   OH211298   7.554   5.120   2.978  0.2897 -0.0338  0.5937
 3782TIP3    H111299   7.622   5.122   3.045  1.3613  0.0588 -0.4949
 3782TIP3    H211300   7.544   5.211   2.951 -1.2215  0.1457  1.6933
 3783TIP3   OH211301   6.388   4.600   2.481 -0.1172 -0.5714 -0.4778
 3783TIP3    H111302   6.413   4.649   2.559 -0.6875  0.1264 -0.7305
 3783TIP3    H211303   6.450   4.628   2.414 -0.8783  0.3346 -0.8094
 3784TIP3   OH211304   7.326   3.692   2.287  0.5975  0.0550  0.2239
 3784TIP3    H111305   7.243   3.737   2.273  0.0235 -0.6816  1.1737
 3784TIP3    H211306   7.367   3.691   2.201  0.2558  1.6551  0.0164
 3785TIP3   OH211307   6.617   1.300   1.672 -0.1363 -0.3613 -0.0233
 3785TIP3    H111308   6.615   1.211   1.708 -0.5036 -0.9557 -1.4924
 3785TIP3    H211309   6.647   1.354   1.745 -0.0124 -1.6729  0.9215
 3786TIP3   OH211310   4.576   1.765   2.550 -0.7217  0.5410  0.7626
 3786TIP3    H111311   4.656   1.722   2.583  0.1072  0.8500 -0.8171
 3786TIP3    H211312   4.525   1.694   2.512  1.0008  0.9780 -2.5552
 3787TIP3   OH211313   5.027   3.546   2.083 -0.2691  0.2325  0.2491
 3787TIP3    H111314   4.945   3.595   2.089  0.0619  0.8740 -0.4479
 3787TIP3    H211315   5.000   3.454   2.079 -0.8239  0.1100  4.2199
 3788TIP3   OH211316   7.333   2.601   2.485  0.1276  0.4366 -0.1738
 3788TIP3    H111317   7.356   2.534   2.548  0.2411 -0.5248 -1.2191
 3788TIP3    H211318   7.243   2.581   2.459  0.2464  0.5301 -0.6771
 3789TIP3   OH211319   5.063   3.684   0.754 -0.5233  0.6568  0.7863
 3789TIP3    H111320   4.984   3.632   0.736 -0.4555  1.4448 -1.9707
 3789TIP3    H211321   5.095   3.650   0.838 -1.7606 -2.1578  0.1755
 3790TIP3   OH211322   4.787   4.380   1.519  0.0756  0.1642 -0.0696
 3790TIP3    H111323   4.751   4.459   1.558  0.2723  0.5972 -0.7485
 3790TIP3    H211324   4.735   4.309   1.556  0.3405  0.5482  1.0562
 3791TIP3   OH211325   5.382   4.663   1.245 -0.3443  0.1510 -0.3840
 3791TIP3    H111326   5.383   4.646   1.340 -1.6861  1.5052 -0.1172
 3791TIP3    H211327   5.454   4.610   1.211  1.1988  0.8666  1.6256
 3792TIP3   OH211328   5.826   6.614   1.556  0.4079 -0.2342 -0.0774
 3792TIP3    H111329   5.750   6.592   1.503  1.0221  1.5001 -1.7121
 3792TIP3    H211330   5.790   6.638   1.641 -0.7271 -1.0581 -0.3055
 3793TIP3   OH211331   3.773   3.249   3.414 -0.3232 -0.3013  0.3354
 3793TIP3    H111332   3.688   3.241   3.371 -0.1970 -1.2150  0.2432
 3793TIP3    H211333   3.763   3.202   3.497 -0.3940  0.9754  1.0681
 3794TIP3   OH211334   6.804   4.325   0.281  0.5255  0.0834  0.4409
 3794TIP3    H111335   6.731   4.375   0.246 -0.0664 -0.5703  0.7317
 3794TIP3    H211336   6.878   4.348   0.224 -0.3178 -0.6266 -0.9614
 3795TIP3   OH211337   5.790   5.192   0.815 -0.0410 -0.5903 -0.2103
 3795TIP3    H111338   5.808   5.152   0.901  0.2875 -0.5975 -0.2796
 3795TIP3    H211339   5.773   5.284   0.835 -0.5111 -0.7071 -0.0796
 3796TIP3   OH211340   5.811   3.787   1.153 -0.4244  0.3996  0.3550
 3796TIP3    H111341   5.787   3.747   1.237 -1.3950  1.4888  0.6100
 3796TIP3    H211342   5.727   3.806   1.111  0.0383  1.1300 -0.2494
 3797TIP3   OH211343   6.601   6.093   2.551  0.0531  0.6768  0.3833
 3797TIP3    H111344   6.550   6.041   2.489  1.1079 -0.5474  0.5100
 3797TIP3    H211345   6.536   6.134   2.607 -0.9135  1.6316 -1.3889
 3798TIP3   OH211346   6.453   4.587   1.316  0.3805 -0.2436 -0.0763
 3798TIP3    H111347   6.483   4.585   1.225 -0.2924  0.1052 -0.3034
 3798TIP3    H211348   6.441   4.495   1.339  1.3519 -0.3785 -0.0694
 3799TIP3   OH211349   4.470   4.095   0.002  0.0065 -0.2816 -0.7519
 3799TIP3    H111350   4.450   4.048   0.083 -0.9301  0.4572 -0.5544
 3799TIP3    H211351   4.420   4.176   0.008  1.9800  0.9628 -0.8815
 3800TIP3   OH211352   7.476   6.317   2.815 -0.2147  0.2616  0.4501
 3800TIP3    H111353   7.501   6.246   2.875 -0.3498  0.5979  0.9075
 3800TIP3    H211354   7.380   6.322   2.823 -0.4396 -0.9244 -1.1826
 3801TIP3   OH211355   6.285   3.938   1.669  0.5036 -0.1258 -0.1168
 3801TIP3    H111356   6.290   3.847   1.640 -1.9069  0.4906 -2.7267
 3801TIP3    H211357   6.194   3.951   1.693 -0.1706  2.5822 -3.5553
 3802TIP3   OH211358   3.891   6.178   1.834  0.2416 -0.1130  0.5557
 3802TIP3    H111359   3.862   6.087   1.840 -0.4365  0.0818  0.2703
 3802TIP3    H211360   3.894   6.208   1.925 -2.5812  0.5223  0.4810
 3803TIP3   OH211361   1.814   4.353   0.426 -0.0029 -0.3387 -0.8052
 3803TIP3    H111362   1.833   4.309   0.343  0.0210  1.7197 -1.9258
 3803TIP3    H211363   1.898   4.388   0.454 -0.4572  1.0696 -1.1750
 3804TIP3   OH211364   4.517   3.689   2.506  0.2781  0.1281 -0.0314
 3804TIP3    H111365   4.458   3.630   2.552 -1.4501  1.0721 -0.9956
 3804TIP3    H211366   4.477   3.700   2.420  1.7384  0.9809 -0.6111
 3805TIP3   OH211367   6.652   2.063   0.728 -0.5060  0.2853 -0.0604
 3805TIP3    H111368   6.677   2.150   0.698 -1.3553  0.6523  0.2705
 3805TIP3    H211369   6.658   2.008   0.650 -0.2807  0.7102 -0.3446
 3806TIP3   OH211370   7.480   3.900   1.839  0.0236 -0.2492 -0.2161
 3806TIP3    H111371   7.537   3.974   1.858 -0.7871 -0.5328  3.7183
 3806TIP3    H211372   7.401   3.939   1.801  0.0580  0.8253  0.7852
 3807TIP3   OH211373   7.564   3.111   2.415 -0.1298 -0.5908  0.2316
 3807TIP3    H111374   7.577   3.172   2.488  0.3177 -0.2810 -0.1023
 3807TIP3    H211375   7.509   3.041   2.451  0.8494 -0.9093  1.1322
 3808TIP3   OH211376   4.208   1.391   2.327  0.0985 -0.2011  0.1496
 3808TIP3    H111377   4.257   1.309   2.318  0.6974  0.1709  0.0529
 3808TIP3    H211378   4.187   1.416   2.237 -0.2519 -0.3486  0.1892
 3809TIP3   OH211379   4.295   4.000   1.884  0.0543 -0.1675 -0.5319
 3809TIP3    H111380   4.207   3.974   1.911 -0.0373 -0.5220 -1.1565
 3809TIP3    H211381   4.343   4.013   1.966  0.1901 -2.6197 -0.1954
 3810TIP3   OH211382   5.671   2.619   0.844 -0.1926 -0.1755  0.1804
 3810TIP3    H111383   5.603   2.589   0.784  0.0123  2.3811 -1.4069
 3810TIP3    H211384   5.748   2.633   0.790  0.4067  0.8340  1.2526
 3811TIP3   OH211385   4.505   3.213   0.667  0.1638 -0.1503  0.8337
 3811TIP3    H111386   4.503   3.118   0.655 -0.6302 -0.2180  1.4439
 3811TIP3    H211387   4.485   3.248   0.580 -0.6697 -0.5577  0.8533
 3812TIP3   OH211388   6.028   1.180   2.982  0.0062 -0.1901  0.1100
 3812TIP3    H111389   6.105   1.234   2.965 -0.1827  0.8058  2.2748
 3812TIP3    H211390   6.063   1.101   3.025 -0.3121  1.1530  2.9630
 3813TIP3   OH211391   4.858   6.111   1.468  0.4548  0.2393 -0.1514
 3813TIP3    H111392   4.874   6.057   1.391  1.1179 -0.9176  0.7756
 3813TIP3    H211393   4.767   6.094   1.492  0.1073  0.9548 -0.9359
 3814TIP3   OH211394   6.142   3.020   1.482  0.3361  0.6686  0.1267
 3814TIP3    H111395   6.169   3.088   1.544 -0.0700  0.6061  0.3743
 3814TIP3    H211396   6.076   3.063   1.427  0.6149  0.6903 -0.1909
 3815TIP3   OH211397   0.100   3.659   2.797  0.5377 -0.4590  0.1681
 3815TIP3    H111398   0.160   3.733   2.800  0.2059 -0.1230 -1.3440
 3815TIP3    H211399   0.120   3.614   2.716 -0.2210 -1.2231  0.3970
 3816TIP3   OH211400   4.185   5.701   2.651  0.2283  0.1945  0.1058
 3816TIP3    H111401   4.189   5.750   2.734 -0.1838  1.0957 -0.3927
 3816TIP3    H211402   4.174   5.610   2.678  1.1210  0.3479  1.0615
 3817TIP3   OH211403   1.549   7.145   6.454 -0.0627 -0.0411  0.4350
 3817TIP3    H111404   1.467   7.095   6.451  1.0712 -1.8962 -0.6003
 3817TIP3    H211405   1.575   7.154   6.362  0.4690  1.2818  0.7058
 3818TIP3   OH211406   5.710   3.115   1.550 -0.1305 -0.0884  0.2615
 3818TIP3    H111407   5.646   3.071   1.495 -1.7633 -0.0798  2.1208
 3818TIP3    H211408   5.724   3.056   1.624  2.0579 -0.1076 -0.1158
 3819TIP3   OH211409   4.562   3.176   1.346 -0.2797  0.1345 -0.7466
 3819TIP3    H111410   4.599   3.200   1.431  0.4307 -0.3858 -0.9077
 3819TIP3    H211411   4.467   3.170   1.362 -0.0259 -1.3325  0.3403
 3820TIP3   OH211412   5.728   5.969   0.718 -0.2984 -0.3396  0.8141
 3820TIP3    H111413   5.637   5.943   0.733 -0.1932 -1.2668 -0.1016
 3820TIP3    H211414   5.761   5.992   0.805 -0.8288 -1.8960  1.4473
 3821TIP3   OH211415   6.957   2.814   2.109 -0.6818 -0.6344 -0.1154
 3821TIP3    H111416   6.970   2.724   2.080 -0.5387 -0.4885 -0.5115
 3821TIP3    H211417   6.876   2.841   2.065  1.6366  0.9222 -3.6587
 3822TIP3   OH211418   6.924   5.177   1.680 -0.1610 -0.4468  0.3529
 3822TIP3    H111419   7.014   5.147   1.688  0.2281  0.9524  1.2370
 3822TIP3    H211420   6.926   5.243   1.610 -0.1649  0.8502  1.5551
 3823TIP3   OH211421   5.613   5.044   1.151  0.3097 -0.3413  0.4128
 3823TIP3    H111422   5.691   5.098   1.162 -0.0101  0.0672  0.6675
 3823TIP3    H211423   5.549   5.102   1.109  0.3083 -0.8196 -0.2427
 3824TIP3   OH211424   6.322   6.539   2.263 -0.3663  0.5110  0.2996
 3824TIP3    H111425   6.410   6.501   2.274 -0.9756 -0.3545  2.3965
 3824TIP3    H211426   6.338   6.629   2.236  1.1571 -0.1604 -1.1072
 3825TIP3   OH211427   6.796   3.506   1.178 -0.0464  0.2251 -0.1550
 3825TIP3    H111428   6.754   3.426   1.209  0.9824 -0.5391 -0.7077
 3825TIP3    H211429   6.725   3.570   1.172 -0.6726 -0.3188  1.3826
 3826TIP3   OH211430   7.593   5.914   0.279  0.1229 -0.4812  0.0664
 3826TIP3    H111431   7.567   5.977   0.346  1.5966 -0.6945  0.8773
 3826TIP3    H211432   7.514   5.898   0.228 -1.4667 -1.5339  2.7679
 3827TIP3   OH211433   5.314   4.401   0.867 -0.1326  0.5143  0.1124
 3827TIP3    H111434   5.276   4.424   0.952  0.0189 -0.7663  0.5377
 3827TIP3    H211435   5.239   4.398   0.808 -0.4875 -0.4246  0.6040
 3828TIP3   OH211436   6.794   3.417   1.567  0.1027  0.0400 -0.0830
 3828TIP3    H111437   6.875   3.380   1.534  0.1412  0.9510 -1.0505
 3828TIP3    H211438   6.728   3.391   1.503 -0.0936  0.5190 -0.0817
 3829TIP3   OH211439   0.720   6.779   5.500 -0.3628 -0.3716  0.4059
 3829TIP3    H111440   0.712   6.769   5.405  0.1787  2.0699  0.0560
 3829TIP3    H211441   0.643   6.832   5.524  0.7723  1.0466  0.9536
 3830TIP3   OH211442   5.478   2.802   3.513  0.2142  0.0366 -0.6597
 3830TIP3    H111443   5.524   2.830   3.434 -0.7234 -1.0662 -1.6248
 3830TIP3    H211444   5.547   2.773   3.573  0.7290 -2.9991 -2.6445
 3831TIP3   OH211445   0.218   5.488   2.083  0.1147  0.1088 -0.1050
 3831TIP3    H111446   0.271   5.441   2.019  1.3984  2.2483 -0.7014
 3831TIP3    H211447   0.204   5.574   2.043 -1.0804  0.6667  1.4724
 3832TIP3   OH211448   0.144   4.301   1.730  0.3814  0.1455 -0.5410
 3832TIP3    H111449   0.175   4.304   1.639 -0.9371  1.5292 -0.9689
 3832TIP3    H211450   0.049   4.294   1.722  0.3719 -1.5501  0.7482
 3833TIP3   OH211451   6.006   1.429   6.148  0.1716 -0.0379  0.3260
 3833TIP3    H111452   5.939   1.492   6.177 -0.8881 -1.7147  1.6488
 3833TIP3    H211453   6.089   1.472   6.167 -0.5246  1.3390  0.3545
 3834TIP3   OH211454   6.933   4.696   1.886 -0.5460 -0.0589 -0.1589
 3834TIP3    H111455   6.858   4.733   1.838 -1.5295 -3.1436 -1.1321
 3834TIP3    H211456   6.896   4.668   1.970 -0.1427 -0.2481 -0.0457
 3835TIP3   OH211457   3.473  -0.032   0.837 -0.6525  0.1023  0.3346
 3835TIP3    H111458   3.391   0.012   0.814  0.0634  0.0157 -2.5529
 3835TIP3    H211459   3.541   0.032   0.816  0.0302  0.5277  3.5976
 3836TIP3   OH211460   4.264   4.154   1.243 -0.2791  0.1282 -0.1052
 3836TIP3    H111461   4.171   4.155   1.217 -0.4237 -0.4583  0.4059
 3836TIP3    H211462   4.308   4.201   1.171 -1.0118  0.7362 -0.1733
 3837TIP3   OH211463   6.927   3.765   1.207 -0.1752 -0.0936 -0.0786
 3837TIP3    H111464   6.894   3.676   1.196 -1.3181  0.4293 -0.8817
 3837TIP3    H211465   7.022   3.756   1.194  0.0045 -1.5276  1.9225
 3838TIP3   OH211466   7.310   4.910   2.675 -0.0571  0.1701 -0.5002
 3838TIP3    H111467   7.317   4.832   2.621  1.7781 -0.4032  0.5291
 3838TIP3    H211468   7.400   4.941   2.683 -0.4801  0.9865  1.1452
 3839TIP3   OH211469   4.637   1.001   0.701  0.1746  0.0084 -0.1724
 3839TIP3    H111470   4.560   0.986   0.755 -0.2563  2.2378 -0.1273
 3839TIP3    H211471   4.705   1.027   0.763  0.2536  0.5156 -0.4677
 3840TIP3   OH211472   7.434   3.099   1.049  0.0012  0.1298  0.0096
 3840TIP3    H111473   7.343   3.091   1.079 -0.0892 -0.2911 -0.3747
 3840TIP3    H211474   7.447   3.023   0.992  0.6958  0.0121  0.3284
 3841TIP3   OH211475   6.945   4.206   1.367 -0.0663  0.3001  0.4229
 3841TIP3    H111476   6.921   4.275   1.306  0.4047  0.9866  1.0113
 3841TIP3    H211477   6.919   4.125   1.323 -0.2044  0.8192 -0.4597
 3842TIP3   OH211478   6.363   6.072   1.057 -0.1644 -0.7707 -0.0207
 3842TIP3    H111479   6.434   6.038   1.001 -0.0116  0.9857 -0.9151
 3842TIP3    H211480   6.289   6.083   0.997 -1.0781 -2.1346  0.8176
 3843TIP3   OH211481   0.403   2.615   1.034  0.4478 -0.2412  0.2684
 3843TIP3    H111482   0.461   2.691   1.045  0.1006 -0.1932  1.7736
 3843TIP3    H211483   0.461   2.540   1.047  0.2589 -0.2005  1.3246
 3844TIP3   OH211484   5.766   0.788   6.065  0.2750 -0.3109  0.2218
 3844TIP3    H111485   5.781   0.698   6.094 -0.8254 -0.6570 -0.2693
 3844TIP3    H211486   5.699   0.781   5.997  0.2644  0.8665  0.0973
 3845TIP3   OH211487   6.880   6.482   2.529 -0.0590 -0.7128 -0.0890
 3845TIP3    H111488   6.890   6.557   2.588  1.6112 -0.9883  0.0175
 3845TIP3    H211489   6.801   6.501   2.479  2.2382  2.9160 -2.5843
 3846TIP3   OH211490   0.301   4.120   3.040 -0.0892  0.0404 -0.0324
 3846TIP3    H111491   0.260   4.196   3.081 -0.8432 -0.1170 -0.4758
 3846TIP3    H211492   0.230   4.077   2.993  0.9141  0.7260 -2.2543
 3847TIP3   OH211493   0.410   5.961   5.666 -0.1263  0.1765 -0.0732
 3847TIP3    H111494   0.347   5.892   5.686 -0.9075  1.2731  1.3273
 3847TIP3    H211495   0.366   6.042   5.691  1.3052  1.0644 -0.3845
 3848TIP3   OH211496   5.917   2.872   3.778 -0.1292 -0.1012  0.1098
 3848TIP3    H111497   5.966   2.892   3.699  1.2084  2.0143  1.4182
 3848TIP3    H211498   5.847   2.813   3.749  0.4878  0.4314 -2.5794
 3849TIP3   OH211499   5.428   5.252   0.074  0.2316 -0.2526  0.1104
 3849TIP3    H111500   5.413   5.160   0.095  0.3848 -0.1796  0.5339
 3849TIP3    H211501   5.342   5.284   0.047  0.3179 -0.7002 -0.7365
 3850TIP3   OH211502   6.207   4.900   1.290 -0.2826  0.1701 -0.3568
 3850TIP3    H111503   6.181   4.809   1.275  1.3362 -0.4068  0.2591
 3850TIP3    H211504   6.300   4.895   1.311 -0.0690  2.0302 -0.8214
 3851TIP3   OH211505   1.088   3.778   1.129 -0.3744  0.0633 -0.5167
 3851TIP3    H111506   1.020   3.713   1.142 -1.0763  0.5640 -1.6327
 3851TIP3    H211507   1.161   3.729   1.090 -1.3501  0.1594 -2.5200
 3852TIP3   OH211508   0.385   5.151   0.942 -0.1760 -0.1778 -0.2282
 3852TIP3    H111509   0.383   5.072   0.996 -0.5189 -0.6102 -0.8668
 3852TIP3    H211510   0.477   5.161   0.919  0.3114  1.2443  2.2221
 3853TIP3   OH211511   6.475   4.156   2.979 -0.0554  0.5089  0.7277
 3853TIP3    H111512   6.449   4.211   2.906 -0.7215 -1.3698 -0.4747
 3853TIP3    H211513   6.534   4.211   3.031 -0.4975  2.2412 -0.5802
 3854TIP3   OH211514   7.152   4.985   1.579 -0.2505  0.3181  0.3866
 3854TIP3    H111515   7.177   4.952   1.665  0.1275  1.2203  0.6324
 3854TIP3    H211516   7.067   4.944   1.561 -0.4300  0.2902  1.2823
 3855TIP3   OH211517   0.330   3.730   4.007 -0.2312 -0.0716 -0.1897
 3855TIP3    H111518   0.275   3.793   3.960 -0.6232 -0.9210 -0.9013
 3855TIP3    H211519   0.275   3.651   4.013  0.4434 -0.5158  0.2145
 3856TIP3   OH211520   2.152   7.150   6.261  0.1801  0.0894  0.4041
 3856TIP3    H111521   2.240   7.185   6.269 -0.4435  1.8905 -0.4267
 3856TIP3    H211522   2.160   7.077   6.200  1.2010 -0.1262  0.8037
 3857TIP3   OH211523   3.368   3.390   0.666 -0.1630 -0.4623 -0.1550
 3857TIP3    H111524   3.365   3.466   0.724  1.6573  0.0936 -0.7734
 3857TIP3    H211525   3.460   3.366   0.661 -0.2520 -0.3910 -2.9583
 3858TIP3   OH211526   5.634   2.533   0.580 -0.1308 -0.2208  0.2581
 3858TIP3    H111527   5.628   2.463   0.514  2.3000 -1.3917  1.2031
 3858TIP3    H211528   5.673   2.606   0.533  0.5926 -0.6979  0.0968
 3859TIP3   OH211529   3.943   1.372   6.146 -0.1669  0.2006 -0.1733
 3859TIP3    H111530   3.891   1.315   6.203  0.0202  0.5288  0.3330
 3859TIP3    H211531   3.941   1.458   6.189  1.0214  0.1506  0.0072
 3860TIP3   OH211532   1.079   7.337   5.712  0.6420  0.5791  0.1878
 3860TIP3    H111533   1.063   7.394   5.787  1.9314  1.2686 -0.0537
 3860TIP3    H211534   1.145   7.383   5.660  1.1414 -0.7719 -0.4018
 3861TIP3   OH211535   4.694   4.380   1.905 -0.5528  0.0068  0.1925
 3861TIP3    H111536   4.598   4.381   1.906 -0.5812 -0.2488 -1.0920
 3861TIP3    H211537   4.719   4.363   1.995 -1.7385 -0.5831  0.4172
 3862TIP3   OH211538   1.585   6.843   6.288 -0.0533 -0.5990 -0.8845
 3862TIP3    H111539   1.577   6.937   6.272 -0.8819  0.1357  3.2048
 3862TIP3    H211540   1.679   6.828   6.301  0.0087 -0.2028 -0.8718
 3863TIP3   OH211541   7.703   5.400   1.356 -0.4631  0.4057 -0.6538
 3863TIP3    H111542   7.631   5.463   1.347 -0.2494  0.4542 -2.1788
 3863TIP3    H211543   7.781   5.449   1.329  0.0342  0.1260  0.2553
 3864TIP3   OH211544   0.040   4.916   1.197  0.0783  0.0591  0.0604
 3864TIP3    H111545   0.078   4.829   1.210 -0.7318 -0.3319 -0.2019
 3864TIP3    H211546  -0.033   4.920   1.259 -2.0761 -0.7775 -2.3558
 3865TIP3   OH211547   6.182   2.934   2.478  0.6137 -0.2739  0.4531
 3865TIP3    H111548   6.170   2.865   2.543 -3.0072 -1.3907 -1.2537
 3865TIP3    H211549   6.139   3.011   2.516 -1.7507 -1.0032 -0.6627
 3866TIP3   OH211550   2.627   0.713   1.641  0.6446  0.3367 -0.1038
 3866TIP3    H111551   2.666   0.792   1.605  0.9517  0.3049  0.1578
 3866TIP3    H211552   2.675   0.697   1.722 -0.9734  1.1987  1.0598
 3867TIP3   OH211553   7.656   2.682   1.335  1.0196  0.0045  0.4341
 3867TIP3    H111554   7.740   2.641   1.355  1.3708  1.7324  2.8697
 3867TIP3    H211555   7.652   2.683   1.240  3.0543 -1.5126  0.2883
 3868TIP3   OH211556   7.870   6.996   1.483 -0.0261 -0.3258  0.1931
 3868TIP3    H111557   7.881   7.075   1.535 -0.0710 -0.4861  0.4457
 3868TIP3    H211558   7.906   6.926   1.537  1.3393 -0.2788 -0.6197
 3869TIP3   OH211559   7.597   5.476   2.741  0.0993 -0.5516 -0.3078
 3869TIP3    H111560   7.634   5.416   2.806  0.1388  0.2813  0.4493
 3869TIP3    H211561   7.541   5.535   2.792  0.8857  0.7116 -0.9021
 3870TIP3   OH211562   0.441   2.984   3.032 -0.1997  0.0106 -0.1581
 3870TIP3    H111563   0.366   2.938   2.994 -1.1245  1.1076  0.2899
 3870TIP3    H211564   0.477   3.034   2.958 -0.4229  0.1250 -0.1924
 3871TIP3   OH211565   1.013   4.777   1.932  0.3610  0.4260  1.2024
 3871TIP3    H111566   1.027   4.828   2.012  3.3289 -0.5451  1.3661
 3871TIP3    H211567   1.064   4.823   1.865  0.2999 -0.4180  0.5703
 3872TIP3   OH211568   4.670   0.232   6.110 -0.4501  0.0131 -0.3738
 3872TIP3    H111569   4.590   0.229   6.058 -0.1525 -0.6609 -0.8000
 3872TIP3    H211570   4.670   0.149   6.158 -1.0335  0.8943  1.1774
 3873TIP3   OH211571   4.558   2.936   0.649 -0.0519  0.3813 -0.3126
 3873TIP3    H111572   4.558   2.842   0.632 -0.4813  0.0377  1.4598
 3873TIP3    H211573   4.643   2.952   0.690 -0.7151  0.4198  1.0811
 3874TIP3   OH211574   6.658   3.826   1.502  0.0654 -0.1726  0.6606
 3874TIP3    H111575   6.740   3.842   1.548  0.9624 -0.1674 -0.9182
 3874TIP3    H211576   6.677   3.753   1.443 -0.8699  0.2492 -0.1723
 3875TIP3   OH211577   4.166   2.714   6.188 -0.3884  0.4021 -0.4060
 3875TIP3    H111578   4.214   2.789   6.223 -0.0285  0.6195 -1.3338
 3875TIP3    H211579   4.100   2.694   6.254  0.8293  0.2437  0.7823
 3876TIP3   OH211580   5.214   1.951   6.130  0.2573  0.1861  0.0423
 3876TIP3    H111581   5.143   1.986   6.076  0.1302 -0.1498 -0.0063
 3876TIP3    H211582   5.290   2.005   6.107  0.1977  0.0591 -0.4594
 3877TIP3   OH211583   6.863   4.169   2.035 -0.0933  0.1654 -0.2966
 3877TIP3    H111584   6.770   4.171   2.056  0.2106 -0.4467  1.1720
 3877TIP3    H211585   6.892   4.259   2.050 -0.3074  0.2031 -0.0971
 3878TIP3   OH211586   0.416   1.823   3.295 -0.6819 -0.2356  0.4127
 3878TIP3    H111587   0.417   1.793   3.204 -1.7135 -0.0935  0.3473
 3878TIP3    H211588   0.449   1.913   3.291 -0.3566 -0.3598  0.2359
 3879TIP3   OH211589   1.890   6.403   0.074  0.0768  0.3621  0.1261
 3879TIP3    H111590   1.872   6.463   0.000 -3.4248 -1.9337 -1.0138
 3879TIP3    H211591   1.953   6.341   0.039  0.6275  0.9765  0.0092
 3880TIP3   OH211592   7.316   4.180   1.866 -0.3270  0.4436  0.9596
 3880TIP3    H111593   7.381   4.204   1.932 -0.2025 -1.2571  1.4877
 3880TIP3    H211594   7.252   4.251   1.867  1.5220  2.1705  0.4135
 3881TIP3   OH211595   3.791   4.339   1.689  0.3318  0.3532 -0.1532
 3881TIP3    H111596   3.774   4.266   1.748  1.9558  0.6694  0.7406
 3881TIP3    H211597   3.882   4.327   1.661  0.6528  2.0318  0.0560
 3882TIP3   OH211598   2.274   2.119   5.126 -0.1538  0.0494  0.1441
 3882TIP3    H111599   2.317   2.094   5.045 -1.0452  4.1092 -1.6969
 3882TIP3    H211600   2.341   2.166   5.176 -0.8590  1.5143 -0.2695
 3883TIP3   OH211601   5.522   3.495   0.753  0.0838  0.5112 -0.5214
 3883TIP3    H111602   5.617   3.502   0.763  0.1781  0.1640 -1.1144
 3883TIP3    H211603   5.508   3.404   0.727 -0.5893  0.0213  1.4740
 3884TIP3   OH211604   6.503   2.485   0.098  0.4377  0.5585  0.2162
 3884TIP3    H111605   6.473   2.560   0.048 -0.9336 -0.6736 -0.8438
 3884TIP3    H211606   6.423   2.440   0.125  1.2380 -0.4679  0.9251
 3885TIP3   OH211607   6.644   4.013   2.722  0.0007  0.1664  0.3048
 3885TIP3    H111608   6.639   4.095   2.672  1.1572  0.5130  0.7486
 3885TIP3    H211609   6.580   4.024   2.792 -1.3312 -0.1517 -0.8392
 3886TIP3   OH211610   6.687   4.449   2.722 -0.2180 -0.9165  0.0584
 3886TIP3    H111611   6.691   4.501   2.802 -0.2889  0.1449 -0.6106
 3886TIP3    H211612   6.776   4.448   2.688 -0.5118  0.1890 -0.7984
 3887TIP3   OH211613   5.496   4.157   1.167 -0.1146  0.5954  0.2152
 3887TIP3    H111614   5.521   4.207   1.244 -0.7583 -0.2285  0.9718
 3887TIP3    H211615   5.523   4.067   1.187 -2.7004 -0.1376  0.6413
 3888TIP3   OH211616   6.691   4.799   1.245  0.8676  0.2567 -0.2623
 3888TIP3    H111617   6.735   4.840   1.171 -1.9947  1.1974 -1.5050
 3888TIP3    H211618   6.642   4.726   1.207  0.6700 -0.2595  0.9518
 3889TIP3   OH211619   6.488   4.704   1.605  0.2270  0.6109  0.2039
 3889TIP3    H111620   6.433   4.660   1.540  1.0196  1.7581 -1.2565
 3889TIP3    H211621   6.431   4.711   1.682 -0.4684 -1.4297 -0.0897
 3890TIP3   OH211622   5.626   4.601   2.858 -0.3133 -0.1121 -0.0473
 3890TIP3    H111623   5.553   4.656   2.885  0.2277  0.9084 -0.6447
 3890TIP3    H211624   5.604   4.514   2.892  0.2845  1.0815  3.6700
 3891TIP3   OH211625   7.401   3.015   1.452  0.2439 -0.2666 -0.3643
 3891TIP3    H111626   7.462   3.040   1.383  1.8458 -0.7718  0.8378
 3891TIP3    H211627   7.367   2.930   1.424  1.4311 -0.8118 -0.2088
 3892TIP3   OH211628   7.918   4.517   3.823 -0.1697  0.0309  0.2769
 3892TIP3    H111629   7.874   4.509   3.739  1.3715  0.4120 -0.5948
 3892TIP3    H211630   7.905   4.609   3.849  1.5983  0.6411 -0.8664
 3893TIP3   OH211631   4.364   2.866   0.956 -0.7339  0.2205 -0.2127
 3893TIP3    H111632   4.280   2.825   0.976 -0.8550  0.0784 -0.9970
 3893TIP3    H211633   4.361   2.882   0.862  0.5413 -0.7380 -0.4351
 3894TIP3   OH211634   0.948   7.156   0.773 -0.2689 -0.0134  0.6169
 3894TIP3    H111635   1.043   7.156   0.779 -0.3095 -1.9068  1.8028
 3894TIP3    H211636   0.920   7.236   0.817  0.8576  2.2977 -2.6373
 3895TIP3   OH211637   1.205   3.309   1.270 -0.5140 -0.1782  0.2460
 3895TIP3    H111638   1.231   3.226   1.231 -0.2963 -0.3206  0.6851
 3895TIP3    H211639   1.206   3.292   1.364 -0.6492  0.2691  0.3300
 3896TIP3   OH211640   5.243   3.952   0.255 -0.4845 -0.3430 -0.6280
 3896TIP3    H111641   5.156   3.975   0.287  0.5179  3.5794 -0.4515
 3896TIP3    H211642   5.229   3.874   0.201 -3.7557 -0.9929  1.0387
 3897TIP3   OH211643   7.171   6.044   3.083 -0.4007 -0.1316  0.0307
 3897TIP3    H111644   7.199   6.095   3.159  1.4628 -1.8858  0.5466
 3897TIP3    H211645   7.089   6.003   3.111  0.0440 -0.4069  0.9291
 3898TIP3   OH211646   6.631   5.365   2.618  0.4254 -0.3547 -0.1928
 3898TIP3    H111647   6.640   5.421   2.695 -1.3188 -0.9662  0.4742
 3898TIP3    H211648   6.678   5.412   2.549 -0.9920  1.9412  0.3472
 3899TIP3   OH211649   7.049   4.836   0.528 -0.8727 -0.1317  0.7281
 3899TIP3    H111650   7.049   4.930   0.544 -0.8518  0.3429 -1.8252
 3899TIP3    H211651   7.141   4.809   0.536 -0.7211  0.2769  0.3459
 3900TIP3   OH211652   3.575   2.646   6.179  0.6614  0.1736  0.5839
 3900TIP3    H111653   3.540   2.641   6.090  1.3298 -0.7331  0.3615
 3900TIP3    H211654   3.520   2.588   6.230  3.5964 -3.7101 -0.3847
 3901TIP3   OH211655   0.485   5.268   2.109  0.3345  0.2547  0.2234
 3901TIP3    H111656   0.454   5.289   2.198 -0.5083  0.7507 -0.1773
 3901TIP3    H211657   0.580   5.261   2.118  0.1884 -0.5160  1.3320
 3902TIP3   OH211658   6.633   4.800   0.518 -0.0331  0.3817  0.6580
 3902TIP3    H111659   6.544   4.816   0.487  0.3608  0.7395 -0.2890
 3902TIP3    H211660   6.658   4.716   0.479  0.0094  0.2350  0.9997
 3903TIP3   OH211661   5.502   7.070   1.791 -0.1890  0.6340 -0.1823
 3903TIP3    H111662   5.534   6.982   1.813 -2.8125 -0.9501 -2.4397
 3903TIP3    H211663   5.581   7.118   1.764  1.3387 -0.8496  1.5306
 3904TIP3   OH211664   5.370   3.555   2.216 -0.1225  0.3267  0.7352
 3904TIP3    H111665   5.323   3.566   2.133  1.7135  0.0990 -0.3740
 3904TIP3    H211666   5.353   3.465   2.242 -1.3308  0.6237  1.0308
 3905TIP3   OH211667   6.975   4.662   0.829 -0.0497 -0.3636 -0.8139
 3905TIP3    H111668   7.031   4.597   0.871 -1.1438  0.4803  2.0279
 3905TIP3    H211669   7.033   4.738   0.816  0.2925 -0.6240 -0.8356
 3906TIP3   OH211670   5.509   5.354   3.355  0.0202  0.1958  0.2083
 3906TIP3    H111671   5.587   5.305   3.328  0.8921  1.8452 -0.3017
 3906TIP3    H211672   5.543   5.427   3.407 -0.9543  2.4329 -2.2022
 3907TIP3   OH211673   6.380   4.093   2.319 -0.0724 -0.5938 -0.0476
 3907TIP3    H111674   6.314   4.037   2.359  0.7926 -0.0984  2.1622
 3907TIP3    H211675   6.374   4.176   2.367 -0.0751  0.5887 -2.0213
 3908TIP3   OH211676   5.569   3.845   2.877 -0.1814  0.3895  0.0725
 3908TIP3    H111677   5.650   3.802   2.905 -0.3435 -0.0954 -0.2011
 3908TIP3    H211678   5.502   3.777   2.884 -0.5384  0.7453  0.1437
 3909TIP3   OH211679   5.576   4.289   0.931  0.0186 -0.5183 -0.3558
 3909TIP3    H111680   5.533   4.254   1.008 -0.9929  0.8875 -0.2640
 3909TIP3    H211681   5.505   4.324   0.877  1.0844  2.9656  0.3712
 3910TIP3   OH211682   5.812   3.394   1.571  0.3045  0.5979 -0.0581
 3910TIP3    H111683   5.775   3.307   1.582  1.5137  0.0496 -0.2870
 3910TIP3    H211684   5.775   3.445   1.643  1.6070 -0.7927  1.6374
 3911TIP3   OH211685   7.844   7.426   3.759 -0.2003 -0.1778  0.0138
 3911TIP3    H111686   7.794   7.469   3.689 -1.0844 -1.0102  0.1149
 3911TIP3    H211687   7.936   7.437   3.734 -0.4338  1.2863 -0.2339
 3912TIP3   OH211688   5.701   5.403   1.809 -0.4980 -0.0612 -0.1960
 3912TIP3    H111689   5.608   5.395   1.829 -0.6318 -0.5467 -0.9999
 3912TIP3    H211690   5.719   5.330   1.750  0.8786 -1.3453  1.7528
 3913TIP3   OH211691   3.894   1.035   5.468  0.4161  0.1531 -0.0576
 3913TIP3    H111692   3.802   1.044   5.446  0.1435  0.7317  1.2702
 3913TIP3    H211693   3.905   1.088   5.547  1.6087 -0.9351  0.5180
 3914TIP3   OH211694   1.648   3.432   6.406 -0.6264  0.8133  0.0067
 3914TIP3    H111695   1.565   3.477   6.393 -1.4940 -1.2283 -1.8622
 3914TIP3    H211696   1.695   3.443   6.323 -0.0897 -0.1685  0.1628
 3915TIP3   OH211697   6.339   0.112   1.630 -0.0087  0.3691 -0.5128
 3915TIP3    H111698   6.430   0.085   1.642  0.4092  1.7432 -0.4632
 3915TIP3    H211699   6.323   0.176   1.700 -1.3716 -0.7139  0.1758
 3916TIP3   OH211700   5.521   5.656   0.723  0.2220 -0.5130  0.1373
 3916TIP3    H111701   5.558   5.581   0.770  0.8601 -0.0802  0.3296
 3916TIP3    H211702   5.547   5.643   0.632 -1.0825 -1.3936 -0.1227
 3917TIP3   OH211703   0.422   3.033   2.582  0.7564 -0.2734 -0.3078
 3917TIP3    H111704   0.389   3.120   2.604 -1.8620 -1.1897 -0.4456
 3917TIP3    H211705   0.431   2.988   2.666 -1.8289 -1.2005 -0.4903
 3918TIP3   OH211706   7.531   6.895   1.122  0.3701  0.5570 -0.4767
 3918TIP3    H111707   7.544   6.803   1.146  2.4957  1.1710  0.9535
 3918TIP3    H211708   7.613   6.919   1.079  0.5895  2.2817  0.8746
 3919TIP3   OH211709   6.945   6.198   1.730  0.4311 -0.4258 -0.4781
 3919TIP3    H111710   6.928   6.292   1.718  1.1115 -0.4696 -1.8637
 3919TIP3    H211711   6.887   6.156   1.667  1.6278 -0.8403 -1.3043
 3920TIP3   OH211712   6.499   3.895   3.005 -0.2475 -0.2117  0.6223
 3920TIP3    H111713   6.427   3.868   2.948  0.4204 -0.4598 -0.1104
 3920TIP3    H211714   6.489   3.990   3.012 -0.0239 -0.1029 -0.3521
 3921TIP3   OH211715   2.242   1.819   4.871 -0.2483  0.1883  0.6210
 3921TIP3    H111716   2.252   1.750   4.937 -0.6004  0.1894  0.6757
 3921TIP3    H211717   2.311   1.882   4.891  0.5792 -0.5333  0.0898
 3922TIP3   OH211718   5.935   1.528   2.244  0.2712 -0.8253 -0.2877
 3922TIP3    H111719   5.915   1.436   2.223 -0.3355 -0.5989 -0.7364
 3922TIP3    H211720   5.881   1.546   2.322 -1.6746 -0.0832 -1.7607
 3923TIP3   OH211721   6.310   5.429   1.929 -0.0930 -0.0886 -0.7275
 3923TIP3    H111722   6.307   5.505   1.987 -0.2243 -0.3728 -0.3577
 3923TIP3    H211723   6.388   5.380   1.956  1.0875  0.9004 -2.2305
 3924TIP3   OH211724   2.369   0.768   6.097  0.3049 -0.3145 -0.5272
 3924TIP3    H111725   2.281   0.736   6.114 -0.9010  2.4856 -1.3059
 3924TIP3    H211726   2.391   0.822   6.172 -0.1488  2.0200 -2.0292
 3925TIP3   OH211727   4.812   2.937   2.074 -0.2096 -0.5012 -0.1742
 3925TIP3    H111728   4.828   2.902   1.986 -0.6222 -0.6536 -0.1873
 3925TIP3    H211729   4.719   2.961   2.074  0.0555  0.5291 -0.1471
 3926TIP3   OH211730   6.625   3.763   4.181  0.0905 -0.4991  0.3754
 3926TIP3    H111731   6.599   3.717   4.260  0.4000  0.4217  1.0235
 3926TIP3    H211732   6.720   3.756   4.178  0.1307 -0.0082  0.4182
 3927TIP3   OH211733   6.839   4.336   0.868  0.5333 -0.0525  0.1307
 3927TIP3    H111734   6.803   4.363   0.953 -1.0029  0.6004 -0.7093
 3927TIP3    H211735   6.931   4.363   0.871 -0.1118  2.2001  0.6488
 3928TIP3   OH211736   7.554   6.319   2.204 -0.4521  0.2105  0.3082
 3928TIP3    H111737   7.587   6.346   2.118 -0.3449  0.6128  0.4780
 3928TIP3    H211738   7.531   6.400   2.248  0.4065  0.0700  1.0334
 3929TIP3   OH211739   0.467   6.854   1.504  0.1218 -0.0672 -0.1606
 3929TIP3    H111740   0.468   6.874   1.410 -1.3675 -0.9505 -0.3897
 3929TIP3    H211741   0.421   6.928   1.543  0.9993  0.4426 -0.0855
 3930TIP3   OH211742   6.250   4.857   2.096  0.2053 -0.2941  0.1664
 3930TIP3    H111743   6.248   4.849   2.000 -1.1138 -0.8564  0.2309
 3930TIP3    H211744   6.339   4.886   2.116  0.7850 -1.1346 -1.1532
 3931TIP3   OH211745   1.882   5.004   1.901 -0.4616  0.1497 -0.5564
 3931TIP3    H111746   1.894   4.913   1.872  0.4466  0.4621 -1.1611
 3931TIP3    H211747   1.926   5.008   1.986  1.1077  0.4905 -1.3662
 3932TIP3   OH211748   0.519   3.601   2.496 -0.1648  0.4070 -0.5740
 3932TIP3    H111749   0.602   3.567   2.530 -0.5581  0.5169  0.4946
 3932TIP3    H211750   0.494   3.669   2.558 -1.0111  0.4433 -0.9561
 3933TIP3   OH211751   2.452   4.687   2.706  0.1413 -0.7143 -0.3595
 3933TIP3    H111752   2.490   4.766   2.668  2.1909 -2.2352 -1.5643
 3933TIP3    H211753   2.510   4.665   2.779  0.2258 -1.7282 -0.7284
 3934TIP3   OH211754   0.204   4.812   4.339 -0.0443 -0.3672 -0.6432
 3934TIP3    H111755   0.118   4.773   4.322 -0.0703 -0.0591 -1.2412
 3934TIP3    H211756   0.185   4.892   4.388  0.1604 -2.3312  2.7894
 3935TIP3   OH211757   2.045   6.545   2.876 -0.5390 -0.1947  0.4163
 3935TIP3    H111758   2.057   6.450   2.881  0.6750 -0.0666  0.1296
 3935TIP3    H211759   2.055   6.574   2.967 -1.5601 -0.4074  0.6016
 3936TIP3   OH211760   7.164   4.918   4.801  0.3059  0.2072  0.1161
 3936TIP3    H111761   7.243   4.865   4.810 -0.1880 -0.2788  1.8477
 3936TIP3    H211762   7.182   4.998   4.849  0.4115  0.8969 -1.0458
 3937TIP3   OH211763   7.355   6.790   3.315 -0.5377 -0.0570 -0.4212
 3937TIP3    H111764   7.306   6.833   3.385 -1.5097 -0.8931 -0.5795
 3937TIP3    H211765   7.338   6.844   3.237  0.9360  1.1516  0.0602
 3938TIP3   OH211766   0.637   2.259   2.339 -0.3858  0.2973  0.1312
 3938TIP3    H111767   0.663   2.182   2.391  0.4961  0.4980 -0.0218
 3938TIP3    H211768   0.614   2.325   2.405 -0.3054  0.1947  0.2632
 3939TIP3   OH211769   2.560   4.612   3.177 -0.1757  0.0640  0.4203
 3939TIP3    H111770   2.610   4.690   3.203  1.4614 -0.8014 -0.0829
 3939TIP3    H211771   2.583   4.598   3.085 -1.5309 -0.2265  0.1090
 3940TIP3   OH211772   6.837   6.584   3.222 -0.0826 -0.3597 -0.3721
 3940TIP3    H111773   6.857   6.638   3.298 -0.8237  1.0707 -1.1914
 3940TIP3    H211774   6.842   6.494   3.255  1.5970  0.1701  0.8865
 3941TIP3   OH211775   7.530   5.072   0.204 -1.0146 -0.1592  0.5835
 3941TIP3    H111776   7.496   4.993   0.163  0.5103 -0.3992 -0.2758
 3941TIP3    H211777   7.521   5.056   0.298 -0.9117 -1.2697  0.4117
 3942TIP3   OH211778   7.242   4.617   3.103 -0.3168 -0.0053 -0.5448
 3942TIP3    H111779   7.271   4.691   3.156 -1.3894  1.2461 -1.6621
 3942TIP3    H211780   7.160   4.646   3.063 -1.2427 -2.1518 -0.2736
 3943TIP3   OH211781   0.313   5.228   3.575 -0.4068  0.3478  0.3361
 3943TIP3    H111782   0.247   5.284   3.532  0.7905  0.8924 -0.8240
 3943TIP3    H211783   0.331   5.160   3.511 -1.5788 -1.1839  1.6013
 3944TIP3   OH211784   0.218   5.519   2.374 -0.1057  0.2826  0.3507
 3944TIP3    H111785   0.206   5.509   2.280 -1.2906  0.0330  0.5167
 3944TIP3    H211786   0.302   5.477   2.393 -0.0780 -0.0491 -0.5186
 3945TIP3   OH211787   0.384   3.841   4.255  0.2372 -0.2088  0.3218
 3945TIP3    H111788   0.397   3.813   4.165 -1.9229 -0.5072  0.0716
 3945TIP3    H211789   0.394   3.760   4.306 -2.2362 -0.7762 -0.0358
 3946TIP3   OH211790   0.617   5.190   2.461 -0.8807 -0.1890 -0.3542
 3946TIP3    H111791   0.574   5.130   2.521 -1.4394 -0.0496 -0.6181
 3946TIP3    H211792   0.708   5.191   2.491 -0.5480 -2.2582 -1.2268
 3947TIP3   OH211793   1.021   4.724   2.560  0.8698 -0.1292 -0.2258
 3947TIP3    H111794   0.995   4.674   2.637 -1.2419  0.6311 -0.4019
 3947TIP3    H211795   0.958   4.796   2.555  0.5518 -0.5345 -3.0292
 3948TIP3   OH211796   5.975   6.703   3.089  0.0741  0.5862 -0.2669
 3948TIP3    H111797   5.941   6.759   3.159 -0.5456 -0.0094 -0.0990
 3948TIP3    H211798   5.913   6.715   3.017  0.4049  0.7623 -0.5254
 3949TIP3   OH211799   0.965   5.610   3.004 -0.3922  0.3543  0.1259
 3949TIP3    H111800   0.889   5.595   2.949 -1.6980  3.4721  0.9293
 3949TIP3    H211801   0.950   5.556   3.082 -0.9346 -0.3341 -0.4532
 3950TIP3   OH211802   4.004   7.193   5.973  0.1110 -0.5201  0.2414
 3950TIP3    H111803   4.055   7.151   6.042 -1.1738 -1.6610  0.5098
 3950TIP3    H211804   3.914   7.195   6.007 -0.2679  0.2205 -0.7898
 3951TIP3   OH211805   1.793   6.102   1.311 -0.1091 -0.3955  0.3276
 3951TIP3    H111806   1.850   6.109   1.235 -0.4278 -2.9166 -0.1727
 3951TIP3    H211807   1.704   6.105   1.275 -0.2864  0.3315  0.8039
 3952TIP3   OH211808   7.492   4.188   5.610 -0.0011 -0.3551  0.1311
 3952TIP3    H111809   7.539   4.258   5.656  0.0040 -0.5577  0.4364
 3952TIP3    H211810   7.537   4.108   5.638 -0.7946 -0.5863  0.7441
 3953TIP3   OH211811   7.618   5.933   3.439  0.0529 -0.5024 -1.1337
 3953TIP3    H111812   7.628   5.842   3.468 -0.8993 -0.3887 -0.4049
 3953TIP3    H211813   7.524   5.944   3.426  0.3387 -0.1832 -3.1427
 3954TIP3   OH211814   0.684   6.705   3.868  0.5787 -0.2032  0.2825
 3954TIP3    H111815   0.679   6.761   3.945  0.7565  3.1261 -2.0271
 3954TIP3    H211816   0.778   6.686   3.860  0.8292  1.2348 -0.3199
 3955TIP3   OH211817   0.377   4.463   5.216 -0.0143 -0.0178  0.2427
 3955TIP3    H111818   0.385   4.391   5.279  0.3822 -0.0100  0.1999
 3955TIP3    H211819   0.346   4.537   5.269  0.0532 -0.0865  0.3805
 3956TIP3   OH211820   0.285   6.715   3.430 -0.0414 -0.2323 -0.0183
 3956TIP3    H111821   0.207   6.761   3.399  1.2084  2.2850  0.4203
 3956TIP3    H211822   0.254   6.662   3.503 -1.3338  0.8562  0.2516
 3957TIP3   OH211823   0.885   5.544   2.430 -0.5865  0.4562 -0.3685
 3957TIP3    H111824   0.849   5.632   2.427  1.8564  1.4567 -2.0218
 3957TIP3    H211825   0.978   5.557   2.448 -0.9025 -2.0106  3.4905
 3958TIP3   OH211826   6.145   5.193   1.135  0.1393 -0.4187 -0.1258
 3958TIP3    H111827   6.180   5.106   1.114  0.0130 -0.0782 -1.8092
 3958TIP3    H211828   6.215   5.254   1.110 -0.6560  0.0998 -1.1155
 3959TIP3   OH211829   7.233   6.540   0.809  0.2047  0.0345 -0.6924
 3959TIP3    H111830   7.216   6.634   0.802 -0.0286  0.1915  1.5410
 3959TIP3    H211831   7.328   6.532   0.809  0.2815  0.5176  1.3225
 3960TIP3   OH211832   1.056   5.935   4.953  0.1421 -0.5966 -0.2279
 3960TIP3    H111833   1.122   5.985   4.904  3.3967 -4.1537  0.2722
 3960TIP3    H211834   1.071   5.958   5.045  0.9770 -1.7060 -0.0807
 3961TIP3   OH211835   7.835   6.523   1.456 -0.2911 -0.1373  0.0906
 3961TIP3    H111836   7.891   6.522   1.533  1.3274  1.7797 -0.9943
 3961TIP3    H211837   7.756   6.475   1.482  1.3593 -1.8853  2.0255
 3962TIP3   OH211838   5.832   1.884   6.374  0.1199  0.2207 -0.8046
 3962TIP3    H111839   5.897   1.929   6.320  0.8671 -1.0438 -0.9716
 3962TIP3    H211840   5.780   1.955   6.413  0.4183  1.1814 -2.1203
 3963TIP3   OH211841   1.018   4.623   1.450 -0.6618  0.1280  0.1502
 3963TIP3    H111842   0.940   4.573   1.427 -0.0383 -0.9810  0.3895
 3963TIP3    H211843   1.062   4.570   1.516  0.2892  0.7474  0.0292
 3964TIP3   OH211844   1.060   4.143   3.259 -0.0597 -0.8489 -0.0737
 3964TIP3    H111845   1.074   4.197   3.181 -1.2077 -0.0079  0.2826
 3964TIP3    H211846   1.008   4.198   3.317  0.7160 -1.5036  1.2585
 3965TIP3   OH211847   7.639   5.506   1.849 -0.0007  0.7671 -0.3395
 3965TIP3    H111848   7.553   5.531   1.883  0.1493  1.0238 -0.1381
 3965TIP3    H211849   7.644   5.547   1.763  0.5766  2.1665  0.3361
 3966TIP3   OH211850   7.461   6.003   1.443 -0.1795  0.4098 -0.2408
 3966TIP3    H111851   7.433   6.093   1.462  0.6413  0.3708  1.2404
 3966TIP3    H211852   7.525   6.012   1.372  0.3011  1.0621  0.2651
 3967TIP3   OH211853   7.181   5.603   3.095 -0.4466  0.0048 -0.5617
 3967TIP3    H111854   7.156   5.666   3.163  0.5933 -0.6540  0.4583
 3967TIP3    H211855   7.113   5.536   3.099 -0.3075 -0.1098 -0.0541
 3968TIP3   OH211856   1.584   5.220   0.341 -0.1461 -0.9321  0.0727
 3968TIP3    H111857   1.526   5.174   0.402 -1.3899  2.0060  1.1589
 3968TIP3    H211858   1.660   5.162   0.333 -1.1123 -2.6018  2.3633
 3969TIP3   OH211859   1.455   0.507   2.746 -0.1137 -0.0350  0.1671
 3969TIP3    H111860   1.378   0.524   2.692  0.6625  0.2284 -0.8609
 3969TIP3    H211861   1.445   0.415   2.773  0.2262 -0.6198 -1.6305
 3970TIP3   OH211862   7.774   5.099   0.685  0.5262  0.4782  0.2891
 3970TIP3    H111863   7.784   5.070   0.776  0.6022 -0.6055 -0.0530
 3970TIP3    H211864   7.836   5.046   0.636 -0.5717 -0.0062 -0.6050
 3971TIP3   OH211865   0.728   5.432   4.207  0.3041 -0.1620 -0.0444
 3971TIP3    H111866   0.820   5.422   4.182  0.5225  3.7240 -1.0556
 3971TIP3    H211867   0.681   5.438   4.124 -0.7292 -0.9190  0.4773
 3972TIP3   OH211868   0.840   6.652   0.980  0.4423 -0.6632 -0.4272
 3972TIP3    H111869   0.786   6.584   1.019 -0.9175 -0.1167 -1.3104
 3972TIP3    H211870   0.880   6.610   0.903  2.8558 -1.6391  1.2997
 3973TIP3   OH211871   7.345   6.008   2.661 -0.1266 -0.1487  0.0847
 3973TIP3    H111872   7.259   5.984   2.625 -1.0955  1.4090  1.2440
 3973TIP3    H211873   7.334   5.998   2.756  0.7317  0.7971  0.2872
 3974TIP3   OH211874   7.425   6.918   1.418  0.8033  0.1606  0.2778
 3974TIP3    H111875   7.458   6.841   1.465 -0.1151 -0.4860 -0.1253
 3974TIP3    H211876   7.437   6.896   1.326  0.9088  0.6748  0.1662
 3975TIP3   OH211877   6.353   6.137   3.023 -0.3121 -0.2670  0.4537
 3975TIP3    H111878   6.405   6.204   2.979  1.0613 -2.2298 -0.9885
 3975TIP3    H211879   6.263   6.168   3.015  0.2907  1.3996 -0.1830
 3976TIP3   OH211880   7.661   5.582   2.507 -0.5025  0.0120  0.3868
 3976TIP3    H111881   7.625   5.542   2.586 -0.9105  0.1938  0.2981
 3976TIP3    H211882   7.633   5.523   2.436 -0.5346  0.0979  0.3287
 3977TIP3   OH211883   7.793   4.908   3.336  0.6657 -0.2888  0.0939
 3977TIP3    H111884   7.757   4.985   3.380  3.2242 -0.2342  2.2038
 3977TIP3    H211885   7.858   4.943   3.275  1.0019 -0.7049  0.2106
 3978TIP3   OH211886   7.725   6.042   3.659 -0.1476 -0.2323  0.3839
 3978TIP3    H111887   7.708   5.996   3.577  0.6516 -0.1188  0.1546
 3978TIP3    H211888   7.752   6.130   3.632  0.3933 -0.2838  0.7585
 3979TIP3   OH211889   0.837   4.623   3.898  0.6204 -0.4776  0.3795
 3979TIP3    H111890   0.914   4.604   3.845  0.1083 -0.1609 -0.4891
 3979TIP3    H211891   0.799   4.701   3.859 -0.1753 -0.6660  0.7669
 3980TIP3   OH211892   0.876   6.602   1.713  0.1300 -0.4201  0.5520
 3980TIP3    H111893   0.829   6.676   1.675  0.2583 -0.4691  0.2936
 3980TIP3    H211894   0.849   6.601   1.805  0.6160  0.3287  0.7053
 3981TIP3   OH211895   0.281   4.495   2.330  0.7297 -0.2864  0.4998
 3981TIP3    H111896   0.326   4.555   2.271  0.6753 -0.0168  0.7348
 3981TIP3    H211897   0.341   4.421   2.339  0.7462 -0.3224  0.1199
 3982TIP3   OH211898   1.914   4.487   0.828  0.3909 -0.1611  0.1458
 3982TIP3    H111899   1.845   4.520   0.770 -0.2537 -1.6334  0.0594
 3982TIP3    H211900   1.912   4.546   0.903  0.8302  1.4051 -1.0352
 3983TIP3   OH211901   1.045   6.107   2.745 -0.2685  0.3645  0.6706
 3983TIP3    H111902   1.055   6.147   2.831 -2.0134  0.0809  1.0200
 3983TIP3    H211903   1.017   6.179   2.688 -1.7851  0.0026  0.9416
 3984TIP3   OH211904   6.320   3.100   2.159 -0.1687 -0.3446  0.4705
 3984TIP3    H111905   6.281   3.181   2.190 -0.0313 -0.2774  0.4661
 3984TIP3    H211906   6.364   3.063   2.235 -2.0397 -1.4924  1.0267
 3985TIP3   OH211907   1.522   5.005   2.215 -0.5484  0.3885  0.1906
 3985TIP3    H111908   1.560   4.985   2.301  2.3565  0.8581 -0.9295
 3985TIP3    H211909   1.504   4.920   2.176 -2.1565  0.1765  1.3580
 3986TIP3   OH211910   1.391   7.377   4.065  0.3900  0.2728  0.0883
 3986TIP3    H111911   1.374   7.364   3.971 -1.4314 -1.0636  0.5793
 3986TIP3    H211912   1.433   7.463   4.070  3.1708 -0.8571 -2.2316
 3987TIP3   OH211913   6.476   6.664   3.503 -0.2220 -0.0508 -0.1865
 3987TIP3    H111914   6.475   6.749   3.548 -0.0015 -0.2445  0.1891
 3987TIP3    H211915   6.384   6.642   3.490 -0.3311  1.9422 -3.5169
 3988TIP3   OH211916   6.726   4.518   1.425  0.6425 -0.3143 -0.2259
 3988TIP3    H111917   6.650   4.571   1.446  0.7663 -0.3931  0.4422
 3988TIP3    H211918   6.789   4.536   1.495  1.2270 -0.2737 -0.7507
 3989TIP3   OH211919   0.765   7.341   2.609  0.4209  0.5216  0.3277
 3989TIP3    H111920   0.678   7.301   2.603 -0.0869  1.4906  0.9132
 3989TIP3    H211921   0.795   7.347   2.519 -0.0845  0.0922  0.1266
 3990TIP3   OH211922   2.711   4.064   0.627  0.5980  0.1007 -0.4343
 3990TIP3    H111923   2.721   4.078   0.533 -0.8115  1.5217 -0.3885
 3990TIP3    H211924   2.617   4.066   0.642  0.8690  1.4972  1.2400
 3991TIP3   OH211925   0.866   5.725   0.469 -0.0825  0.6376  0.5576
 3991TIP3    H111926   0.943   5.763   0.427  0.5624 -1.2982 -0.0758
 3991TIP3    H211927   0.898   5.696   0.555 -0.5299  1.3498  0.9722
 3992TIP3   OH211928   1.269   4.715   4.043  0.2380 -0.3024 -0.2434
 3992TIP3    H111929   1.298   4.624   4.042  0.0661 -0.3788  1.1272
 3992TIP3    H211930   1.262   4.739   3.951  0.0952 -1.7436 -0.6137
 3993TIP3   OH211931   4.378   1.642   0.248 -0.6122 -0.7392 -0.1928
 3993TIP3    H111932   4.423   1.584   0.310 -1.9739 -0.1014  1.4233
 3993TIP3    H211933   4.299   1.670   0.295 -0.0534  2.3111 -1.0019
 3994TIP3   OH211934   6.044   2.025   6.279  0.0357 -0.0244  0.2675
 3994TIP3    H111935   6.120   1.967   6.284  0.3120  0.3310  0.2495
 3994TIP3    H211936   6.080   2.112   6.296 -0.6211 -0.0537  1.8651
 3995TIP3   OH211937   6.984   6.279   2.667 -0.9410  0.6178 -0.0172
 3995TIP3    H111938   6.953   6.352   2.614 -2.0457 -1.4206 -2.2994
 3995TIP3    H211939   6.918   6.211   2.655  1.0133 -1.4327  0.4963
 3996TIP3   OH211940   0.859   2.932   1.912 -0.3596  0.3112  0.2967
 3996TIP3    H111941   0.796   2.947   1.983  0.5198 -0.9890  1.3876
 3996TIP3    H211942   0.938   2.977   1.940 -0.5831  1.3545 -0.7454
 3997TIP3   OH211943   6.872   5.576   3.317  0.1562 -0.0712  0.1694
 3997TIP3    H111944   6.927   5.575   3.396  0.2543  2.7498  0.2043
 3997TIP3    H211945   6.829   5.661   3.319  0.6618  0.3472 -3.1671
 3998TIP3   OH211946   7.828   4.204   3.334 -0.1052  0.0573  0.5283
 3998TIP3    H111947   7.815   4.158   3.417  0.4211 -1.3841 -0.1739
 3998TIP3    H211948   7.914   4.246   3.344 -1.2217  2.1735  1.7346
 3999TIP3   OH211949   4.689   6.897   0.456  0.2261  0.4893 -0.6471
 3999TIP3    H111950   4.733   6.929   0.378 -1.1474  2.3923 -0.6784
 3999TIP3    H211951   4.629   6.830   0.424  0.3511  0.5896 -1.0973
 4000TIP3   OH211952   0.458   3.801   2.672 -0.4070  0.0634  0.2456
 4000TIP3    H111953   0.416   3.811   2.757  0.9010 -0.4434  0.9470
 4000TIP3    H211954   0.541   3.847   2.680 -0.5578  0.5598 -0.9604
 4001TIP3   OH211955   7.678   4.422   5.493 -0.1721 -0.4958  0.6364
 4001TIP3    H111956   7.688   4.350   5.432  0.6917  0.9848 -1.0215
 4001TIP3    H211957   7.601   4.470   5.463  0.4098  0.3894  0.5243
 4002TIP3   OH211958   0.275   3.552   5.439  0.0100 -0.1533 -0.5601
 4002TIP3    H111959   0.279   3.513   5.526  0.0215 -0.5258 -0.7238
 4002TIP3    H211960   0.186   3.531   5.408  0.0235 -0.0668 -0.6581
 4003TIP3   OH211961   2.430   0.482   1.033 -0.4075  0.1774 -0.1721
 4003TIP3    H111962   2.519   0.448   1.034 -0.8440 -0.9625  0.8362
 4003TIP3    H211963   2.401   0.476   1.124 -1.9366 -0.5825 -0.6944
 4004TIP3   OH211964   1.752   4.789   3.165  0.1869 -0.2433  0.1699
 4004TIP3    H111965   1.829   4.765   3.217  0.2887 -0.2073  0.0359
 4004TIP3    H211966   1.776   4.872   3.124  1.3558 -1.7927 -2.4734
 4005TIP3   OH211967   0.570   4.701   2.507  0.5128 -0.0059  0.0891
 4005TIP3    H111968   0.487   4.666   2.539  0.0733  0.4404 -0.5539
 4005TIP3    H211969   0.570   4.681   2.413  1.4053 -0.5466  0.1961
 4006TIP3   OH211970   7.313   4.827   2.170 -0.2803  0.0938 -0.4511
 4006TIP3    H111971   7.325   4.912   2.212  1.1839 -0.5358  0.4630
 4006TIP3    H211972   7.229   4.795   2.202 -1.5912  1.8679 -2.0276
 4007TIP3   OH211973   0.776   5.782   2.505  0.7275 -0.3276 -0.2001
 4007TIP3    H111974   0.836   5.790   2.579 -0.4458 -1.3944  0.8899
 4007TIP3    H211975   0.723   5.863   2.508  1.5018  0.2024 -0.6323
 4008TIP3   OH211976   6.801   4.951   2.048  0.9182  0.1049  0.0118
 4008TIP3    H111977   6.794   4.861   2.080  0.2131  0.0835 -0.2103
 4008TIP3    H211978   6.763   4.949   1.960  2.0177  0.3625 -0.4812
 4009TIP3   OH211979   1.178   7.254   3.444 -0.1360 -0.3782  0.9230
 4009TIP3    H111980   1.139   7.247   3.357 -1.4559  0.6189  1.4089
 4009TIP3    H211981   1.260   7.300   3.430 -0.5719  0.2072  0.2638
 4010TIP3   OH211982   0.455   6.802   2.114  0.0307 -0.0874  0.4708
 4010TIP3    H111983   0.488   6.715   2.089 -1.3586 -0.2345 -1.0003
 4010TIP3    H211984   0.500   6.823   2.195 -0.1687 -2.5428  1.2613
 4011TIP3   OH211985   7.508   0.502   5.764 -0.1803 -0.2068 -0.4980
 4011TIP3    H111986   7.465   0.441   5.824 -0.1534  0.5151  0.2583
 4011TIP3    H211987   7.502   0.459   5.678 -3.2910  0.3027 -0.6052
 4012TIP3   OH211988   0.443   6.282   1.079  0.1448 -0.1391  0.0832
 4012TIP3    H111989   0.387   6.204   1.078  0.2691 -0.2260 -0.5921
 4012TIP3    H211990   0.407   6.336   1.149 -1.7789  0.5222 -1.3480
 4013TIP3   OH211991   2.070   3.314   2.040  0.6563 -0.2579 -0.3381
 4013TIP3    H111992   2.147   3.290   2.090 -0.6001 -2.4947  0.6108
 4013TIP3    H211993   2.091   3.289   1.950  1.6117  0.5759 -0.3484
 4014TIP3   OH211994   6.791   6.677   3.497  0.0082 -0.3000  0.0206
 4014TIP3    H111995   6.712   6.628   3.517 -1.4327  0.9319 -2.3259
 4014TIP3    H211996   6.776   6.764   3.533  0.6429 -0.2945  0.2845
 4015TIP3   OH211997   0.467   5.585   1.200 -0.1511  0.2985  0.7187
 4015TIP3    H111998   0.387   5.534   1.209  0.2038 -0.5889 -0.9979
 4015TIP3    H211999   0.509   5.578   1.286 -0.5429 -1.5670  0.7865
 4016TIP3   OH212000   7.162   6.337   0.607  1.1015  0.0012 -0.3189
 4016TIP3    H112001   7.188   6.383   0.686  0.6441 -0.9802  0.4127
 4016TIP3    H212002   7.119   6.403   0.553  1.1649  0.6042  0.3742
 4017TIP3   OH212003   3.816   0.030   1.803 -0.2653  0.2555  0.3635
 4017TIP3    H112004   3.887   0.095   1.795  0.0672  0.0975  1.8291
 4017TIP3    H212005   3.737   0.082   1.815 -0.0733  0.4122  0.9920
 4018TIP3   OH212006   6.400   7.206   1.628  0.3468  0.6932 -0.2775
 4018TIP3    H112007   6.341   7.138   1.595 -1.5301  2.0100  0.3078
 4018TIP3    H212008   6.391   7.278   1.566  2.2512  0.4819 -0.8367
 4019TIP3   OH212009   1.576   3.774   4.073  0.2651  0.1408 -0.0454
 4019TIP3    H112010   1.592   3.799   3.982 -0.3318  2.2576  0.4059
 4019TIP3    H212011   1.481   3.765   4.079  0.3404 -0.5007  0.2614
 4020TIP3   OH212012   7.864   7.390   2.777  0.2344  0.0454 -0.6761
 4020TIP3    H112013   7.832   7.300   2.775  0.4007 -0.0289 -0.1601
 4020TIP3    H212014   7.857   7.420   2.687 -0.8816 -0.1140 -0.6557
 4021TIP3   OH212015   1.601   6.720   2.161  0.1622  0.4874 -0.2512
 4021TIP3    H112016   1.574   6.672   2.239  0.2314  0.2653 -0.3644
 4021TIP3    H212017   1.599   6.812   2.188  2.6111  0.2787  0.7723
 4022TIP3   OH212018   7.655   5.780   2.163 -0.2173 -0.1703 -0.0293
 4022TIP3    H112019   7.698   5.698   2.142  2.1562  1.0450 -0.1049
 4022TIP3    H212020   7.665   5.789   2.258 -0.0203  0.2466 -0.0847
 4023TIP3   OH212021   1.030   6.058   3.566 -0.4651  0.1472  0.3186
 4023TIP3    H112022   0.947   6.047   3.521 -0.9665  1.0994  1.0011
 4023TIP3    H212023   1.020   6.011   3.648 -0.1661 -0.1196  0.2042
 4024TIP3   OH212024   7.296   4.205   2.204  0.3293 -0.2531 -0.5062
 4024TIP3    H112025   7.313   4.185   2.296 -1.8987 -0.4754 -0.1226
 4024TIP3    H212026   7.373   4.254   2.176  0.4939  0.8781  1.8159
 4025TIP3   OH212027   4.621   0.326   3.786  0.6089  0.0720  0.2563
 4025TIP3    H112028   4.556   0.376   3.735 -0.9379 -0.8384  1.2769
 4025TIP3    H212029   4.594   0.235   3.774  2.5262 -0.4282 -0.3811
 4026TIP3   OH212030   7.810   4.357   2.646 -0.6296 -0.2985  0.1513
 4026TIP3    H112031   7.842   4.434   2.599 -1.0776  0.9025  1.7717
 4026TIP3    H212032   7.740   4.390   2.702 -1.7840 -2.1317 -0.1457
 4027TIP3   OH212033   0.129   4.695   2.097 -0.8511  0.5809  0.1798
 4027TIP3    H112034   0.203   4.731   2.146 -1.0681  0.7604  0.3751
 4027TIP3    H212035   0.167   4.624   2.045 -0.2190  1.7632 -1.0046
 4028TIP3   OH212036   5.264   0.067   3.675  0.0753 -0.3286  0.0711
 4028TIP3    H112037   5.233   0.050   3.586 -0.5356 -1.1573  0.4388
 4028TIP3    H212038   5.293  -0.018   3.707 -1.0460 -0.3137  1.1755
 4029TIP3   OH212039   7.368   5.829   3.057  0.1029 -0.1630 -0.1458
 4029TIP3    H112040   7.292   5.884   3.037  0.0028  0.4406  1.7201
 4029TIP3    H212041   7.331   5.752   3.100  0.3614 -1.0026 -1.4328
 4030TIP3   OH212042   0.656   5.226   1.441 -0.4279 -0.2990 -0.5424
 4030TIP3    H112043   0.724   5.278   1.398 -0.5577 -0.7531 -1.3076
 4030TIP3    H212044   0.701   5.147   1.471 -0.4260 -0.1741 -0.2084
 4031TIP3   OH212045   6.564   5.549   1.076  0.3726 -0.0867 -0.1057
 4031TIP3    H112046   6.657   5.532   1.094  0.2490 -0.3460  0.3130
 4031TIP3    H212047   6.520   5.523   1.157 -0.1870 -1.1125 -0.7222
 4032TIP3   OH212048   5.886   3.104   1.329 -0.7024  0.6651 -0.1894
 4032TIP3    H112049   5.801   3.086   1.370 -0.6233  1.7672  0.4842
 4032TIP3    H212050   5.867   3.168   1.260 -0.7063 -0.5472 -1.3244
 4033TIP3   OH212051   7.033   6.677   1.794  0.0217  0.2404  0.7879
 4033TIP3    H112052   7.033   6.703   1.702 -0.4990 -0.7068  0.5062
 4033TIP3    H212053   7.054   6.757   1.842  0.4487  0.7053 -0.1639
 4034TIP3   OH212054   1.010   6.988   3.786  0.1278 -0.1451  0.2494
 4034TIP3    H112055   0.997   7.019   3.696 -1.1849 -1.8239 -0.1649
 4034TIP3    H212056   0.949   7.040   3.839 -0.7074 -0.6967 -0.1649
 4035TIP3   OH212057   1.607   6.086   4.135 -0.0773 -0.0628 -0.0269
 4035TIP3    H112058   1.542   6.101   4.066  0.4532 -1.7009 -0.9275
 4035TIP3    H212059   1.642   6.173   4.155 -0.9963  0.5662 -1.0740
 4036TIP3   OH212060   2.255   6.745   3.607  0.3998 -0.0112 -0.3880
 4036TIP3    H112061   2.300   6.786   3.681  0.6503  0.2745 -0.6996
 4036TIP3    H212062   2.258   6.810   3.537 -0.6529  0.0831 -0.3595
 4037TIP3   OH212063   1.269   6.527   1.433 -0.0343  0.0691  0.1919
 4037TIP3    H112064   1.337   6.535   1.500  0.1037  0.9520 -0.0394
 4037TIP3    H212065   1.189   6.508   1.482  0.3593 -0.8780  0.4698
 4038TIP3   OH212066   2.133   6.615   4.397 -0.3576  0.2605  0.0521
 4038TIP3    H112067   2.222   6.594   4.425  0.9537  2.3693 -2.3170
 4038TIP3    H212068   2.123   6.571   4.313 -2.0590 -1.0195  0.8889
 4039TIP3   OH212069   3.981   0.053   2.698 -0.2408  0.3707 -0.3963
 4039TIP3    H112070   4.069   0.088   2.710  0.2431 -0.8471 -0.2963
 4039TIP3    H212071   3.928   0.129   2.674  0.8439  1.1035 -0.5205
 4040TIP3   OH212072   7.427   6.643   1.545 -0.3690 -0.5816 -0.0215
 4040TIP3    H112073   7.448   6.702   1.616 -1.3824 -0.8130  0.4812
 4040TIP3    H212074   7.426   6.556   1.585 -0.5340 -0.7570 -0.4017
 4041TIP3   OH212075   0.323   3.950   1.034 -0.2620 -0.5178  0.2565
 4041TIP3    H112076   0.291   3.864   1.005 -0.5160 -0.2180 -0.3529
 4041TIP3    H212077   0.383   3.978   0.964 -1.1892  0.3894 -0.1846
 4042TIP3   OH212078   4.803   1.382   6.010 -0.1061  0.0556 -0.2835
 4042TIP3    H112079   4.800   1.446   5.939  0.3404  1.8803  1.2787
 4042TIP3    H212080   4.712   1.356   6.022 -0.3127  0.4767 -0.8857
 4043TIP3   OH212081   0.716   3.957   2.738 -0.1844 -0.5411  0.3805
 4043TIP3    H112082   0.763   3.883   2.778  1.5635  0.4477  0.2134
 4043TIP3    H212083   0.709   4.021   2.808 -1.3210 -0.6747  0.4015
 4044TIP3   OH212084   2.358   6.562   1.990 -0.8158  0.1962 -0.3385
 4044TIP3    H112085   2.391   6.514   2.066 -0.8568  0.5925 -0.0697
 4044TIP3    H212086   2.284   6.510   1.959  0.0563 -0.7075 -0.9503
 4045TIP3   OH212087   1.967   4.411   2.737 -0.0166 -0.4567  0.1555
 4045TIP3    H112088   2.056   4.444   2.731  0.1239 -0.7809  0.4409
 4045TIP3    H212089   1.975   4.327   2.783 -0.3068 -1.1704 -1.0731
 4046TIP3   OH212090   0.375   3.827   1.970  0.0833 -0.6112 -0.3324
 4046TIP3    H112091   0.380   3.884   1.893 -1.2180 -0.7698 -0.5474
 4046TIP3    H212092   0.462   3.789   1.978  0.3850 -0.1473 -1.3837
 4047TIP3   OH212093   1.040   5.104   2.008  0.1539  0.4195  0.3044
 4047TIP3    H112094   1.037   5.061   2.093  0.5681  0.1860  0.2029
 4047TIP3    H212095   1.060   5.196   2.028 -1.1071  0.6512  0.5426
 4048TIP3   OH212096   1.456   6.019   3.666 -0.0045  0.4222 -0.2750
 4048TIP3    H112097   1.375   6.039   3.619  0.2143  1.8281 -0.0714
 4048TIP3    H212098   1.525   6.061   3.614  0.2189  2.2061  1.4017
 4049TIP3   OH212099   0.242   3.775   3.336  0.1156  0.0284  0.2157
 4049TIP3    H112100   0.238   3.800   3.428  0.3053 -2.4511  0.9126
 4049TIP3    H212101   0.334   3.785   3.313 -0.0004  1.0492  0.1630
 4050TIP3   OH212102   0.500   6.226   3.814  0.2557 -0.0936  0.5321
 4050TIP3    H112103   0.428   6.256   3.758  0.0544  1.2806  1.5126
 4050TIP3    H212104   0.458   6.197   3.895  0.7718  0.2350  0.9187
 4051TIP3   OH212105   2.875   6.553   3.065 -0.0984  0.0986 -0.7935
 4051TIP3    H112106   2.970   6.563   3.073  0.0201 -1.5037 -0.0003
 4051TIP3    H212107   2.840   6.586   3.148 -0.2541  0.9175 -1.1840
 4052TIP3   OH212108   7.606   6.555   2.432 -0.5278  0.2346 -0.0172
 4052TIP3    H112109   7.596   6.553   2.527 -0.7026 -0.1252 -0.0421
 4052TIP3    H212110   7.689   6.599   2.417 -0.5067  0.2986  0.3038
 4053TIP3   OH212111   4.385   0.043   3.405  0.3707  0.6613 -0.0351
 4053TIP3    H112112   4.290   0.029   3.400  0.6625 -1.3769 -0.1460
 4053TIP3    H212113   4.404   0.041   3.499  0.6076 -1.2132 -0.1026
 4054TIP3   OH212114   1.747   5.167   1.280  0.5596 -0.4553  0.5299
 4054TIP3    H112115   1.719   5.084   1.241  0.4266 -0.5307  0.7814
 4054TIP3    H212116   1.738   5.153   1.374 -0.2094  0.1009  0.5493
 4055TIP3   OH212117   3.202   4.645   2.654  0.6398  0.4458  0.3807
 4055TIP3    H112118   3.232   4.688   2.574 -0.7218  1.8964  0.6087
 4055TIP3    H212119   3.177   4.557   2.627  2.1048  0.2634 -0.3895
 4056TIP3   OH212120   0.386   5.302   2.360  0.5061  0.0073 -0.2595
 4056TIP3    H112121   0.455   5.264   2.415 -0.0987  0.3223  0.7216
 4056TIP3    H212122   0.317   5.235   2.359 -0.5723  1.0638  1.4881
 4057TIP3   OH212123   3.921   1.072   4.006  0.1945 -0.1085  0.3567
 4057TIP3    H112124   3.835   1.114   4.011  0.1675  0.1435 -1.7436
 4057TIP3    H212125   3.902   0.979   4.013 -0.0271  0.0578  2.1148
 4058TIP3   OH212126   0.370   4.193   2.513  0.5411  0.1694  0.3371
 4058TIP3    H112127   0.293   4.150   2.477  0.2717  0.1084  0.9857
 4058TIP3    H212128   0.343   4.224   2.600  1.2856  0.0027  0.6378
 4059TIP3   OH212129   1.695   6.835   3.566  0.3206  0.4155  0.5774
 4059TIP3    H112130   1.605   6.858   3.586  0.5046  2.1654 -0.5093
 4059TIP3    H212131   1.726   6.904   3.508  1.1783 -2.1458 -2.1742
 4060TIP3   OH212132   2.596   3.840   2.806 -0.5372  0.2397  0.5573
 4060TIP3    H112133   2.527   3.821   2.870  0.3054 -1.3801  1.0006
 4060TIP3    H212134   2.670   3.871   2.858 -0.1253 -0.3058  0.3038
 4061TIP3   OH212135   7.814   4.439   3.555  0.1783  0.2645 -0.2276
 4061TIP3    H112136   7.871   4.367   3.527  1.8111  0.2181  2.8826
 4061TIP3    H212137   7.855   4.517   3.520 -0.9370 -0.2061 -2.6264
 4062TIP3   OH212138   1.481   5.910   2.783  0.3302 -0.4440 -0.3893
 4062TIP3    H112139   1.483   5.815   2.770 -2.2049 -0.5798  0.0173
 4062TIP3    H212140   1.468   5.947   2.696  0.1642 -0.5274 -0.3992
 4063TIP3   OH212141   0.591   6.294   2.132 -0.2082  0.1371  0.6950
 4063TIP3    H112142   0.529   6.228   2.098 -0.6539  0.6080  0.5902
 4063TIP3    H212143   0.676   6.266   2.097 -0.3556 -0.5200  0.8478
 4064TIP3   OH212144   0.249   6.128   3.700 -0.4246  0.0953 -0.1436
 4064TIP3    H112145   0.185   6.065   3.667  1.5179 -1.6969 -0.5226
 4064TIP3    H212146   0.267   6.100   3.790  1.0307 -0.3769 -0.5698
 4065TIP3   OH212147   2.211   4.197   3.571 -0.6953 -0.5445  0.3990
 4065TIP3    H112148   2.145   4.200   3.641  0.6822 -1.3076  1.7399
 4065TIP3    H212149   2.243   4.287   3.564 -0.2883 -0.6231  1.2735
 4066TIP3   OH212150   0.533   5.570   2.477  0.1520  0.2703  0.4710
 4066TIP3    H112151   0.535   5.563   2.382 -0.0571  0.4041  0.4586
 4066TIP3    H212152   0.596   5.640   2.497  0.1744  0.2616  0.4312
 4067TIP3   OH212153   4.370   6.559   4.746 -0.3304  0.4811 -0.0527
 4067TIP3    H112154   4.300   6.525   4.801 -0.2036  0.0246 -0.1723
 4067TIP3    H212155   4.449   6.517   4.779 -0.1460  0.8274 -0.0588
 4068TIP3   OH212156   2.101   5.620   4.461  0.0705 -0.1105  0.0807
 4068TIP3    H112157   2.130   5.644   4.373 -0.0706 -0.7663 -0.1486
 4068TIP3    H212158   2.005   5.614   4.454  0.0937 -0.6615  0.1443
 4069TIP3   OH212159   3.563   5.961   3.403  0.1735  0.2035 -0.0523
 4069TIP3    H112160   3.610   6.044   3.413 -0.6457  0.4942  1.4151
 4069TIP3    H212161   3.475   5.986   3.375  0.5263 -0.2909 -1.6632
 4070TIP3   OH212162   2.519   4.841   0.400 -0.0688 -0.6656 -0.1181
 4070TIP3    H112163   2.435   4.839   0.355  0.0702 -3.5314 -0.3565
 4070TIP3    H212164   2.507   4.784   0.476  1.2618 -0.0137  0.6070
 4071TIP3   OH212165   7.208   3.946   2.524 -0.2122 -0.2940  0.4506
 4071TIP3    H112166   7.128   3.987   2.491  0.3495 -2.1278 -3.6042
 4071TIP3    H212167   7.186   3.853   2.531  0.7913 -0.4378  1.9538
 4072TIP3   OH212168   1.777   6.443   2.325  0.9726  0.1473 -0.1335
 4072TIP3    H112169   1.819   6.397   2.397 -0.5602  0.2908  0.8600
 4072TIP3    H212170   1.798   6.535   2.340  0.0734  0.2483  0.5239
 4073TIP3   OH212171   3.960   6.973   3.205 -0.5483 -0.0902 -0.7208
 4073TIP3    H112172   3.962   6.887   3.246  2.6774  0.3788  0.2505
 4073TIP3    H212173   3.951   6.955   3.112 -0.4043 -1.4848 -0.4783
 4074TIP3   OH212174   3.986   0.472   1.735 -0.5456  0.2426 -0.5735
 4074TIP3    H112175   4.045   0.543   1.710  1.2309 -0.7380  0.7756
 4074TIP3    H212176   4.034   0.392   1.712 -1.1663 -0.5743  0.9320
 4075TIP3   OH212177   3.019   5.237   1.877  0.3574  0.2926 -0.1309
 4075TIP3    H112178   3.044   5.279   1.795 -0.7893  2.7352  0.7151
 4075TIP3    H212179   2.924   5.243   1.880  0.2400 -1.5399  0.4793
 4076TIP3   OH212180   2.563   5.480   3.253  0.3424 -0.1770  0.2664
 4076TIP3    H112181   2.494   5.440   3.307  0.3650 -0.5409  0.0304
 4076TIP3    H212182   2.547   5.446   3.165 -0.5194  1.5005 -0.2358
 4077TIP3   OH212183   7.064   6.731   2.351 -0.6522  0.1219  0.4983
 4077TIP3    H112184   7.033   6.755   2.438  1.9984  0.0713  1.4976
 4077TIP3    H212185   7.133   6.793   2.332 -0.9393 -0.1224 -1.4284
 4078TIP3   OH212186   1.997   6.717   3.445 -0.0151 -0.3116 -0.4002
 4078TIP3    H112187   2.055   6.720   3.521  1.2303 -0.5517 -1.3260
 4078TIP3    H212188   1.909   6.734   3.481  0.5789 -0.2423  1.0518
 4079TIP3   OH212189   2.069   5.304   1.379  0.6067 -0.0964  0.2659
 4079TIP3    H112190   2.133   5.323   1.447  1.6785  0.9986 -1.0286
 4079TIP3    H212191   2.088   5.214   1.352  0.3293 -0.4472  1.2438
 4080TIP3   OH212192   6.914   5.238   0.825  0.2318  0.7043 -0.0984
 4080TIP3    H112193   6.860   5.258   0.748 -0.0686 -1.2204 -0.4205
 4080TIP3    H212194   6.854   5.246   0.899 -0.2783 -0.5637 -0.3718
 4081TIP3   OH212195   2.190   5.817   2.343  0.6916  0.0465 -0.6168
 4081TIP3    H112196   2.156   5.843   2.258 -0.0765 -2.0136 -0.9726
 4081TIP3    H212197   2.282   5.795   2.326  1.0372  1.3828 -0.5327
 4082TIP3   OH212198   1.419   7.262   3.206  0.4777  0.3895  0.1155
 4082TIP3    H112199   1.428   7.178   3.250 -1.1515  1.1802  2.0355
 4082TIP3    H212200   1.466   7.324   3.262 -1.9538  1.4823  1.0251
 4083TIP3   OH212201   1.691   6.927   2.384 -0.1579  0.0821 -0.7524
 4083TIP3    H112202   1.656   6.926   2.473 -1.5373 -0.0308 -1.2822
 4083TIP3    H212203   1.757   6.997   2.385 -0.5620  0.4614  0.2125
 4084TIP3   OH212204   3.812   7.232   4.621  0.2189 -0.7126  0.0618
 4084TIP3    H112205   3.867   7.231   4.542 -0.5198 -1.3580 -0.4510
 4084TIP3    H212206   3.746   7.165   4.604 -2.4974  2.0458 -0.5483
 4085TIP3   OH212207   0.548   5.502   4.385 -0.3223  0.4359 -0.4559
 4085TIP3    H112208   0.529   5.587   4.345 -0.7036  0.3954 -0.3627
 4085TIP3    H212209   0.633   5.477   4.349 -0.5403  0.5186 -1.0361
 4086TIP3   OH212210   2.565   5.996   1.023 -0.1979  0.3984  0.6779
 4086TIP3    H112211   2.628   5.948   1.076 -0.4838 -0.6937  0.0412
 4086TIP3    H212212   2.481   5.955   1.043 -0.3511  0.2049 -0.3784
 4087TIP3   OH212213   3.319   0.877   2.041 -0.6213  0.6773 -0.1438
 4087TIP3    H112214   3.343   0.891   1.949  0.3538  1.2412  0.1787
 4087TIP3    H212215   3.387   0.818   2.074 -1.1470  0.2317  0.1349
 4088TIP3   OH212216   1.857   6.072   5.414  0.1578  0.0025  0.1370
 4088TIP3    H112217   1.818   6.131   5.478  0.6557 -0.0004  0.4473
 4088TIP3    H212218   1.848   6.118   5.330 -0.5709 -0.0327  0.1966
 4089TIP3   OH212219   3.541   5.309   1.688  0.9815 -0.4685 -0.3353
 4089TIP3    H112220   3.566   5.351   1.770  1.7695 -0.4768 -0.5651
 4089TIP3    H212221   3.525   5.218   1.711 -0.8357 -0.0322  0.1853
 4090TIP3   OH212222   3.492   6.149   4.171  0.3909 -0.1238  0.2308
 4090TIP3    H112223   3.540   6.194   4.242 -1.5393  2.7308 -0.1782
 4090TIP3    H212224   3.536   6.179   4.091 -0.7087  0.8341 -0.0285
 4091TIP3   OH212225   1.014   4.479   2.838  0.3685 -0.4639 -0.1715
 4091TIP3    H112226   0.962   4.412   2.793 -0.8315  0.1273  0.3107
 4091TIP3    H212227   0.965   4.498   2.918  1.8091 -0.5431  0.7421
 4092TIP3   OH212228   1.643   5.223   3.280  0.3926 -0.0634 -0.1162
 4092TIP3    H112229   1.631   5.279   3.357 -0.8402 -0.1525 -0.2288
 4092TIP3    H212230   1.618   5.279   3.206 -1.0026 -0.8028 -0.2155
 4093TIP3   OH212231   7.509   4.502   3.737 -0.2168 -0.2061 -0.4927
 4093TIP3    H112232   7.585   4.474   3.687 -0.6076 -3.2511  0.5001
 4093TIP3    H212233   7.537   4.495   3.829 -0.4831  2.3632 -0.1740
 4094TIP3   OH212234   2.501   5.162   2.650  0.5406  0.3588 -0.3232
 4094TIP3    H112235   2.513   5.067   2.663 -0.1644  0.4389  1.0287
 4094TIP3    H212236   2.547   5.181   2.568  0.7010 -1.1520 -0.6003
 4095TIP3   OH212237   0.590   5.182   0.740 -0.3629 -0.4671  0.2994
 4095TIP3    H112238   0.625   5.098   0.711 -1.1396 -0.2376 -1.3319
 4095TIP3    H212239   0.613   5.244   0.670  2.7826  1.3503  2.7791
 4096TIP3   OH212240   3.708   3.199   2.462 -0.1806  0.0537  0.0346
 4096TIP3    H112241   3.658   3.130   2.506 -0.0753 -0.2288 -0.2845
 4096TIP3    H212242   3.780   3.219   2.521 -0.3172  0.0222  0.2110
 4097TIP3   OH212243   0.002   3.009   3.708 -0.3285  0.0536  0.4068
 4097TIP3    H112244  -0.047   2.955   3.770  0.4808 -0.8465  0.2831
 4097TIP3    H212245   0.058   3.063   3.764  0.6094 -0.9603  0.4832
 4098TIP3   OH212246   0.853   5.829   3.232  0.1475 -0.3082 -0.1431
 4098TIP3    H112247   0.864   5.906   3.288 -2.4047 -0.2349  0.3349
 4098TIP3    H212248   0.940   5.812   3.197  1.1011  1.7420  1.1280
 4099TIP3   OH212249   5.125   3.400   1.468  0.3607 -0.8300  0.1000
 4099TIP3    H112250   5.053   3.368   1.413  0.0599  0.2412 -0.1327
 4099TIP3    H212251   5.203   3.392   1.413 -0.0455  0.9367 -0.7794
 4100TIP3   OH212252   2.937   5.814   2.812 -0.0200 -0.1789  0.0795
 4100TIP3    H112253   3.018   5.864   2.816 -1.2175  1.7401  1.3740
 4100TIP3    H212254   2.957   5.740   2.755  2.7784 -0.0461  0.8224
 4101TIP3   OH212255   1.145   2.387   1.512 -0.3802 -0.0691  0.0877
 4101TIP3    H112256   1.060   2.409   1.551 -1.1812 -0.1303 -1.5753
 4101TIP3    H212257   1.129   2.306   1.464  0.3436  0.4802 -1.1101
 4102TIP3   OH212258   6.664   7.059   3.313  0.1140  0.8826 -0.2116
 4102TIP3    H112259   6.690   7.151   3.326  1.9683  0.6878 -2.1953
 4102TIP3    H212260   6.745   7.015   3.289 -1.5472 -0.3242 -3.9273
 4103TIP3   OH212261   2.449   5.260   0.539  0.3664  0.1372 -0.0881
 4103TIP3    H112262   2.535   5.298   0.520  0.2407  0.6400  0.3439
 4103TIP3    H212263   2.459   5.167   0.519  0.2929  0.6039 -2.4921
 4104TIP3   OH212264   1.108   5.826   3.120  0.2240 -0.0442 -0.0975
 4104TIP3    H112265   1.172   5.871   3.067 -0.6239  1.4577  0.1358
 4104TIP3    H212266   1.060   5.771   3.058  2.5523 -2.1945 -0.0804
 4105TIP3   OH212267   0.822   4.152   1.340  0.6298 -0.2729  0.0252
 4105TIP3    H112268   0.916   4.155   1.320  0.6084 -1.5708 -0.2495
 4105TIP3    H212269   0.783   4.107   1.266 -0.3775  1.2847 -0.4142
 4106TIP3   OH212270   0.866   5.668   1.429  0.2483  0.1290  0.3462
 4106TIP3    H112271   0.921   5.608   1.478  1.3699  0.6523 -0.2637
 4106TIP3    H212272   0.911   5.681   1.345  0.2564  2.1363  0.6257
 4107TIP3   OH212273   2.157   4.745   1.954 -0.7344 -0.1658  0.1312
 4107TIP3    H112274   2.128   4.767   1.866  0.1232  0.6717  0.0504
 4107TIP3    H212275   2.240   4.698   1.942  0.7324  2.2172  0.5781
 4108TIP3   OH212276   2.507   3.616   3.378 -0.2275 -0.0999 -0.0676
 4108TIP3    H112277   2.603   3.622   3.373 -0.0588 -1.7690  0.9028
 4108TIP3    H212278   2.483   3.559   3.305 -0.3353 -0.9255  0.6031
 4109TIP3   OH212279   0.697   4.638   1.266  0.0826 -0.2340  0.4090
 4109TIP3    H112280   0.686   4.583   1.343 -2.4340 -1.4657 -0.7893
 4109TIP3    H212281   0.748   4.585   1.205 -0.4827 -0.3929  0.0774
 4110TIP3   OH212282   0.208   5.441   2.936 -0.0000  0.4120  0.1418
 4110TIP3    H112283   0.201   5.457   3.030 -0.5548  1.3271 -0.0488
 4110TIP3    H212284   0.273   5.504   2.906 -1.3455  1.5758 -0.4174
 4111TIP3   OH212285   2.616   6.704   3.474 -0.6649  0.4698 -0.6081
 4111TIP3    H112286   2.522   6.722   3.482 -0.7082  0.1781 -0.4538
 4111TIP3    H212287   2.653   6.737   3.557 -0.6302  0.5819 -0.6677
 4112TIP3   OH212288   0.735   6.817   5.232  0.2408  0.7663  0.4332
 4112TIP3    H112289   0.709   6.814   5.140 -0.4106  0.3615  0.6327
 4112TIP3    H212290   0.809   6.878   5.233 -0.1743  1.2937 -0.2570
 4113TIP3   OH212291   2.436   0.055   3.536  0.3700  0.3952 -0.0055
 4113TIP3    H112292   2.369   0.071   3.469 -2.6214 -0.1783  2.7405
 4113TIP3    H212293   2.472  -0.031   3.513  0.2347  0.7305 -1.5450
 4114TIP3   OH212294   0.584   2.395   2.968 -0.1369 -0.3007 -0.0781
 4114TIP3    H112295   0.506   2.363   2.924 -2.0717  1.9523  1.6183
 4114TIP3    H212296   0.626   2.453   2.903 -0.1264 -1.1074 -0.7999
 4115TIP3   OH212297   2.127   5.904   1.130  0.1182  0.4136 -0.0047
 4115TIP3    H112298   2.037   5.877   1.147  0.3969 -0.7146 -0.2470
 4115TIP3    H212299   2.139   5.982   1.184 -0.7187  0.0332  0.7516
 4116TIP3   OH212300   1.626   5.507   5.115  0.2323  0.1941  0.0919
 4116TIP3    H112301   1.719   5.512   5.140  0.2977  0.1120 -0.1293
 4116TIP3    H212302   1.580   5.488   5.196  0.2885  1.4055  0.4070
 4117TIP3   OH212303   2.280   6.923   4.809  0.3036 -0.5035 -0.1431
 4117TIP3    H112304   2.333   6.968   4.875  0.8117 -1.1797 -0.0827
 4117TIP3    H212305   2.229   6.859   4.859 -1.5210  1.0009 -0.0433
 4118TIP3   OH212306   2.193   6.180   0.362  0.5796  0.0905 -0.4049
 4118TIP3    H112307   2.136   6.124   0.309  0.6658  0.4192 -0.8472
 4118TIP3    H212308   2.256   6.119   0.401  0.5090 -0.1577 -0.6723
 4119TIP3   OH212309   2.650   0.711   4.062  0.0214  0.5888  0.1608
 4119TIP3    H112310   2.595   0.786   4.041  2.3147  2.5742  1.1217
 4119TIP3    H212311   2.606   0.637   4.019 -0.6240  2.9315 -3.4254
 4120TIP3   OH212312   3.535   4.839   2.743  0.1212  0.2446 -0.1452
 4120TIP3    H112313   3.554   4.765   2.687 -1.7477 -0.5603  0.2426
 4120TIP3    H212314   3.521   4.913   2.683 -0.3381 -0.2573 -0.6580
 4121TIP3   OH212315   6.980   5.835   3.136  0.0519  0.2483  0.8751
 4121TIP3    H112316   6.934   5.756   3.109  0.5637  0.5308 -0.8550
 4121TIP3    H212317   7.034   5.808   3.210 -0.9608 -0.6597  1.2767
 4122TIP3   OH212318   1.647   5.444   2.032  0.3245 -0.3755  0.3329
 4122TIP3    H112319   1.673   5.503   2.102  0.7733 -1.2473  0.9121
 4122TIP3    H212320   1.669   5.357   2.064  0.5562 -0.7865 -0.9000
 4123TIP3   OH212321   4.245   4.218   2.546  0.5237  0.1566 -0.0838
 4123TIP3    H112322   4.159   4.208   2.507  0.6248 -1.5107  0.1122
 4123TIP3    H212323   4.285   4.290   2.497 -1.1939  1.3494  0.2290
 4124TIP3   OH212324   3.467   4.370   3.948 -0.3053  0.4456  0.0933
 4124TIP3    H112325   3.477   4.307   4.019  0.4338  1.1502  0.6265
 4124TIP3    H212326   3.440   4.317   3.873  0.1550 -0.4814  0.5662
 4125TIP3   OH212327   1.634   4.553   3.399 -0.1916  0.3466  0.0508
 4125TIP3    H112328   1.658   4.468   3.363  0.5471  1.0736 -1.1980
 4125TIP3    H212329   1.715   4.588   3.434  0.2533  2.0039 -2.5107
 4126TIP3   OH212330   1.474   5.887   3.324 -0.1155  0.7195  0.2073
 4126TIP3    H112331   1.539   5.869   3.392  0.6221 -0.6137 -0.8305
 4126TIP3    H212332   1.396   5.913   3.373  0.3937 -0.2253  1.5832
 4127TIP3   OH212333   4.625   1.343   3.828 -0.3236 -0.1129 -0.5402
 4127TIP3    H112334   4.635   1.249   3.813 -0.5017 -0.2970  0.4477
 4127TIP3    H212335   4.530   1.356   3.837 -0.1667 -0.1859  1.4226
 4128TIP3   OH212336   4.356   6.624   2.927  0.1344 -0.1915  0.3656
 4128TIP3    H112337   4.375   6.549   2.984  1.9271 -0.2028 -0.2203
 4128TIP3    H212338   4.393   6.600   2.842  1.9030  1.8661  0.5019
 4129TIP3   OH212339   3.792   7.024   2.154 -0.5898 -0.8212 -0.2673
 4129TIP3    H112340   3.751   6.976   2.226  0.5783 -1.8192 -0.2679
 4129TIP3    H212341   3.787   6.965   2.080  0.8774 -0.9517 -0.2610
 4130TIP3   OH212342   0.333   5.905   0.791  0.1893  0.3577  0.4850
 4130TIP3    H112343   0.274   5.973   0.759  0.2906  0.0466 -0.3517
 4130TIP3    H212344   0.277   5.828   0.802  0.4989 -0.0208 -0.5905
 4131TIP3   OH212345   1.149   5.053   2.281  0.4208  0.2149 -0.4673
 4131TIP3    H112346   1.141   5.102   2.363 -1.2257 -0.4661 -0.2053
 4131TIP3    H212347   1.242   5.054   2.261  0.5976  2.2036  0.3070
 4132TIP3   OH212348   0.414   6.895   4.170 -0.1651 -0.5282 -0.2252
 4132TIP3    H112349   0.440   6.803   4.172 -2.0618 -1.0590  0.8161
 4132TIP3    H212350   0.340   6.898   4.109  0.0122  0.3503 -0.4131
 4133TIP3   OH212351   2.108   4.918   2.649 -0.0651 -0.0755  0.0156
 4133TIP3    H112352   2.023   4.883   2.676  0.9993 -2.6276  0.2020
 4133TIP3    H212353   2.112   4.900   2.555  1.3119 -2.3002  0.4751
 4134TIP3   OH212354   1.310   4.966   0.336 -0.9082  0.0775 -0.8006
 4134TIP3    H112355   1.392   4.960   0.287 -0.5432 -3.4809  0.0844
 4134TIP3    H212356   1.256   4.894   0.301 -3.2433  1.6437 -0.5759
 4135TIP3   OH212357   1.807   5.249   3.604  0.0696 -1.5625 -0.5498
 4135TIP3    H112358   1.800   5.279   3.695  0.3665 -2.6717 -0.1452
 4135TIP3    H212359   1.752   5.309   3.554 -0.2464 -1.0581  0.3969
 4136TIP3   OH212360   1.175   6.537   2.322  0.3620  0.2620 -0.1754
 4136TIP3    H112361   1.232   6.524   2.246 -1.2667 -2.1610 -1.0542
 4136TIP3    H212362   1.093   6.571   2.285 -0.3414 -0.6634  0.4984
 4137TIP3   OH212363   1.217   5.984   5.464 -0.5293  0.0542  0.7928
 4137TIP3    H112364   1.179   5.954   5.382 -0.3217 -1.2786  1.1804
 4137TIP3    H212365   1.232   6.078   5.451  2.6155 -0.7499 -1.8946
 4138TIP3   OH212366   3.760   5.562   2.703  0.0011  0.0012  0.4493
 4138TIP3    H112367   3.800   5.531   2.784  2.7428 -0.0087 -0.8574
 4138TIP3    H212368   3.712   5.487   2.669  0.6510 -0.6527  0.9642
 4139TIP3   OH212369   1.222   3.400   2.197  0.0286 -0.4751 -0.6923
 4139TIP3    H112370   1.213   3.433   2.286  2.6497 -1.4372 -0.0286
 4139TIP3    H212371   1.224   3.479   2.142 -3.9895  0.0770 -0.2491
 4140TIP3   OH212372   5.292   1.174   4.266  0.1356  0.4268  1.0192
 4140TIP3    H112373   5.244   1.208   4.341  0.4596  0.0145  1.4175
 4140TIP3    H212374   5.267   1.231   4.193 -1.6523 -0.3299  1.0097
 4141TIP3   OH212375   3.539   0.323   3.690  0.2450 -0.3105 -0.8376
 4141TIP3    H112376   3.505   0.319   3.601  1.4332  0.5536 -1.3447
 4141TIP3    H212377   3.537   0.416   3.713 -2.3050 -0.7751  0.9518
 4142TIP3   OH212378   2.014   5.746   1.596  0.8400  0.4920 -0.3423
 4142TIP3    H112379   2.028   5.674   1.535  0.9004  0.3456 -0.1569
 4142TIP3    H212380   2.089   5.804   1.582  1.6130 -0.2485  0.5841
 4143TIP3   OH212381   1.915   5.213   2.440  0.2184  0.1475 -0.0846
 4143TIP3    H112382   1.909   5.209   2.535  1.1892  1.9220  0.0834
 4143TIP3    H212383   1.965   5.136   2.415 -0.4607 -0.5811  0.7911
 4144TIP3   OH212384   7.243   6.659   4.794  0.1777 -0.2788 -0.2393
 4144TIP3    H112385   7.169   6.641   4.852  0.5957  0.6685  0.6084
 4144TIP3    H212386   7.292   6.728   4.839  1.4148 -0.6926 -0.9319
 4145TIP3   OH212387   2.998   4.541   1.620  0.9677 -0.3623  0.1745
 4145TIP3    H112388   3.012   4.475   1.551  0.8311 -0.0678 -0.1351
 4145TIP3    H212389   3.078   4.593   1.619  0.6706  0.0885 -0.2500
 4146TIP3   OH212390   1.091   5.847   1.782  0.7755 -0.5039  0.1974
 4146TIP3    H112391   1.160   5.833   1.847  0.1274 -2.5873  0.4610
 4146TIP3    H212392   1.123   5.804   1.703  1.2793  1.4841 -0.7124
 4147TIP3   OH212393   2.120   4.758   0.558 -0.0495  0.7643  0.0771
 4147TIP3    H112394   2.122   4.834   0.500  0.9875  0.6295 -0.0617
 4147TIP3    H212395   2.101   4.684   0.500 -0.5736  0.8413  0.1435
 4148TIP3   OH212396   1.583   5.753   1.075  0.3829 -0.6584 -0.0669
 4148TIP3    H112397   1.611   5.787   1.160  1.3118  0.4129 -0.7886
 4148TIP3    H212398   1.541   5.669   1.096 -1.4813  0.6716  1.6555
 4149TIP3   OH212399   2.198   3.653   3.206 -0.0316 -0.1923 -0.2055
 4149TIP3    H112400   2.274   3.680   3.257 -0.0568 -0.8158  0.1647
 4149TIP3    H212401   2.137   3.617   3.270  0.3234 -1.8452 -0.7666
 4150TIP3   OH212402   3.162   4.708   1.395  0.3987 -0.0543  0.3663
 4150TIP3    H112403   3.104   4.710   1.319  0.5213  0.2457  0.2772
 4150TIP3    H212404   3.169   4.800   1.422 -0.6765 -0.3137  1.5381
 4151TIP3   OH212405   2.529   5.947   1.664 -0.4439 -0.0743  0.2533
 4151TIP3    H112406   2.602   5.946   1.726 -0.3209  1.8962  0.1550
 4151TIP3    H212407   2.548   5.876   1.603  2.3531  1.5859 -0.8653
 4152TIP3   OH212408   2.146   4.359   2.297 -0.0514 -0.3684  0.2311
 4152TIP3    H112409   2.115   4.273   2.269 -1.8736  0.7219 -1.2047
 4152TIP3    H212410   2.085   4.386   2.365 -0.0150  0.1622  0.0545
 4153TIP3   OH212411   5.173   4.989   3.812  0.6365  0.0029 -0.1356
 4153TIP3    H112412   5.093   4.953   3.851 -0.2404  1.0640 -0.9414
 4153TIP3    H212413   5.220   4.913   3.778 -0.3566 -0.5584 -0.2572
 4154TIP3   OH212414   0.454   4.731   3.352  0.0781 -0.3046 -0.0381
 4154TIP3    H112415   0.529   4.713   3.296  1.0189 -0.7068  1.3389
 4154TIP3    H212416   0.491   4.754   3.437 -1.3678 -1.8313  1.0411
 4155TIP3   OH212417   7.165   7.134   0.523  0.4452  0.0883  0.3374
 4155TIP3    H112418   7.098   7.175   0.578 -0.9590 -2.4074  0.5544
 4155TIP3    H212419   7.240   7.193   0.529 -1.7831  3.1265 -0.1433
 4156TIP3   OH212420   2.036   5.449   1.922 -0.2406 -0.0503  0.0400
 4156TIP3    H112421   1.982   5.474   1.847 -2.0426  0.4028  1.4641
 4156TIP3    H212422   2.021   5.518   1.987 -0.1655 -1.3995  1.5290
 4157TIP3   OH212423   2.021   4.143   4.789  0.1298  0.0501  0.0562
 4157TIP3    H112424   2.087   4.142   4.859  0.5653  0.0523 -0.3532
 4157TIP3    H212425   2.067   4.106   4.713 -0.9513 -1.9095  0.3340
 4158TIP3   OH212426   7.894   5.585   3.764 -0.0370 -0.1831 -0.3184
 4158TIP3    H112427   7.809   5.595   3.806  0.1982 -2.4876  0.7625
 4158TIP3    H212428   7.957   5.580   3.836  0.8159 -0.2607 -1.0577
 4159TIP3   OH212429   0.590   6.167   1.434  0.0407  0.2687 -0.3719
 4159TIP3    H112430   0.496   6.178   1.449 -0.0750  0.0820 -0.9298
 4159TIP3    H212431   0.600   6.073   1.419  0.3170  0.2890 -0.3120
 4160TIP3   OH212432   4.567   0.686   3.819 -0.1945 -0.1396 -0.0467
 4160TIP3    H112433   4.634   0.686   3.750 -0.0442 -0.7204  0.1035
 4160TIP3    H212434   4.601   0.746   3.885  0.1248 -0.3520 -0.0188
 4161TIP3   OH212435   2.685   4.495   4.314  0.0347  0.6922  0.2408
 4161TIP3    H112436   2.757   4.551   4.287  0.6396 -0.7217 -1.1824
 4161TIP3    H212437   2.606   4.536   4.277  0.1883  1.8466  1.1859
 4162TIP3   OH212438   2.772   7.241   0.602 -0.3599 -0.2917 -0.3651
 4162TIP3    H112439   2.728   7.171   0.651 -1.1823  0.8210  0.5161
 4162TIP3    H212440   2.822   7.288   0.669 -0.1160  0.1894 -0.8895
 4163TIP3   OH212441   1.309   6.502   5.551 -0.0802 -0.3919  0.4609
 4163TIP3    H112442   1.355   6.574   5.593 -0.5775  0.1996  0.0015
 4163TIP3    H212443   1.306   6.526   5.458 -2.8789  0.4494  0.7402
 4164TIP3   OH212444   2.578   5.747   1.458  0.6180  0.4533 -0.5072
 4164TIP3    H112445   2.520   5.671   1.466 -0.6925  1.6082  1.4865
 4164TIP3    H212446   2.666   5.709   1.453  0.0281 -1.1994  1.0565
 4165TIP3   OH212447   0.651   6.223   3.549  0.6967 -0.0489  0.2957
 4165TIP3    H112448   0.644   6.234   3.644  0.0092 -0.1149  0.2558
 4165TIP3    H212449   0.650   6.313   3.516  1.5763  0.0019  0.3873
 4166TIP3   OH212450   1.402   4.702   1.337 -0.9139 -0.3209 -0.7212
 4166TIP3    H112451   1.414   4.630   1.275 -1.5032  0.3801 -1.6809
 4166TIP3    H212452   1.486   4.748   1.338 -0.7890 -0.5537 -0.7289
 4167TIP3   OH212453   0.346   4.342   3.735  1.4300  0.0279 -0.1040
 4167TIP3    H112454   0.410   4.272   3.724 -0.4736 -1.7915  0.2425
 4167TIP3    H212455   0.275   4.319   3.676 -1.0736 -0.5598  3.0484
 4168TIP3   OH212456   1.877   4.628   1.448 -0.2630  0.4223  0.0827
 4168TIP3    H112457   1.819   4.699   1.421  1.2923  1.5695 -0.3216
 4168TIP3    H212458   1.879   4.633   1.544  0.6079  1.5720  0.0139
 4169TIP3   OH212459   1.360   5.498   3.358  0.2505 -0.0659  0.2060
 4169TIP3    H112460   1.285   5.554   3.375 -0.8700 -1.2280 -0.8059
 4169TIP3    H212461   1.396   5.531   3.275  0.7509  0.3730  0.5950
 4170TIP3   OH212462   7.894   5.543   1.055  0.8425  0.0500 -0.1958
 4170TIP3    H112463   7.890   5.596   1.134 -0.7295  1.7378 -1.3852
 4170TIP3    H212464   7.896   5.606   0.983  1.9765 -1.4636 -1.5382
 4171TIP3   OH212465   1.440   6.875   3.555  0.1549  0.1253 -0.1082
 4171TIP3    H112466   1.405   6.786   3.566  1.4587 -0.4174 -0.2265
 4171TIP3    H212467   1.401   6.925   3.626  1.3335 -1.1437  1.4729
 4172TIP3   OH212468   2.190   6.372   1.859  0.2282  0.7514 -0.0996
 4172TIP3    H112469   2.165   6.284   1.831  1.3654  0.1646  0.6739
 4172TIP3    H212470   2.181   6.426   1.780  0.6009 -0.2913 -0.8605
 4173TIP3   OH212471   0.369   3.523   3.511 -0.8781  0.1560  0.0529
 4173TIP3    H112472   0.379   3.600   3.567 -1.6904 -0.0750  0.5322
 4173TIP3    H212473   0.419   3.455   3.557 -0.2145  0.3785 -0.3369
 4174TIP3   OH212474   1.174   3.890   3.011  0.0732  0.2950 -0.3291
 4174TIP3    H112475   1.234   3.823   2.978  0.3057  1.1028 -1.6254
 4174TIP3    H212476   1.231   3.951   3.058 -0.0839 -0.2037  0.5180
 4175TIP3   OH212477   3.700   0.032   3.574  0.7418  0.5700  0.1174
 4175TIP3    H112478   3.715  -0.042   3.515  2.1301  1.3399 -0.5081
 4175TIP3    H212479   3.727   0.109   3.524 -0.4660  1.4889  0.8484
 4176TIP3   OH212480   4.207   0.362   3.001  0.1960  0.2193 -0.2913
 4176TIP3    H112481   4.194   0.399   2.913 -1.4480 -0.2806 -0.2743
 4176TIP3    H212482   4.136   0.298   3.011  1.3879 -0.9782  0.7404
 4177TIP3   OH212483   2.341   6.968   4.520 -0.3821 -0.6611 -0.0626
 4177TIP3    H112484   2.251   6.959   4.489 -0.1956 -0.9810 -0.5094
 4177TIP3    H212485   2.335   6.958   4.615 -0.6754 -1.7266 -0.1924
 4178TIP3   OH212486   2.794   6.606   2.280 -0.3100 -0.1909  0.6209
 4178TIP3    H112487   2.719   6.630   2.333 -1.4504  1.0659 -1.4800
 4178TIP3    H212488   2.859   6.575   2.343 -1.7841  0.7508  2.6748
 4179TIP3   OH212489   3.137   5.918   3.144  0.1538 -0.4414  0.1620
 4179TIP3    H112490   3.144   5.842   3.201 -1.8630 -0.9824 -0.2788
 4179TIP3    H212491   3.073   5.975   3.186 -0.8827 -0.5597 -1.1975
 4180TIP3   OH212492   1.005   4.047   5.479 -0.2203  0.3510  0.0331
 4180TIP3    H112493   0.922   4.000   5.484 -0.4972  0.7749 -0.5020
 4180TIP3    H212494   1.070   3.984   5.509 -0.6963 -0.0902  0.1447
 4181TIP3   OH212495   2.281   7.161   5.193 -0.3088 -0.0374  0.4153
 4181TIP3    H112496   2.267   7.076   5.152  0.1577 -0.4793  1.1670
 4181TIP3    H212497   2.357   7.198   5.148  0.3284 -0.6102  1.0042
 4182TIP3   OH212498   1.322   7.078   4.361 -0.0714 -0.1300  0.3127
 4182TIP3    H112499   1.270   7.100   4.284 -2.0624 -0.3324  1.5468
 4182TIP3    H212500   1.303   6.986   4.378  0.2571 -0.0560  1.1120
 4183TIP3   OH212501   3.640   4.820   3.157  0.0674  0.2371 -0.3233
 4183TIP3    H112502   3.556   4.825   3.111  0.5016  2.5428 -0.9138
 4183TIP3    H212503   3.706   4.819   3.087  0.6365  1.0880  0.1931
 4184TIP3   OH212504   1.122   6.296   3.696 -0.1511 -0.0205  0.3553
 4184TIP3    H112505   1.070   6.276   3.619  1.1873  1.7044 -1.0523
 4184TIP3    H212506   1.117   6.218   3.750 -1.8175 -0.9348 -1.0865
 4185TIP3   OH212507   5.924   6.284   2.297  0.0433 -0.1941 -0.4103
 4185TIP3    H112508   5.957   6.284   2.387  1.3976  1.1668 -0.8725
 4185TIP3    H212509   5.990   6.333   2.248 -0.7909 -0.7317 -2.1080
 4186TIP3   OH212510   1.891   4.981   5.423  0.5817 -0.0524 -0.2372
 4186TIP3    H112511   1.888   4.946   5.513  4.0119  0.2481  0.0340
 4186TIP3    H212512   1.830   5.055   5.425 -0.5345 -0.9633  1.4168
 4187TIP3   OH212513   6.480   5.076   5.953  0.0961 -0.0632  0.1215
 4187TIP3    H112514   6.548   5.054   5.889  0.1921  0.1854  0.1357
 4187TIP3    H212515   6.398   5.052   5.910  0.2600 -1.3710  0.5272
 4188TIP3   OH212516   1.409   4.428   1.494  0.1287  0.0665 -0.5129
 4188TIP3    H112517   1.400   4.437   1.399 -0.8370 -0.7884 -0.5142
 4188TIP3    H212518   1.332   4.473   1.529  0.0888 -0.2629 -0.1764
 4189TIP3   OH212519   0.344   6.456   0.851  0.4428 -0.3422  0.1506
 4189TIP3    H112520   0.407   6.516   0.811  1.4342 -0.5377  1.3733
 4189TIP3    H212521   0.396   6.406   0.915 -1.1643  0.3017  2.0059
 4190TIP3   OH212522   0.946   6.785   1.228 -0.6193 -0.2058 -0.0940
 4190TIP3    H112523   1.026   6.758   1.183 -0.9743  0.0378 -0.8913
 4190TIP3    H212524   0.875   6.758   1.169 -1.0262  1.5078 -0.4250
 4191TIP3   OH212525   2.471   5.770   4.728 -0.1525 -0.5186  0.2757
 4191TIP3    H112526   2.462   5.723   4.811  1.0532 -1.6979 -0.2409
 4191TIP3    H212527   2.394   5.826   4.723 -0.3806 -0.6490  2.0589
 4192TIP3   OH212528   4.375   1.349   3.923 -0.1116 -0.0917  0.4067
 4192TIP3    H112529   4.307   1.294   3.962 -0.8844  0.1646 -0.5619
 4192TIP3    H212530   4.338   1.437   3.923  0.6988  0.2586  0.9699
 4193TIP3   OH212531   5.041   0.036   5.715  0.0784  0.5496  0.2273
 4193TIP3    H112532   4.955  -0.004   5.697 -0.1557  1.2644 -0.2767
 4193TIP3    H212533   5.057   0.018   5.807 -1.4073  1.8824  0.7576
 4194TIP3   OH212534   7.694   6.735   3.753 -0.1454 -0.0112  0.7076
 4194TIP3    H112535   7.684   6.669   3.823 -1.0940 -0.4987  0.1310
 4194TIP3    H212536   7.641   6.700   3.681  1.0402  0.3682 -0.3476
 4195TIP3   OH212537   3.411   4.129   2.580  0.5217 -0.2604  0.3390
 4195TIP3    H112538   3.432   4.088   2.496 -0.9754 -0.9819  0.2884
 4195TIP3    H212539   3.317   4.149   2.574  0.4358 -0.1607  1.7672
 4196TIP3   OH212540   1.476   4.252   2.273  0.3749  0.1550 -0.3140
 4196TIP3    H112541   1.516   4.334   2.243  0.6765  0.2940  0.4709
 4196TIP3    H212542   1.395   4.246   2.222  0.6370  0.6411 -0.8027
 4197TIP3   OH212543   1.825   6.696   2.368 -0.2671 -0.5786 -0.0690
 4197TIP3    H112544   1.898   6.739   2.413 -1.1673 -0.0770  0.9542
 4197TIP3    H212545   1.751   6.754   2.384 -1.3162 -2.0648  0.5808
 4198TIP3   OH212546   2.399   6.644   0.798  0.4058 -0.2072  0.6132
 4198TIP3    H112547   2.399   6.612   0.889 -1.4522 -2.2473 -0.0458
 4198TIP3    H212548   2.373   6.736   0.806  2.2463  0.2051  2.2959
 4199TIP3   OH212549   1.874   3.406   2.563 -0.4695 -0.1339  0.4456
 4199TIP3    H112550   1.912   3.318   2.567  1.6840  0.6900 -0.7979
 4199TIP3    H212551   1.856   3.421   2.471  0.8465  1.3628  0.3939
 4200TIP3   OH212552   2.465   7.331   2.679  0.2344  0.0486 -0.2312
 4200TIP3    H112553   2.496   7.416   2.710  0.8709 -0.0257 -0.6504
 4200TIP3    H212554   2.463   7.340   2.583  0.9970 -0.6463 -0.3165
 4201TIP3   OH212555   7.651   3.150   4.972  0.0232 -0.0093  0.1299
 4201TIP3    H112556   7.620   3.225   5.022  1.0289  1.2643 -1.1023
 4201TIP3    H212557   7.581   3.086   4.978 -1.5748  1.6756 -0.1961
 4202TIP3   OH212558   3.786   4.234   3.464 -0.6313  0.2686 -0.4829
 4202TIP3    H112559   3.765   4.317   3.506 -0.6928  1.0639 -2.0490
 4202TIP3    H212560   3.834   4.258   3.385  0.3797 -1.2443 -0.3501
 4203TIP3   OH212561   4.256   5.180   3.288  0.1992  0.3536  0.0905
 4203TIP3    H112562   4.283   5.099   3.332 -1.2134 -0.8454 -1.2181
 4203TIP3    H212563   4.193   5.220   3.348  1.1242  0.6633  0.8763
 4204TIP3   OH212564   3.244   0.329   0.363  0.1460  0.0206  0.0890
 4204TIP3    H112565   3.193   0.369   0.293 -1.2229 -0.8410  0.5746
 4204TIP3    H212566   3.333   0.363   0.351 -0.2021  0.3274 -1.7046
 4205TIP3   OH212567   0.947   7.057   3.537 -0.0892  0.2228  0.2423
 4205TIP3    H112568   0.954   7.144   3.498 -2.6772  0.2687 -0.1665
 4205TIP3    H212569   0.924   6.999   3.464 -0.3240 -0.4784  0.8621
 4206TIP3   OH212570   4.438   4.037   2.119  0.2235 -0.3569  0.5052
 4206TIP3    H112571   4.521   4.009   2.158  0.3844 -1.1217 -0.3632
 4206TIP3    H212572   4.442   4.132   2.119  0.9890 -0.3870  0.7124
 4207TIP3   OH212573   1.055   2.149   3.517 -0.4447  0.0721  0.0951
 4207TIP3    H112574   1.004   2.227   3.540 -0.4168  0.5910 -1.5051
 4207TIP3    H212575   1.056   2.096   3.597 -0.4416  1.7229  1.2137
 4208TIP3   OH212576   1.036   4.996   1.204  0.0850 -0.2749 -0.4518
 4208TIP3    H112577   0.946   4.991   1.236  0.4090  0.6917  0.6193
 4208TIP3    H212578   1.088   4.953   1.271  0.7848  1.8981  0.4287
 4209TIP3   OH212579   4.169   3.829   2.092  0.5826  0.2591 -0.2912
 4209TIP3    H112580   4.080   3.820   2.126  0.2695  1.9891 -0.5818
 4209TIP3    H212581   4.169   3.778   2.011  0.6160 -1.8363  0.9856
 4210TIP3   OH212582   7.753   4.320   3.093 -0.3291  0.1662 -0.0278
 4210TIP3    H112583   7.841   4.310   3.057 -1.4429 -1.8179 -2.3507
 4210TIP3    H212584   7.757   4.275   3.178  0.9014  0.1275 -0.0950
 4211TIP3   OH212585   1.077   3.716   1.514 -0.4659  0.3652  0.0909
 4211TIP3    H112586   1.036   3.794   1.476 -0.7903 -0.0764 -0.4749
 4211TIP3    H212587   1.167   3.718   1.482 -0.9418 -0.4176 -1.3641
 4212TIP3   OH212588   2.823   5.243   3.054  0.4069 -0.3265 -0.1320
 4212TIP3    H112589   2.834   5.256   3.148 -2.2897  0.3625  0.1459
 4212TIP3    H212590   2.826   5.332   3.017 -0.3739 -0.4184 -0.4421
 4213TIP3   OH212591   2.862   4.462   3.279 -0.3190  0.0008 -0.0946
 4213TIP3    H112592   2.824   4.508   3.204  0.2966  0.3643 -0.1834
 4213TIP3    H212593   2.794   4.469   3.347 -1.5067 -1.6490 -1.0798
 4214TIP3   OH212594   1.717   3.730   1.100 -0.4762  0.3457 -0.7935
 4214TIP3    H112595   1.786   3.689   1.048 -1.3041 -0.2229 -1.4587
 4214TIP3    H212596   1.720   3.686   1.185  1.1850  1.5920 -0.1900
 4215TIP3   OH212597   0.432   4.451   3.346 -0.1074  0.0877 -0.7949
 4215TIP3    H112598   0.454   4.538   3.380 -0.0418 -0.3956  0.4033
 4215TIP3    H212599   0.493   4.392   3.390  0.2769 -0.4962 -2.0821
 4216TIP3   OH212600   2.264   6.468   3.641  0.2818  0.6865 -0.2126
 4216TIP3    H112601   2.280   6.468   3.546  0.2954  0.1493 -0.2152
 4216TIP3    H212602   2.290   6.555   3.670 -2.7040  1.9964 -1.2181
 4217TIP3   OH212603   7.646   4.640   3.989  0.4799 -0.1699  0.0102
 4217TIP3    H112604   7.632   4.698   4.063  0.9583 -0.8987  0.6767
 4217TIP3    H212605   7.608   4.556   4.016 -2.0241  0.3358 -1.7059
 4218TIP3   OH212606   2.634   0.214   4.040  0.2857  0.2611  0.0798
 4218TIP3    H112607   2.628   0.215   4.136  2.1199  0.9336  0.2100
 4218TIP3    H212608   2.621   0.122   4.016 -2.2715  0.3802  0.7850
 4219TIP3   OH212609   3.051   7.400   2.741  0.9789 -0.2983  0.3515
 4219TIP3    H112610   3.119   7.457   2.776  1.4359 -0.3152 -0.5053
 4219TIP3    H212611   3.097   7.320   2.714  0.6461 -0.2478 -0.3752
 4220TIP3   OH212612   1.669   6.242   5.533  0.3986 -0.2849  0.2331
 4220TIP3    H112613   1.588   6.205   5.568 -0.2135  0.6015 -0.2531
 4220TIP3    H212614   1.699   6.303   5.601  0.8563 -0.8647  0.5662
 4221TIP3   OH212615   6.533   1.169   3.724 -0.3637  0.7679  0.5157
 4221TIP3    H112616   6.443   1.147   3.745  0.6690 -2.0844  2.3708
 4221TIP3    H212617   6.532   1.262   3.705 -3.7791  0.6604 -0.0892
 4222TIP3   OH212618   3.395   4.829   3.010  0.3700 -0.2889 -0.1121
 4222TIP3    H112619   3.424   4.803   2.922  0.0788 -0.6998 -0.0893
 4222TIP3    H212620   3.351   4.913   2.996 -3.4792 -2.3145 -1.0819
 4223TIP3   OH212621   3.149   0.417   3.966 -0.1432  0.6006  0.0863
 4223TIP3    H112622   3.137   0.423   3.871 -0.5713  0.0619  0.1080
 4223TIP3    H212623   3.155   0.324   3.985 -0.6440  0.6782  0.6625
 4224TIP3   OH212624   7.926   5.926   0.626 -0.0443 -0.0633  0.1140
 4224TIP3    H112625   7.874   5.993   0.582  0.6980  1.2884  1.2589
 4224TIP3    H212626   7.862   5.877   0.679 -0.3773  0.6250  0.3509
 4225TIP3   OH212627   0.527   6.284   2.700  0.1795  0.2586  0.2061
 4225TIP3    H112628   0.507   6.193   2.721  0.0591  0.5940  1.6130
 4225TIP3    H212629   0.621   6.292   2.715  0.4186  0.0618 -1.1233
 4226TIP3   OH212630   1.121   7.314   4.184 -0.3565 -0.0170  0.7887
 4226TIP3    H112631   1.214   7.315   4.165 -0.8189  1.1794 -1.5545
 4226TIP3    H212632   1.097   7.221   4.181  0.3934 -0.1790 -0.5143
 4227TIP3   OH212633   2.117   7.054   4.264 -0.2815  0.2500  0.0656
 4227TIP3    H112634   2.200   7.092   4.291 -2.0700  3.1792  1.6400
 4227TIP3    H212635   2.088   7.003   4.340  0.3351 -1.3357 -0.7246
 4228TIP3   OH212636   4.775   1.003   5.034 -0.1509 -0.0398  0.2310
 4228TIP3    H112637   4.706   0.937   5.047 -0.8151 -0.1255 -3.3006
 4228TIP3    H212638   4.729   1.087   5.043 -0.4812 -0.1001 -0.7735
 4229TIP3   OH212639   2.525   7.076   3.585  0.8332 -0.0805  0.4573
 4229TIP3    H112640   2.581   7.103   3.513 -1.4176  2.7915 -0.2830
 4229TIP3    H212641   2.445   7.044   3.543  0.0160  0.3862  1.6166
 4230TIP3   OH212642   0.389   5.594   2.785  0.0003  0.0534  0.3552
 4230TIP3    H112643   0.327   5.633   2.723  0.0497  1.1663  0.9945
 4230TIP3    H212644   0.426   5.519   2.738  0.9199  1.5919 -1.3928
 4231TIP3   OH212645   2.732   3.201   4.040  0.0205 -0.0503  0.0720
 4231TIP3    H112646   2.685   3.167   4.116  2.2699 -1.2886  0.9511
 4231TIP3    H212647   2.714   3.137   3.971 -0.1346 -0.1576  0.2094
 4232TIP3   OH212648   1.987   2.011   0.928 -0.1931 -0.1390 -0.1559
 4232TIP3    H112649   1.990   2.106   0.936  2.9485 -0.1908  0.1287
 4232TIP3    H212650   1.991   1.995   0.834  1.1603  0.0134 -0.1350
 4233TIP3   OH212651   2.122   2.830   1.744  0.5268  0.3702  0.0342
 4233TIP3    H112652   2.055   2.866   1.802  0.5259  1.5407 -0.6751
 4233TIP3    H212653   2.145   2.745   1.783  0.6725  1.2173  1.8239
 4234TIP3   OH212654   1.681   3.104   3.028 -0.4037  0.2391 -0.0271
 4234TIP3    H112655   1.588   3.099   3.004 -0.6807  1.7265  0.7465
 4234TIP3    H212656   1.681   3.112   3.123  0.4634  1.9435 -0.1638
 4235TIP3   OH212657   1.268   3.418   0.589  0.2886  0.0497 -0.3177
 4235TIP3    H112658   1.349   3.457   0.621 -0.3414  1.1422 -0.0424
 4235TIP3    H212659   1.255   3.341   0.644 -0.1438  1.2436  1.2726
 4236TIP3   OH212660   1.972   7.262   4.119  0.1253 -0.5201  0.2291
 4236TIP3    H112661   1.884   7.283   4.150  0.0790  0.3106 -0.4612
 4236TIP3    H212662   1.978   7.167   4.128 -0.2445 -0.4145  1.8393
 4237TIP3   OH212663   2.651   6.145   3.969  0.0944 -0.1614 -0.6636
 4237TIP3    H112664   2.712   6.073   3.955  0.2488 -0.1729  0.0473
 4237TIP3    H212665   2.686   6.217   3.917  0.3280 -0.3813 -0.8085
 4238TIP3   OH212666   2.839   6.078   2.458  0.0440  0.0618  0.1374
 4238TIP3    H112667   2.754   6.047   2.490 -0.1112 -0.9604 -1.2436
 4238TIP3    H212668   2.903   6.017   2.496  0.1299  0.5852  0.8430
 4239TIP3   OH212669   3.989   0.788   0.413  0.4482  0.6106 -0.3883
 4239TIP3    H112670   4.063   0.752   0.365  0.1587 -0.2007 -0.2314
 4239TIP3    H212671   3.912   0.745   0.374  0.1073  1.0145 -0.1647
 4240TIP3   OH212672   7.816   4.782   2.465 -0.4539 -0.0428 -0.6270
 4240TIP3    H112673   7.728   4.757   2.494 -0.6023  0.8755 -0.2821
 4240TIP3    H212674   7.859   4.698   2.446 -0.2114 -0.7040  2.6231
 4241TIP3   OH212675   0.224   3.455   2.967  0.2681  0.0945 -0.3313
 4241TIP3    H112676   0.201   3.507   3.044 -1.5225 -1.4630  0.2367
 4241TIP3    H212677   0.160   3.479   2.901 -0.9276 -1.7719  0.1234
 4242TIP3   OH212678   1.502   3.107   2.364  0.0082  0.3218 -0.4315
 4242TIP3    H112679   1.503   3.116   2.268 -1.2507 -0.3316 -0.5128
 4242TIP3    H212680   1.588   3.070   2.386 -0.5246 -1.6213 -1.5198
 4243TIP3   OH212681   2.616   4.861   2.048 -0.5821  0.2407  0.3088
 4243TIP3    H112682   2.552   4.822   1.988 -0.5820  0.9712 -0.1774
 4243TIP3    H212683   2.690   4.885   1.992 -1.0222  1.9030  0.4216
 4244TIP3   OH212684   0.560   5.999   2.630  0.0893 -0.8506 -0.2891
 4244TIP3    H112685   0.464   5.995   2.630  0.1308 -2.6253 -0.9662
 4244TIP3    H212686   0.582   6.032   2.543  0.0852 -0.4959 -0.1532
 4245TIP3   OH212687   1.878   3.854   3.424 -0.0154 -0.5197  0.1445
 4245TIP3    H112688   1.923   3.860   3.509  0.6728 -0.2978 -0.2346
 4245TIP3    H212689   1.881   3.760   3.403 -0.7147 -0.6592  0.6473
 4246TIP3   OH212690   4.442   0.766   2.809  0.3607 -0.4311  0.6641
 4246TIP3    H112691   4.462   0.690   2.864  1.3486 -0.6345  0.0353
 4246TIP3    H212692   4.463   0.841   2.864  2.1352 -0.6379  0.2970
 4247TIP3   OH212693   2.329   4.714   3.708  0.2653 -0.3725 -0.0890
 4247TIP3    H112694   2.382   4.793   3.714  0.1816 -0.3161 -0.0804
 4247TIP3    H212695   2.366   4.655   3.773 -0.1589 -0.0525  0.4455
 4248TIP3   OH212696   2.575   5.219   4.048 -0.9052 -0.2643 -0.0612
 4248TIP3    H112697   2.547   5.213   3.957 -2.5988  1.1996  0.3453
 4248TIP3    H212698   2.593   5.312   4.062 -0.6319 -0.4818  1.1005
 4249TIP3   OH212699   0.437   0.823   0.763  0.1592 -0.3613  0.3117
 4249TIP3    H112700   0.389   0.903   0.784  2.1100 -0.0816  4.2638
 4249TIP3    H212701   0.383   0.753   0.800 -0.6197 -0.7290 -1.4841
 4250TIP3   OH212702   2.896   5.435   1.637 -0.5496  0.1599 -0.5793
 4250TIP3    H112703   2.907   5.442   1.542  1.4302  1.4154 -0.2868
 4250TIP3    H212704   2.980   5.403   1.669 -0.8105  0.8745  0.8734
 4251TIP3   OH212705   2.068   5.673   3.668  0.1662 -0.5913  0.5142
 4251TIP3    H112706   2.078   5.765   3.695  0.2643 -0.2051 -0.8053
 4251TIP3    H212707   1.974   5.656   3.676 -0.3830  0.7104 -2.5977
 4252TIP3   OH212708   4.191   4.738   1.305 -0.5542  0.0083  0.3836
 4252TIP3    H112709   4.271   4.780   1.337 -1.2519  0.5938  1.3744
 4252TIP3    H212710   4.156   4.798   1.239  0.3645 -0.7415 -0.8212
 4253TIP3   OH212711   5.584   0.276   3.151 -0.8896  0.2992  0.0156
 4253TIP3    H112712   5.581   0.186   3.183 -1.7461  0.4486  0.3810
 4253TIP3    H212713   5.628   0.271   3.067  0.7019 -0.2212  0.8696
 4254TIP3   OH212714   2.053   7.163   3.842 -0.0662 -0.1219 -0.2024
 4254TIP3    H112715   2.086   7.109   3.914  0.0030 -0.0998 -0.2171
 4254TIP3    H212716   2.050   7.104   3.767 -0.9530 -0.3630  0.0187
 4255TIP3   OH212717   2.222   5.276   2.597 -0.1490  0.1213 -0.4623
 4255TIP3    H112718   2.150   5.313   2.649  0.3389  2.0205 -1.0835
 4255TIP3    H212719   2.211   5.181   2.604 -2.6953  0.3865 -0.5125
 4256TIP3   OH212720   2.781   7.287   2.189 -0.0932 -0.6933  0.1498
 4256TIP3    H112721   2.735   7.222   2.136  0.7457 -1.1839  0.0286
 4256TIP3    H212722   2.712   7.349   2.214 -0.6793 -0.9986 -0.6762
 4257TIP3   OH212723   3.405   6.500   3.927 -0.3181 -0.2438 -0.2574
 4257TIP3    H112724   3.409   6.493   4.023  0.1713  2.1159 -0.0755
 4257TIP3    H212725   3.329   6.556   3.911 -0.7811 -1.1592 -1.2918
 4258TIP3   OH212726   5.130   5.036   2.301  0.7181  0.1886  0.3240
 4258TIP3    H112727   5.205   5.075   2.345  0.6061 -0.5081  1.1518
 4258TIP3    H212728   5.090   4.979   2.367  1.0762 -1.6015 -0.9568
 4259TIP3   OH212729   4.148   6.145   3.016  0.2710  0.0055  0.3063
 4259TIP3    H112730   4.084   6.114   2.951  0.4237 -1.3488  0.7932
 4259TIP3    H212731   4.225   6.091   3.001  0.3712 -0.1920  1.4879
 4260TIP3   OH212732   3.099   3.778   3.107  0.2029  0.1699  0.8627
 4260TIP3    H112733   3.148   3.815   3.181  0.7788  3.4365 -1.0749
 4260TIP3    H212734   3.160   3.779   3.034 -1.1632 -0.6486 -0.3279
 4261TIP3   OH212735   5.738   5.221   2.177 -0.4328 -0.0890 -0.1676
 4261TIP3    H112736   5.768   5.130   2.167 -1.5688 -0.5026  0.0656
 4261TIP3    H212737   5.653   5.223   2.133 -1.1403  0.4496  1.1897
 4262TIP3   OH212738   2.460   5.111   2.929  0.2179 -0.1497  0.2588
 4262TIP3    H112739   2.377   5.070   2.903  0.3119 -0.7123  0.8241
 4262TIP3    H212740   2.476   5.177   2.862 -0.3417 -0.5050 -0.2354
 4263TIP3   OH212741   2.733   4.972   3.238 -0.2064 -0.3633 -0.3972
 4263TIP3    H112742   2.712   4.890   3.283  0.4312 -0.7105 -0.7372
 4263TIP3    H212743   2.658   4.988   3.181 -2.7085  1.8528  3.2256
 4264TIP3   OH212744   6.418   3.049   1.382 -0.1759  0.1820  0.5440
 4264TIP3    H112745   6.419   3.011   1.295  1.8349 -0.1797  0.6905
 4264TIP3    H212746   6.327   3.041   1.412 -0.6309 -0.7088 -1.0563
 4265TIP3   OH212747   5.796   6.445   2.781 -0.2174  0.6382 -0.2910
 4265TIP3    H112748   5.818   6.538   2.781  0.0076  0.6067  1.4944
 4265TIP3    H212749   5.701   6.442   2.785 -0.3020  0.7859 -2.0962
 4266TIP3   OH212750   3.023   5.244   2.284  0.2154  0.7523  0.2755
 4266TIP3    H112751   3.047   5.266   2.374 -0.0642  0.4493  0.4217
 4266TIP3    H212752   2.936   5.282   2.272 -0.4626 -0.6717  0.6723
 4267TIP3   OH212753   2.187   2.988   6.430 -0.6200 -0.2218 -0.3448
 4267TIP3    H112754   2.132   3.056   6.471 -2.5364 -2.0102  0.1470
 4267TIP3    H212755   2.154   2.982   6.340  0.4589  0.4404 -0.7859
 4268TIP3   OH212756   3.870   6.247   2.103 -0.0682 -0.0059  0.1260
 4268TIP3    H112757   3.957   6.270   2.136 -0.5857  0.0144  1.4932
 4268TIP3    H212758   3.825   6.210   2.178 -0.3823 -2.4179 -1.2084
 4269TIP3   OH212759   2.882   3.538   1.619  0.6838 -0.3830 -0.4871
 4269TIP3    H112760   2.901   3.535   1.713  0.7974  0.4850 -0.4738
 4269TIP3    H212761   2.814   3.472   1.606  2.1866 -2.0028 -0.1687
 4270TIP3   OH212762   4.420   6.439   1.791 -0.6482 -0.0687  0.8174
 4270TIP3    H112763   4.504   6.427   1.746 -0.6857 -1.2403  1.0486
 4270TIP3    H212764   4.392   6.351   1.813 -2.6867  0.1801 -0.6117
 4271TIP3   OH212765   3.367   5.039   0.955 -0.1707  0.3380  0.1214
 4271TIP3    H112766   3.330   5.054   0.868 -0.3226 -0.7691 -0.0145
 4271TIP3    H212767   3.292   5.047   1.015 -0.6917 -1.9643 -0.1598
 4272TIP3   OH212768   3.445   6.266   2.833  0.1917 -0.8809  0.7847
 4272TIP3    H112769   3.531   6.232   2.810 -0.3859 -0.7376 -1.6262
 4272TIP3    H212770   3.423   6.220   2.915  1.9829 -1.8579  0.7373
 4273TIP3   OH212771   6.365   4.727   3.062  0.1130  0.4121 -0.0361
 4273TIP3    H112772   6.360   4.737   2.967  0.9369  1.7106  0.0379
 4273TIP3    H212773   6.280   4.692   3.088 -0.6515  1.4531 -1.1010
 4274TIP3   OH212774   2.683   1.978   1.115 -0.3953  0.7369 -0.3636
 4274TIP3    H112775   2.738   1.951   1.041  0.1741 -1.6347  0.8847
 4274TIP3    H212776   2.594   1.950   1.090 -0.1265 -0.5160  0.0361
 4275TIP3   OH212777   2.531   1.680   5.451  0.1382 -0.2576 -0.3278
 4275TIP3    H112778   2.542   1.627   5.372 -0.9240 -0.0446 -0.6343
 4275TIP3    H212779   2.488   1.621   5.513  0.5706 -0.2890 -0.0541
 4276TIP3   OH212780   1.538   6.144   1.238  0.2534  0.4022 -0.4612
 4276TIP3    H112781   1.445   6.138   1.217  0.1584 -2.3210  0.5246
 4276TIP3    H212782   1.541   6.160   1.332  0.7965 -0.1807 -0.3749
 4277TIP3   OH212783   2.829   6.864   2.039 -0.8308  0.4932  0.0792
 4277TIP3    H112784   2.870   6.779   2.025 -0.4626  0.6534  0.1619
 4277TIP3    H212785   2.870   6.897   2.119 -0.4523  1.0553 -0.3369
 4278TIP3   OH212786   4.568   6.523   2.147  0.4401  0.5719  0.2059
 4278TIP3    H112787   4.627   6.465   2.099  0.9137  1.1759  0.0325
 4278TIP3    H212788   4.623   6.562   2.215 -0.0717  0.2048  0.8311
 4279TIP3   OH212789   4.048   4.353   1.574 -0.3846  0.4300  0.0508
 4279TIP3    H112790   4.115   4.317   1.632 -1.0206 -0.1577  0.4305
 4279TIP3    H212791   4.028   4.282   1.513 -0.2826  0.7836 -0.3991
 4280TIP3   OH212792   4.049   7.345   2.937 -0.5731  0.1280  0.5210
 4280TIP3    H112793   4.036   7.267   2.884 -2.1523  0.3674  0.5313
 4280TIP3    H212794   4.137   7.336   2.972 -0.0507 -0.7202 -0.9968
 4281TIP3   OH212795   3.323   5.895   2.051  0.4871  0.2872 -0.3978
 4281TIP3    H112796   3.353   5.985   2.050 -0.7917  0.7548  0.9568
 4281TIP3    H212797   3.256   5.890   1.983 -1.3414  1.0676  1.3107
 4282TIP3   OH212798   6.005   6.272   1.835 -0.4792 -0.7249  0.4210
 4282TIP3    H112799   6.055   6.279   1.754 -3.1416 -0.7532 -1.2555
 4282TIP3    H212800   5.983   6.362   1.858 -0.7999 -0.8112  0.4493
 4283TIP3   OH212801   2.535   4.214   2.183  0.5321 -0.2677 -0.1360
 4283TIP3    H112802   2.508   4.306   2.173  2.0267  0.0480 -1.6284
 4283TIP3    H212803   2.454   4.164   2.178 -0.3137  0.9897  0.8606
 4284TIP3   OH212804   3.575   6.065   1.096 -0.2199  0.6549 -0.3464
 4284TIP3    H112805   3.555   5.971   1.087  0.0563  0.4490  1.0470
 4284TIP3    H212806   3.665   6.073   1.064  0.3303  0.1450  1.0057
 4285TIP3   OH212807   5.753   4.931   1.777  0.0510  0.1659 -0.1375
 4285TIP3    H112808   5.725   5.002   1.719 -0.3765 -2.1375 -2.8766
 4285TIP3    H212809   5.846   4.946   1.790 -0.2691  1.8857  0.3039
 4286TIP3   OH212810   4.148   6.577   2.121  0.5169  0.1548 -0.3907
 4286TIP3    H112811   4.151   6.672   2.121  0.0511  0.1916 -1.8673
 4286TIP3    H212812   4.159   6.553   2.029  1.7903 -1.2565  0.1027
 4287TIP3   OH212813   4.391   6.179   3.628  0.1264 -0.4647 -0.3106
 4287TIP3    H112814   4.415   6.182   3.535 -1.6212  1.3641 -0.7390
 4287TIP3    H212815   4.329   6.251   3.639 -1.8102 -2.3700  1.6975
 4288TIP3   OH212816   4.595   4.578   1.270  0.2319  0.4572 -0.6055
 4288TIP3    H112817   4.657   4.585   1.198  0.7410 -0.9549 -0.3108
 4288TIP3    H212818   4.509   4.580   1.229  0.5353 -1.8970 -1.4068
 4289TIP3   OH212819   3.415   4.156   1.468  1.3333  0.3157 -0.1090
 4289TIP3    H112820   3.336   4.202   1.497  1.4205 -0.2922  1.1225
 4289TIP3    H212821   3.484   4.222   1.471  0.9751  0.7326 -0.7634
 4290TIP3   OH212822   1.913   5.758   1.856  0.2194  0.0170  0.2346
 4290TIP3    H112823   1.980   5.750   1.924  0.5202  1.9118  0.1899
 4290TIP3    H212824   1.963   5.760   1.774  0.0953  0.8063  0.1673
 4291TIP3   OH212825   3.870   7.044   4.064  0.0050  0.0450 -0.3782
 4291TIP3    H112826   3.776   7.053   4.079  0.0836  1.1032 -0.4762
 4291TIP3    H212827   3.910   7.071   4.147  0.2159 -0.7021 -0.2332
 4292TIP3   OH212828   2.201   2.346   6.412 -0.2812 -0.3638 -0.4826
 4292TIP3    H112829   2.222   2.337   6.505 -2.4917  0.4916  0.1266
 4292TIP3    H212830   2.208   2.257   6.377 -0.7395 -0.9166  0.8089
 4293TIP3   OH212831   7.681   4.707   3.160 -0.0788 -0.1735  0.6706
 4293TIP3    H112832   7.691   4.762   3.238 -0.0964 -0.1614  0.6641
 4293TIP3    H212833   7.611   4.646   3.182 -0.7633  0.4705  0.2960
 4294TIP3   OH212834   5.948   0.896   0.503 -0.0815 -0.6547  0.0844
 4294TIP3    H112835   5.886   0.872   0.572 -0.7190 -0.5679 -0.4540
 4294TIP3    H212836   6.024   0.932   0.549 -0.9130  0.3203  0.6808
 4295TIP3   OH212837   3.402   6.757   3.551 -0.1303  0.3973  0.6326
 4295TIP3    H112838   3.329   6.696   3.561  0.4721 -0.2451  1.1936
 4295TIP3    H212839   3.480   6.701   3.548  0.2583  1.0076 -1.0066
 4296TIP3   OH212840   2.981   5.994   5.625 -0.5445 -0.0001  0.3116
 4296TIP3    H112841   3.024   5.938   5.560  1.7373  1.8275  0.1747
 4296TIP3    H212842   3.039   5.991   5.701 -0.1118  2.5185  0.1330
 4297TIP3   OH212843   1.325   0.857   0.012  0.0910 -0.3981 -0.1490
 4297TIP3    H112844   1.287   0.944   0.025 -0.0866 -0.2831 -1.3757
 4297TIP3    H212845   1.263   0.797   0.054 -0.8336 -0.0981 -1.0593
 4298TIP3   OH212846   1.829   6.227   1.961  0.1476  0.4453 -0.0810
 4298TIP3    H112847   1.738   6.251   1.946 -0.0602 -0.1023  0.2710
 4298TIP3    H212848   1.826   6.132   1.972  0.6875  0.4980  0.4906
 4299TIP3   OH212849   5.305   0.285   2.333  0.1210  0.1754  0.2070
 4299TIP3    H112850   5.234   0.348   2.340  0.9219  1.0429  0.5447
 4299TIP3    H212851   5.382   0.331   2.367  0.3488 -1.5641  2.1597
 4300TIP3   OH212852   3.010   5.491   3.390  0.2972  0.7306  0.5627
 4300TIP3    H112853   3.074   5.423   3.372  0.4110  0.9466  0.1643
 4300TIP3    H212854   2.930   5.443   3.412  0.2032  0.4723 -0.3441
 4301TIP3   OH212855   4.142   0.058   3.788  0.2312  0.0320  0.2437
 4301TIP3    H112856   4.127   0.152   3.779  0.3646 -0.0844 -1.2317
 4301TIP3    H212857   4.232   0.051   3.820  0.0898  0.4226  0.7291
 4302TIP3   OH212858   4.607   5.839   3.050  0.0036  0.2488 -0.0680
 4302TIP3    H112859   4.645   5.777   2.989 -0.2235 -0.3929  0.4338
 4302TIP3    H212860   4.590   5.788   3.129 -0.7020  0.8192  0.1608
 4303TIP3   OH212861   3.907   5.062   0.748 -0.0392  0.5763 -0.3626
 4303TIP3    H112862   3.906   5.057   0.844 -1.9159  0.2416 -0.3844
 4303TIP3    H212863   3.815   5.066   0.723  0.4712  3.3086 -2.0448
 4304TIP3   OH212864   4.586   5.721   4.321 -0.2637 -0.1429 -0.1869
 4304TIP3    H112865   4.495   5.752   4.322 -0.3769 -0.5214  0.9652
 4304TIP3    H212866   4.639   5.800   4.331 -0.4894 -0.0583  0.3004
 4305TIP3   OH212867   4.064   4.889   1.722  0.4105 -0.1054 -0.6033
 4305TIP3    H112868   4.065   4.841   1.805  1.3544  0.2592 -0.4000
 4305TIP3    H212869   4.123   4.841   1.665  0.3623  0.0859 -0.8179
 4306TIP3   OH212870   2.540   4.731   1.503  0.6756  0.0592 -0.5249
 4306TIP3    H112871   2.601   4.662   1.475 -0.3489 -0.3412 -1.8064
 4306TIP3    H212872   2.554   4.802   1.440 -0.4259 -0.1695 -1.0306
 4307TIP3   OH212873   4.383   6.870   2.610 -0.1779 -0.3002  1.1150
 4307TIP3    H112874   4.419   6.911   2.689 -0.0181 -0.7897  1.3004
 4307TIP3    H212875   4.365   6.780   2.637 -1.4909 -0.0717  0.9990
 4308TIP3   OH212876   2.559   4.920   1.279  0.5829 -0.1289 -0.3400
 4308TIP3    H112877   2.492   4.852   1.271  0.7245 -0.2249 -0.7269
 4308TIP3    H212878   2.511   4.998   1.308  0.4634 -0.4646  0.3682
 4309TIP3   OH212879   2.102   5.036   0.896 -0.6240  0.1670  0.3978
 4309TIP3    H112880   2.045   5.019   0.971 -2.4838  2.9024 -0.3078
 4309TIP3    H212881   2.050   5.009   0.820 -0.1572  0.6954 -0.1182
 4310TIP3   OH212882   1.665   5.811   2.003 -0.1802 -0.2447 -0.4262
 4310TIP3    H112883   1.583   5.817   1.954 -0.3237 -0.8802 -0.2711
 4310TIP3    H212884   1.733   5.832   1.938 -0.4213 -0.3529 -0.7165
 4311TIP3   OH212885   1.711   2.837   0.196 -0.4095 -0.1650 -0.2322
 4311TIP3    H112886   1.739   2.802   0.111 -0.7538  0.6366 -0.6829
 4311TIP3    H212887   1.727   2.765   0.258  2.4299  0.1719 -0.4861
 4312TIP3   OH212888   4.435   3.796   0.933 -0.3037  0.0908  0.0726
 4312TIP3    H112889   4.510   3.854   0.919 -1.2527  1.0858 -0.8753
 4312TIP3    H212890   4.473   3.708   0.931  0.6373  0.5087 -1.9267
 4313TIP3   OH212891   5.560   6.157   1.667  0.3062 -0.2642 -0.4134
 4313TIP3    H112892   5.609   6.184   1.590  0.4902 -0.1860 -0.2667
 4313TIP3    H212893   5.626   6.133   1.732  0.1972  1.6280  0.4389
 4314TIP3   OH212894   4.581   6.042   1.567  0.0578  0.3936  0.0995
 4314TIP3    H112895   4.485   6.039   1.560  0.0749  1.7385 -0.9846
 4314TIP3    H212896   4.609   5.951   1.563 -1.2387 -0.0735  1.3589
 4315TIP3   OH212897   4.833   6.464   3.063 -0.7601  0.4747 -0.4805
 4315TIP3    H112898   4.758   6.474   3.121  0.3273  0.7149  0.9081
 4315TIP3    H212899   4.884   6.544   3.076 -0.2640  0.3162 -1.4168
 4316TIP3   OH212900   3.212   5.161   2.083  0.1870  0.0845 -0.4656
 4316TIP3    H112901   3.166   5.179   2.001 -1.5977 -1.2622  0.2057
 4316TIP3    H212902   3.159   5.205   2.150  3.9864  4.9454 -0.4070
 4317TIP3   OH212903   4.356   6.610   3.796 -0.4887  0.1116 -0.8729
 4317TIP3    H112904   4.336   6.546   3.864 -0.4770  0.1220 -0.8604
 4317TIP3    H212905   4.389   6.686   3.844  0.3283 -0.1969 -0.9505
 4318TIP3   OH212906   3.684   3.031   2.072 -0.0370 -0.0818 -0.3808
 4318TIP3    H112907   3.735   3.067   2.000 -0.4248  0.1808 -0.5183
 4318TIP3    H212908   3.647   3.107   2.117  0.6231 -0.2143  0.4065
 4319TIP3   OH212909   5.090   6.344   1.809  0.0360 -0.0080 -0.2268
 4319TIP3    H112910   5.059   6.377   1.893  0.6391 -1.8425  0.7460
 4319TIP3    H212911   5.148   6.413   1.776 -0.3229  0.7889  0.7843
 4320TIP3   OH212912   2.416   0.130   6.027  0.4779  0.5986 -0.4448
 4320TIP3    H112913   2.436   0.224   6.030  3.6351  0.0055 -0.9188
 4320TIP3    H212914   2.394   0.107   6.117  0.8185  1.5729 -0.1110
 4321TIP3   OH212915   5.468   4.010   0.855  0.4299  0.0087  0.2524
 4321TIP3    H112916   5.419   3.929   0.868 -0.3016  0.4188  0.1180
 4321TIP3    H212917   5.513   4.025   0.938  1.4106 -1.0877 -0.0776
 4322TIP3   OH212918   2.750   6.028   1.363 -0.6477  0.2072 -0.3950
 4322TIP3    H112919   2.820   6.093   1.362  3.5204 -3.9888 -2.3321
 4322TIP3    H212920   2.749   5.996   1.454  0.7318 -0.4424 -0.5925
 4323TIP3   OH212921   4.390   5.351   2.367  0.4798  0.0343  0.1902
 4323TIP3    H112922   4.300   5.380   2.380  0.3623  0.3508 -1.2572
 4323TIP3    H212923   4.385   5.288   2.295  1.4899  0.4753 -0.2754
 4324TIP3   OH212924   2.133   5.997   2.569  0.3282  0.3026 -0.4072
 4324TIP3    H112925   2.203   5.977   2.631 -2.2616 -0.9037  2.2566
 4324TIP3    H212926   2.152   5.942   2.493  0.8773 -1.9584  1.3201
 4325TIP3   OH212927   6.205   0.418   2.704  0.1114 -0.2987 -0.1306
 4325TIP3    H112928   6.120   0.460   2.694  0.9697  1.5182 -0.0710
 4325TIP3    H212929   6.185   0.325   2.719 -1.9575  0.4915  2.3478
 4326TIP3   OH212930   2.319   5.761   3.001 -0.0322 -0.0270 -0.8315
 4326TIP3    H112931   2.356   5.848   3.016  1.0837 -0.5452 -0.5058
 4326TIP3    H212932   2.390   5.712   2.960  0.0467 -1.3870  0.8733
 4327TIP3   OH212933   4.587   6.621   2.515 -0.8212  0.3031 -0.0379
 4327TIP3    H112934   4.656   6.584   2.570  1.2415 -0.0652 -2.7676
 4327TIP3    H212935   4.509   6.569   2.536  0.1390 -0.4554  1.7822
 4328TIP3   OH212936   1.697   3.677   2.030  0.7876 -0.0380  0.0591
 4328TIP3    H112937   1.731   3.588   2.029 -1.2121 -0.8477  1.0629
 4328TIP3    H212938   1.748   3.721   2.097  1.5854 -0.4949 -0.2359
 4329TIP3   OH212939   5.987   6.081   2.096  0.5074  0.2823 -0.3555
 4329TIP3    H112940   5.972   6.155   2.155 -1.2705 -0.1291 -0.2889
 4329TIP3    H212941   6.008   6.122   2.012  1.2125  0.8565  0.0926
 4330TIP3   OH212942   2.955   5.915   3.517 -0.0564 -0.0081  0.0433
 4330TIP3    H112943   3.038   5.939   3.557 -0.4828  0.7080  0.4997
 4330TIP3    H212944   2.925   5.994   3.472 -0.6108 -0.1854  0.0931
 4331TIP3   OH212945   3.223   7.160   2.850  0.8159 -0.2298 -0.3306
 4331TIP3    H112946   3.317   7.160   2.871  1.0369  1.7100 -1.2353
 4331TIP3    H212947   3.221   7.162   2.754 -0.1737 -2.4222 -0.3884
 4332TIP3   OH212948   3.950   4.728   2.578 -0.1776  0.2112  0.1730
 4332TIP3    H112949   3.940   4.660   2.511 -0.5610 -0.2055  0.6499
 4332TIP3    H212950   3.929   4.810   2.533 -1.2549 -0.1545 -0.0049
 4333TIP3   OH212951   3.569   6.789   2.645 -0.1892  0.0359 -0.3469
 4333TIP3    H112952   3.641   6.726   2.641  0.2551  0.6028 -1.3539
 4333TIP3    H212953   3.546   6.793   2.738  2.0364  0.9583  0.1780
 4334TIP3   OH212954   1.533   5.625   0.763  0.2963  0.3590  0.2563
 4334TIP3    H112955   1.553   5.573   0.841 -0.9620 -0.3228  0.1445
 4334TIP3    H212956   1.544   5.564   0.690 -1.7057  0.0654  0.1621
 4335TIP3   OH212957   3.901   4.868   2.137  0.0239  0.1280  0.1435
 4335TIP3    H112958   3.892   4.872   2.232  1.1260  0.0678  0.2625
 4335TIP3    H212959   3.813   4.882   2.103 -0.4530 -0.3001  1.1886
 4336TIP3   OH212960   1.722   0.820   6.246 -0.6342 -0.1730  0.1137
 4336TIP3    H112961   1.704   0.867   6.327 -2.2125  0.1036 -0.3752
 4336TIP3    H212962   1.666   0.864   6.180 -0.1479 -1.0464 -0.8927
 4337TIP3   OH212963   3.700   6.710   3.862 -0.7545  0.1057 -0.0313
 4337TIP3    H112964   3.745   6.750   3.787 -1.2038  0.7514  0.0408
 4337TIP3    H212965   3.644   6.780   3.896 -0.8931 -0.3281  0.6276
 4338TIP3   OH212966   5.913   4.446   3.679  0.2440  0.1257 -0.0209
 4338TIP3    H112967   5.835   4.497   3.660  0.8435  1.2635  0.5552
 4338TIP3    H212968   5.882   4.374   3.735 -0.2672  0.9829  0.8006
 4339TIP3   OH212969   3.016   5.694   4.423 -0.4428  0.4076 -0.1533
 4339TIP3    H112970   2.938   5.748   4.407 -2.1399 -1.9513 -0.0760
 4339TIP3    H212971   3.012   5.675   4.516 -0.0475 -0.1388 -0.2493
 4340TIP3   OH212972   4.340   6.414   0.444  0.3620 -0.3545 -0.4185
 4340TIP3    H112973   4.402   6.391   0.514 -1.0367 -0.1186  0.9330
 4340TIP3    H212974   4.261   6.442   0.491 -0.0215  1.4702 -2.0826
 4341TIP3   OH212975   3.868   7.211   1.500 -0.4621 -0.2284 -0.0671
 4341TIP3    H112976   3.928   7.261   1.555  0.7152  0.1702 -1.6969
 4341TIP3    H212977   3.781   7.237   1.530  0.1527 -0.5477  2.0738
 4342TIP3   OH212978   2.999   6.320   0.423  0.1693  0.1923  0.3352
 4342TIP3    H112979   2.981   6.410   0.395  2.4928  1.0600  1.4801
 4342TIP3    H212980   2.973   6.318   0.515 -0.5787 -0.5460  0.1183
 4343TIP3   OH212981   4.388   7.363   4.308  0.0434  0.0805  0.5219
 4343TIP3    H112982   4.376   7.437   4.367 -0.2543  0.3893  0.0701
 4343TIP3    H212983   4.460   7.313   4.348 -0.8594 -0.2899  1.7236
 4344TIP3   OH212984   2.368   5.787   1.072  0.3186  0.1890 -0.2376
 4344TIP3    H112985   2.357   5.772   1.166 -0.9440 -0.5899 -0.5082
 4344TIP3    H212986   2.293   5.840   1.047  0.1635 -0.3781 -0.9842
 4345TIP3   OH212987   1.282   6.437   1.152 -0.2795 -0.2827  0.3808
 4345TIP3    H112988   1.283   6.454   1.246  0.8435  0.3131  0.2629
 4345TIP3    H212989   1.291   6.342   1.144 -1.2410 -0.4233  0.8883
 4346TIP3   OH212990   3.154   6.622   2.676 -0.2110 -0.2561 -0.5049
 4346TIP3    H112991   3.199   6.563   2.736 -1.0358  0.0232  0.4002
 4346TIP3    H212992   3.209   6.700   2.674  0.3101 -0.6284 -0.8547
 4347TIP3   OH212993   4.433   1.986   1.288 -0.5907 -0.0419 -0.0072
 4347TIP3    H112994   4.498   2.037   1.240 -0.2349 -1.0222 -0.6013
 4347TIP3    H212995   4.350   2.005   1.245 -0.5394  0.4404  0.1102
 4348TIP3   OH212996   1.380   6.357   1.879 -1.6322 -0.4956 -0.0262
 4348TIP3    H112997   1.475   6.362   1.890 -1.6656  2.9876 -0.8365
 4348TIP3    H212998   1.345   6.362   1.968 -1.1313  1.8021  0.0679
 4349TIP3   OH212999   5.757   5.657   1.715 -0.1444 -0.1268  0.2736
 4349TIP3    H113000   5.707   5.580   1.741 -1.2255 -0.0512 -1.5251
 4349TIP3    H213001   5.693   5.717   1.678  0.7328  1.5502  1.4077
 4350TIP3   OH213002   1.540   6.309   0.167 -0.3252 -0.2106 -0.0236
 4350TIP3    H113003   1.474   6.321   0.234  0.8015 -1.8947  1.4297
 4350TIP3    H213004   1.491   6.283   0.089 -1.5185  0.5444  0.4532
 4351TIP3   OH213005   3.513   6.768   2.955  0.1037 -0.6417 -0.0760
 4351TIP3    H113006   3.480   6.799   3.039 -1.8549 -0.4599 -0.9032
 4351TIP3    H213007   3.582   6.706   2.978  1.1995  1.1484  1.6377
 4352TIP3   OH213008   3.078   5.657   2.638  0.1837  0.0934 -0.8374
 4352TIP3    H113009   3.171   5.633   2.632  0.1453 -0.6635  1.3181
 4352TIP3    H213010   3.032   5.574   2.651 -0.8800  0.3949 -2.5548
 4353TIP3   OH213011   3.585   6.131   2.071  0.0050  0.0015 -0.4546
 4353TIP3    H113012   3.512   6.167   2.122  0.6185  0.7408 -0.0761
 4353TIP3    H213013   3.644   6.094   2.137  0.2749 -0.0133 -0.7044
 4354TIP3   OH213014   5.831   5.383   5.206 -0.0016  0.1619  0.1351
 4354TIP3    H113015   5.898   5.445   5.179  0.2958  0.8919  2.4253
 4354TIP3    H213016   5.767   5.435   5.254 -0.6375 -1.0280  0.6087
 4355TIP3   OH213017   2.371   7.069   3.842 -0.0951  0.0853  0.0393
 4355TIP3    H113018   2.422   7.101   3.768 -1.2168  2.2202  0.1578
 4355TIP3    H213019   2.377   7.138   3.907 -2.1275 -0.1433  0.5149
 4356TIP3   OH213020   6.120   0.152   2.585  0.0064 -0.2155  0.7959
 4356TIP3    H113021   6.036   0.135   2.543 -0.2825 -1.8552  2.0278
 4356TIP3    H213022   6.153   0.066   2.611  2.2890  0.3476 -0.0631
 4357TIP3   OH213023   1.273   6.054   3.440 -0.2610 -0.3115 -0.2076
 4357TIP3    H113024   1.241   6.122   3.382 -2.2815 -1.8755 -0.9628
 4357TIP3    H213025   1.201   6.037   3.501 -0.3240 -2.7505 -0.9122
 4358TIP3   OH213026   3.926   6.163   2.873 -0.4249  0.5430 -0.0882
 4358TIP3    H113027   3.915   6.245   2.922 -0.5046  0.0242  0.7749
 4358TIP3    H213028   3.878   6.178   2.791 -0.4341  1.3622  0.0561
 4359TIP3   OH213029   3.636   3.578   2.635 -0.2940  0.0630 -0.0627
 4359TIP3    H113030   3.703   3.527   2.680  0.5337  0.1788 -1.1523
 4359TIP3    H213031   3.569   3.514   2.611  0.1320 -0.2992 -0.2916
 4360TIP3   OH213032   3.121   7.252   1.331 -0.3334  0.7692 -0.2560
 4360TIP3    H113033   3.191   7.290   1.279 -1.2339  1.1692 -1.1962
 4360TIP3    H213034   3.062   7.325   1.349 -0.2899  0.5306  0.9138
 4361TIP3   OH213035   4.805   0.454   3.191  0.9364  0.1627 -0.0910
 4361TIP3    H113036   4.887   0.495   3.164 -0.5179  1.2744 -3.1281
 4361TIP3    H213037   4.787   0.389   3.122 -0.1771 -0.8398  1.1142
 4362TIP3   OH213038   4.044   5.673   1.954  0.4116  0.4969  0.8749
 4362TIP3    H113039   4.100   5.633   1.888 -0.4946  0.0747  0.3484
 4362TIP3    H213040   4.082   5.645   2.038  1.2661  0.6268  0.5392
 4363TIP3   OH213041   4.941   6.051   4.968 -0.5185 -0.2686  0.0497
 4363TIP3    H113042   4.888   6.073   4.891  1.0507  1.0930 -0.6588
 4363TIP3    H213043   4.876   6.025   5.034 -2.1188  1.5751 -0.7303
 4364TIP3   OH213044   1.847   5.522   3.417 -0.1208  0.0063  0.6467
 4364TIP3    H113045   1.764   5.479   3.394  0.1752 -0.5872  0.6880
 4364TIP3    H213046   1.840   5.538   3.511 -0.5674  0.7845  0.4874
 4365TIP3   OH213047   6.782   0.235   2.633 -0.6332  0.2907  0.2406
 4365TIP3    H113048   6.819   0.212   2.719 -0.6260  2.0456  0.7250
 4365TIP3    H213049   6.858   0.255   2.579 -0.6625 -0.3766 -0.0502
 4366TIP3   OH213050   3.206   4.017   1.118  0.4974  0.5500 -0.0534
 4366TIP3    H113051   3.206   4.113   1.118 -0.0047  0.5532  0.1416
 4366TIP3    H213052   3.133   3.994   1.175  0.6318  0.0502 -0.0878
 4367TIP3   OH213053   5.553   6.778   2.918  0.4567  0.3615 -0.1985
 4367TIP3    H113054   5.531   6.866   2.948  3.5239  1.3349 -0.6219
 4367TIP3    H213055   5.547   6.783   2.822  1.9306  0.5249 -0.2988
 4368TIP3   OH213056   6.197   3.283   2.324 -0.5895 -0.0625  0.3558
 4368TIP3    H113057   6.117   3.240   2.355 -0.8788  0.0270 -0.2633
 4368TIP3    H213058   6.253   3.288   2.401 -0.3994 -1.9110  0.3674
 4369TIP3   OH213059   3.887   5.218   2.624 -0.1924 -0.1339 -0.2313
 4369TIP3    H113060   3.934   5.167   2.689 -0.5651  0.5611  0.5952
 4369TIP3    H213061   3.931   5.199   2.541  0.0636 -1.2919  0.1648
 4370TIP3   OH213062   3.164   4.184   2.008  0.1753 -0.0655  0.1669
 4370TIP3    H113063   3.079   4.227   2.010 -0.1164 -0.5119 -1.6499
 4370TIP3    H213064   3.215   4.235   1.945  0.7907 -0.6419  0.1947
 4371TIP3   OH213065   3.980   5.344   1.608 -0.1187  0.3162  0.6555
 4371TIP3    H113066   4.032   5.328   1.529  0.0018 -2.2503  1.2005
 4371TIP3    H213067   3.894   5.370   1.575 -0.1458 -0.9869 -0.3616
 4372TIP3   OH213068   2.207   5.464   2.398 -0.7316  0.2676  0.2922
 4372TIP3    H113069   2.115   5.488   2.381 -1.1256  0.1441  2.0895
 4372TIP3    H213070   2.202   5.408   2.475  0.5582 -2.5976 -1.6684
 4373TIP3   OH213071   3.037   6.800   1.617  0.3830  0.2544  0.2409
 4373TIP3    H113072   3.043   6.894   1.597 -0.1754 -0.0330 -1.3985
 4373TIP3    H213073   3.070   6.792   1.706 -0.2149  2.1079  0.6486
 4374TIP3   OH213074   7.683   0.274   3.823 -0.5407 -0.7664  0.6310
 4374TIP3    H113075   7.663   0.365   3.846 -0.2252  0.0706 -2.2512
 4374TIP3    H213076   7.779   0.270   3.822 -0.5563 -0.7990 -0.5295
 4375TIP3   OH213077   5.697   0.128   2.240  0.3439 -0.6389  0.0816
 4375TIP3    H113078   5.694   0.222   2.257  0.8979 -0.6538  0.2660
 4375TIP3    H213079   5.667   0.119   2.150 -0.0328 -0.3169  0.1716
 4376TIP3   OH213080   4.617   6.474   3.231 -0.5018  0.3804 -0.1644
 4376TIP3    H113081   4.568   6.536   3.286 -1.1380  0.2758 -0.6035
 4376TIP3    H213082   4.550   6.434   3.175  0.2733  1.2055 -1.7076
 4377TIP3   OH213083   5.607   6.803   3.940  0.2501 -0.0642  0.0920
 4377TIP3    H113084   5.647   6.773   3.857  1.0311 -0.5157  0.6192
 4377TIP3    H213085   5.620   6.898   3.940 -1.0816  0.1330 -0.9921
 4378TIP3   OH213086   2.772   5.318   2.186 -0.7013  0.0023 -0.7402
 4378TIP3    H113087   2.728   5.402   2.193  0.1183  0.4107 -0.4307
 4378TIP3    H213088   2.779   5.302   2.092  1.2118  1.3984 -0.8768
 4379TIP3   OH213089   2.136   5.007   2.376  0.7513  0.0973 -0.1087
 4379TIP3    H113090   2.057   4.955   2.362 -0.0608  1.3031 -0.1199
 4379TIP3    H213091   2.147   5.057   2.295  1.5307 -0.0758 -0.1115
 4380TIP3   OH213092   1.966   4.667   2.509 -0.4296  0.2812  0.7117
 4380TIP3    H113093   1.915   4.736   2.469  0.4479 -0.0446 -1.0134
 4380TIP3    H213094   1.941   4.587   2.463 -0.3098 -0.3154  1.6419
 4381TIP3   OH213095   5.260   0.023   3.399  0.1975  0.1962  0.9509
 4381TIP3    H113096   5.169   0.000   3.380  0.1519 -0.0932  1.4949
 4381TIP3    H213097   5.283   0.088   3.332 -0.5134  0.5241  1.0169
 4382TIP3   OH213098   3.567   6.306   0.121  0.4073 -0.5821  0.2500
 4382TIP3    H113099   3.579   6.377   0.184  2.0431  1.0740 -1.8037
 4382TIP3    H213100   3.475   6.310   0.096  0.8227  1.9484 -1.0413
 4383TIP3   OH213101   4.126   7.437   2.171 -0.0265 -0.4191  0.2506
 4383TIP3    H113102   4.062   7.366   2.179 -3.7346  2.7495  0.1852
 4383TIP3    H213103   4.143   7.464   2.261 -1.9075  1.3626  0.0896
 4384TIP3   OH213104   4.577   3.268   1.606  0.4629 -0.4333 -0.2828
 4384TIP3    H113105   4.592   3.363   1.613 -0.0504 -0.2220 -1.8467
 4384TIP3    H213106   4.589   3.236   1.695 -0.4874  1.2802  0.5116
 4385TIP3   OH213107   3.014   2.999   1.966 -0.6035 -0.3787 -0.0085
 4385TIP3    H113108   2.990   3.090   1.984  0.6180  0.0191 -0.3159
 4385TIP3    H213109   3.007   2.955   2.051  2.0739  0.7779  0.8907
 4386TIP3   OH213110   6.126   4.765   1.587 -0.0791  0.7664  0.4589
 4386TIP3    H113111   6.157   4.791   1.500  0.9084 -1.5674  0.0760
 4386TIP3    H213112   6.030   4.763   1.579  0.0502 -0.7922 -1.0159
 4387TIP3   OH213113   3.967   3.618   1.632  0.0314  0.7891 -0.1821
 4387TIP3    H113114   3.903   3.548   1.641  0.5282  0.3732  0.1163
 4387TIP3    H213115   4.015   3.597   1.552  0.2301  0.7473 -0.0534
 4388TIP3   OH213116   6.005   4.325   3.461 -0.3791  0.7363  0.4080
 4388TIP3    H113117   5.979   4.364   3.544  2.8523  0.5311  1.5807
 4388TIP3    H213118   6.054   4.394   3.416  0.2972 -0.0496 -0.0783
 4389TIP3   OH213119   5.207   4.518   1.100 -0.1056  0.2490 -0.3439
 4389TIP3    H113120   5.277   4.553   1.155  0.3547 -0.4981 -0.4505
 4389TIP3    H213121   5.130   4.518   1.157 -0.2577  1.9322 -0.5038
 4390TIP3   OH213122   2.505   5.807   5.058 -0.1293 -0.0508  0.2595
 4390TIP3    H113123   2.441   5.735   5.056  0.4606 -0.5677 -0.2383
 4390TIP3    H213124   2.461   5.876   5.107 -1.0037 -0.4718  0.0885
 4391TIP3   OH213125   4.909   4.892   2.169 -0.3148  0.1551  0.0225
 4391TIP3    H113126   4.907   4.851   2.255 -0.0527  0.7019  0.2924
 4391TIP3    H213127   4.910   4.819   2.107  2.4861 -0.2862  0.5345
 4392TIP3   OH213128   2.796   6.414   4.870  0.3336 -0.5979 -0.1048
 4392TIP3    H113129   2.782   6.447   4.781 -1.9061 -1.6173 -0.1849
 4392TIP3    H213130   2.790   6.319   4.862  0.7301 -0.7325  1.0439
 4393TIP3   OH213131   3.916   5.953   1.486  0.2500  0.0880  1.0251
 4393TIP3    H113132   3.985   5.889   1.501 -0.1001 -0.6403 -0.3797
 4393TIP3    H213133   3.846   5.927   1.546  0.0119 -0.9961  0.2830
 4394TIP3   OH213134   6.160   5.508   1.618  0.3834  0.0136 -0.4737
 4394TIP3    H113135   6.203   5.554   1.690 -0.2505 -0.1477  0.0149
 4394TIP3    H213136   6.102   5.574   1.579  0.7112  0.0946 -0.8194
 4395TIP3   OH213137   4.358   6.374   1.187 -0.5074 -0.3038  0.1402
 4395TIP3    H113138   4.313   6.389   1.270 -2.0690 -0.9674 -0.5658
 4395TIP3    H213139   4.309   6.426   1.123  0.8177  0.3915 -0.3508
 4396TIP3   OH213140   4.621   5.873   2.387 -0.0970  0.2810  0.5076
 4396TIP3    H113141   4.623   5.780   2.364 -0.0412  0.7433 -1.4780
 4396TIP3    H213142   4.530   5.891   2.408  0.4029 -0.9194  4.1271
 4397TIP3   OH213143   3.346   6.916   3.112  0.7682  0.4884  1.0391
 4397TIP3    H113144   3.330   7.010   3.108  0.6356  0.4032 -2.6088
 4397TIP3    H213145   3.261   6.878   3.134  0.3807  1.1183  0.6518
 4398TIP3   OH213146   5.242   3.612   4.055  0.2463  0.2821  0.0444
 4398TIP3    H113147   5.200   3.695   4.079  1.3712  1.4074 -1.7744
 4398TIP3    H213148   5.169   3.555   4.029 -0.6109  0.4021  2.0676
 4399TIP3   OH213149   5.420   7.053   2.223 -0.3681  0.1328 -0.3526
 4399TIP3    H113150   5.413   7.146   2.200  0.8296  0.2871 -0.1045
 4399TIP3    H213151   5.373   7.007   2.153  1.0969  0.7584 -1.7524
 4400TIP3   OH213152   5.011   5.733   2.618 -0.3127  0.1325 -0.7353
 4400TIP3    H113153   5.019   5.816   2.665 -0.0227  1.0654 -2.3899
 4400TIP3    H213154   4.922   5.703   2.637  0.2994 -0.2890  1.6214
 4401TIP3   OH213155   4.172   3.166   2.356  0.3029 -0.2859  0.2086
 4401TIP3    H113156   4.082   3.179   2.327  0.3461 -0.2294  0.0991
 4401TIP3    H213157   4.217   3.129   2.279  0.1153 -1.3453  0.6007
 4402TIP3   OH213158   5.209   5.401   2.189 -0.0868  0.9316 -0.0071
 4402TIP3    H113159   5.140   5.457   2.152 -2.2100 -0.8284  1.1832
 4402TIP3    H213160   5.198   5.317   2.145  0.4312  0.2321  1.1864
 4403TIP3   OH213161   7.403   1.704   1.153  0.6098 -0.0743  0.0871
 4403TIP3    H113162   7.369   1.663   1.074  0.9940  0.5707 -0.4148
 4403TIP3    H213163   7.488   1.662   1.167  0.1386 -0.8459  0.6809
 4404TIP3   OH213164   1.126   6.330   0.080  0.1212  0.3224 -0.6700
 4404TIP3    H113165   1.197   6.347   0.142 -0.8539  2.3142 -0.0347
 4404TIP3    H213166   1.118   6.411   0.030 -2.2061  0.4391 -0.1903
 4405TIP3   OH213167   1.306   5.113   1.492 -0.0596  0.4566 -0.2994
 4405TIP3    H113168   1.233   5.060   1.526 -0.6819  1.7766  0.4696
 4405TIP3    H213169   1.264   5.181   1.441  0.7688 -0.0634 -1.6921
 4406TIP3   OH213170   1.965   5.992   3.101  0.2544  0.3784  0.7237
 4406TIP3    H113171   1.904   5.930   3.140  1.3024 -0.0680  1.6862
 4406TIP3    H213172   2.035   6.000   3.166  1.9753 -0.2851 -1.0179
 4407TIP3   OH213173   2.702   6.964   1.451 -0.3142  0.1691 -0.6348
 4407TIP3    H113174   2.726   6.899   1.386  1.0720  2.6688 -2.7040
 4407TIP3    H213175   2.626   7.008   1.414  0.0494  1.1474 -0.2306
 4408TIP3   OH213176   4.471   1.100   1.042 -0.4775 -0.1709 -0.1489
 4408TIP3    H113177   4.409   1.060   1.103 -2.6699 -0.5536 -2.5418
 4408TIP3    H213178   4.511   1.026   0.997 -1.8584  0.1882 -2.0121
 4409TIP3   OH213179   7.616   1.098   1.573  0.6434  0.7459 -0.3357
 4409TIP3    H113180   7.580   1.014   1.547  1.1545  0.7115 -0.9287
 4409TIP3    H213181   7.705   1.079   1.603  0.9411  1.1461 -0.9549
 4410TIP3   OH213182   4.078   7.082   2.342 -0.2737  0.0137 -0.3718
 4410TIP3    H113183   4.088   7.138   2.419 -1.4621 -2.5020  1.6905
 4410TIP3    H213184   3.992   7.104   2.307  0.4497  1.4750 -1.3000
 4411TIP3   OH213185   3.851   1.464   2.764  0.0698 -0.1920 -0.3515
 4411TIP3    H113186   3.834   1.557   2.775  1.0489 -0.1070  0.5917
 4411TIP3    H213187   3.832   1.426   2.849 -2.6964 -1.2599 -1.3898
 4412TIP3   OH213188   3.371   4.472   2.459 -0.0962  0.2247  0.5230
 4412TIP3    H113189   3.299   4.519   2.419 -0.0340  0.4217  0.6414
 4412TIP3    H213190   3.332   4.391   2.492  0.0722 -0.5022 -0.9875
 4413TIP3   OH213191   5.123   5.999   2.714 -0.4725 -0.5024  0.6447
 4413TIP3    H113192   5.078   6.080   2.738 -1.8007 -1.2391  0.6482
 4413TIP3    H213193   5.197   5.995   2.775  1.6334  2.4322 -1.5648
 4414TIP3   OH213194   5.409   4.648   2.341 -0.5244  0.2042  0.3451
 4414TIP3    H113195   5.503   4.644   2.323 -0.9497 -0.4592 -1.8148
 4414TIP3    H213196   5.397   4.732   2.386  0.8505  1.1066 -0.9347
 4415TIP3   OH213197   2.439   4.069   0.585  0.3574 -0.6380  0.0412
 4415TIP3    H113198   2.359   4.091   0.633  0.4539  1.2906 -0.6183
 4415TIP3    H213199   2.409   4.040   0.499  0.2893 -1.6785  0.4172
 4416TIP3   OH213200   3.453   3.509   2.030 -0.2829  0.4212  0.1473
 4416TIP3    H113201   3.393   3.483   1.960 -0.8305  0.1628  0.7123
 4416TIP3    H213202   3.399   3.562   2.089  0.4135  1.4542 -0.1243
 4417TIP3   OH213203   2.698   7.199   3.402  0.3123 -0.5580 -0.2942
 4417TIP3    H113204   2.668   7.289   3.407 -0.2767 -0.8016  0.8639
 4417TIP3    H213205   2.783   7.200   3.447  1.3296 -0.1691 -2.1971
 4418TIP3   OH213206   5.045   5.223   1.021 -0.4851 -0.2556 -0.7685
 4418TIP3    H113207   5.121   5.282   1.021 -0.2757 -0.5207 -0.7334
 4418TIP3    H213208   4.970   5.281   1.009 -0.2091 -0.0848 -1.7300
 4419TIP3   OH213209   5.610   5.280   2.429 -0.1638 -0.2457 -0.0536
 4419TIP3    H113210   5.666   5.271   2.352  1.5535  2.0165  0.8432
 4419TIP3    H213211   5.670   5.270   2.503 -1.0895  1.2435  0.9463
 4420TIP3   OH213212   3.077   1.632   3.261 -0.0885 -0.6013 -0.1605
 4420TIP3    H113213   3.165   1.660   3.285 -0.5263  0.0940  0.6548
 4420TIP3    H213214   3.036   1.711   3.225 -0.2048 -1.0563 -1.0467
 4421TIP3   OH213215   2.650   5.251   1.438 -0.2038 -0.6899  0.2481
 4421TIP3    H113216   2.567   5.206   1.420 -0.3913 -0.1410 -0.2857
 4421TIP3    H213217   2.626   5.343   1.444  0.2204 -0.6219  1.0698
 4422TIP3   OH213218   5.937   6.232   2.588  0.5737 -0.3440 -0.1198
 4422TIP3    H113219   6.013   6.267   2.635  0.3149 -1.3277  1.0582
 4422TIP3    H213220   5.862   6.278   2.625  0.6912  1.8051 -2.4071
 4423TIP3   OH213221   3.208   7.093   3.967  0.9558  0.6583  0.2497
 4423TIP3    H113222   3.216   7.158   4.036  1.7968 -0.4281  1.2010
 4423TIP3    H213223   3.229   7.010   4.010 -0.7631 -0.3426 -0.7641
 4424TIP3   OH213224   2.791   5.468   3.956  0.6099 -0.2211 -0.1023
 4424TIP3    H113225   2.800   5.381   3.916  0.5823  0.0231 -0.6380
 4424TIP3    H213226   2.871   5.478   4.007  0.7934 -0.4028 -0.3489
 4425TIP3   OH213227   4.380   6.060   2.669  0.1322  0.3366  0.2798
 4425TIP3    H113228   4.385   5.982   2.612  0.1623 -0.2368  1.0597
 4425TIP3    H213229   4.311   6.113   2.630  0.5259  0.2055 -0.6159
 4426TIP3   OH213230   5.471   4.305   1.755 -0.3850 -0.5625 -0.5512
 4426TIP3    H113231   5.528   4.374   1.787  0.1092 -0.8360 -0.8441
 4426TIP3    H213232   5.389   4.350   1.734 -1.1508 -0.5388  2.2053
 4427TIP3   OH213233   1.966   6.446   2.040 -0.0302  0.1692  0.6136
 4427TIP3    H113234   1.935   6.359   2.016  0.1963  0.3094 -0.1793
 4427TIP3    H213235   2.048   6.456   1.992  0.9337  0.0459  2.1994
 4428TIP3   OH213236   4.231   5.342   4.692  0.1740  0.0293 -1.0216
 4428TIP3    H113237   4.299   5.275   4.698 -1.3425 -1.4687 -0.3172
 4428TIP3    H213238   4.260   5.411   4.752  2.0295  0.3156 -2.1776
 4429TIP3   OH213239   5.652   6.373   0.996 -0.1013 -0.5470 -0.2851
 4429TIP3    H113240   5.680   6.283   0.982  1.1716 -0.5939  2.3054
 4429TIP3    H213241   5.556   6.369   0.994 -0.0399 -1.4206 -3.1055
 4430TIP3   OH213242   3.593   3.628   1.495 -0.1442  0.0014 -0.0157
 4430TIP3    H113243   3.568   3.698   1.555 -0.2138 -1.3229  1.5480
 4430TIP3    H213244   3.654   3.574   1.546  0.6521 -0.5379 -1.5108
 4431TIP3   OH213245   2.476   5.149   1.707 -0.2418 -0.0383 -0.7245
 4431TIP3    H113246   2.568   5.165   1.725 -0.5531  2.0863 -0.9668
 4431TIP3    H213247   2.439   5.122   1.792  0.4297 -0.1243 -0.4608
 4432TIP3   OH213248   5.063   4.959   1.068 -0.5197 -0.2102  0.0093
 4432TIP3    H113249   5.102   4.933   0.984  2.5439 -0.2767  1.3723
 4432TIP3    H213250   5.084   5.051   1.077  1.7661 -0.8818  2.0045
 4433TIP3   OH213251   3.990   4.483   1.290  0.3387  0.1731  0.3039
 4433TIP3    H113252   4.007   4.497   1.196 -0.6479  1.5802  0.3278
 4433TIP3    H213253   3.926   4.412   1.292  1.1616 -0.5946 -0.0361
 4434TIP3   OH213254   2.545   6.568   4.933 -0.4620  0.1123  0.6641
 4434TIP3    H113255   2.544   6.572   5.028  0.1652  0.2021  0.6734
 4434TIP3    H213256   2.591   6.486   4.913 -0.6452  0.0638  0.4443
 4435TIP3   OH213257   2.822   4.173   4.719 -1.1976 -0.2246  0.2980
 4435TIP3    H113258   2.728   4.171   4.702 -0.7415 -1.9773 -2.2664
 4435TIP3    H213259   2.841   4.087   4.758 -0.2427 -0.9572 -1.7256
 4436TIP3   OH213260   2.500   6.419   4.051  0.6847  0.4615  0.7201
 4436TIP3    H113261   2.443   6.416   4.128  1.7431  0.2216  1.5094
 4436TIP3    H213262   2.546   6.335   4.053 -0.1321 -0.0387 -0.8457
 4437TIP3   OH213263   6.195   0.351   4.066 -0.4527  0.2042 -0.3778
 4437TIP3    H113264   6.214   0.401   3.987  1.0569  0.2116 -0.0290
 4437TIP3    H213265   6.172   0.417   4.131 -1.7543  0.1945 -0.8034
 4438TIP3   OH213266   3.897   4.745   1.406  0.2207 -0.1150  0.1114
 4438TIP3    H113267   3.810   4.721   1.375 -0.2267  1.5359  0.0160
 4438TIP3    H213268   3.889   4.838   1.429  1.9801  0.0735  0.0263
 4439TIP3   OH213269   2.907   7.453   0.081 -0.5314  0.0409 -0.4246
 4439TIP3    H113270   2.875   7.454   0.172 -1.0262 -0.6447 -0.5902
 4439TIP3    H213271   2.829   7.435   0.029 -0.1934  0.1702 -0.9710
 4440TIP3   OH213272   3.199   7.417   1.932  0.5282 -0.1389  0.2260
 4440TIP3    H113273   3.157   7.504   1.926  2.6171  0.7964 -1.2645
 4440TIP3    H213274   3.129   7.360   1.964 -2.1162  1.2317 -2.8371
 4441TIP3   OH213275   5.726   0.978   4.558 -0.5799 -0.5302  0.3198
 4441TIP3    H113276   5.773   0.895   4.547 -0.7247 -0.2403 -2.7942
 4441TIP3    H213277   5.758   1.033   4.487 -1.0207  1.8605  1.9407
 4442TIP3   OH213278   4.904   0.548   2.513  0.1740 -0.4759  0.7197
 4442TIP3    H113279   4.931   0.509   2.431  0.6432  0.9180  0.1948
 4442TIP3    H213280   4.963   0.623   2.525 -0.8390  0.2039  1.5767
 4443TIP3   OH213281   2.733   3.350   6.277  0.0114  0.5494 -0.4006
 4443TIP3    H113282   2.799   3.389   6.221  1.2871  0.5707  1.0759
 4443TIP3    H213283   2.697   3.423   6.327  0.1880  0.2854  0.1203
 4444TIP3   OH213284   3.507   4.570   1.103 -0.2755 -0.1187 -0.0176
 4444TIP3    H113285   3.422   4.593   1.067 -1.0183 -0.2236  1.6334
 4444TIP3    H213286   3.508   4.474   1.102  0.6636 -0.1053 -1.9375
 4445TIP3   OH213287   5.556   0.007   1.275  0.7430 -0.1469 -0.3145
 4445TIP3    H113288   5.501   0.046   1.206 -0.6604  0.2671  1.0257
 4445TIP3    H213289   5.555   0.071   1.346  0.0983 -1.7107  1.1005
 4446TIP3   OH213290   2.131   6.770   4.983 -0.0277 -0.0378  0.2308
 4446TIP3    H113291   2.089   6.846   5.023 -0.3656 -0.5422  0.8362
 4446TIP3    H213292   2.181   6.730   5.054  1.9057  0.8531 -0.5995
 4447TIP3   OH213293   4.153   7.006   1.272 -0.8426 -0.1678  1.1509
 4447TIP3    H113294   4.153   6.912   1.254  0.0738  0.0834 -0.2089
 4447TIP3    H213295   4.108   7.044   1.197 -1.4173  0.4576  1.8176
 4448TIP3   OH213296   4.864   4.813   1.179  0.1466 -0.0806 -0.2756
 4448TIP3    H113297   4.861   4.738   1.120  0.6469  0.1463 -0.5851
 4448TIP3    H213298   4.937   4.866   1.148  0.7633 -0.2372  0.8881
 4449TIP3   OH213299   2.573   5.891   2.257 -0.2730 -0.2687  0.5395
 4449TIP3    H113300   2.510   5.826   2.288 -0.2657 -0.0236  1.0670
 4449TIP3    H213301   2.653   5.841   2.242 -1.2976 -1.0654 -2.6045
 4450TIP3   OH213302   2.112   6.030   5.077  0.5834 -0.0703  0.2101
 4450TIP3    H113303   2.031   6.017   5.028 -0.0721  1.6507  0.7867
 4450TIP3    H213304   2.110   5.962   5.145  0.7046 -1.4195 -1.1102
 4451TIP3   OH213305   5.829   6.762   4.824  0.2852  0.4772 -0.1665
 4451TIP3    H113306   5.747   6.727   4.860 -0.4214 -0.2567 -2.4177
 4451TIP3    H213307   5.887   6.687   4.819 -0.2125  0.1983 -2.1570
 4452TIP3   OH213308   1.070   5.107   1.710 -0.3033  0.0193  0.0324
 4452TIP3    H113309   1.107   5.196   1.709 -0.0579 -0.0739  0.5409
 4452TIP3    H213310   1.035   5.097   1.799 -1.0115 -0.1185 -0.2634
 4453TIP3   OH213311   3.334   6.249   2.241 -0.7085  0.2718  0.2045
 4453TIP3    H113312   3.277   6.199   2.299  2.5829 -3.4128  0.5031
 4453TIP3    H213313   3.284   6.258   2.160 -1.9876 -2.2953  0.6586
 4454TIP3   OH213314   1.918   4.778   2.112 -0.5210  0.3609  0.3825
 4454TIP3    H113315   1.864   4.700   2.102 -0.3182  0.1548  0.8779
 4454TIP3    H213316   2.008   4.747   2.097 -0.6510  0.9831 -1.9019
 4455TIP3   OH213317   2.468   5.668   2.770 -0.0383 -0.0705 -0.3496
 4455TIP3    H113318   2.436   5.579   2.754  0.4177  0.2349 -3.1404
 4455TIP3    H213319   2.560   5.655   2.795 -0.9453 -0.6006  2.9216
 4456TIP3   OH213320   0.898   4.283   2.675 -0.0395  0.2135  0.3734
 4456TIP3    H113321   0.816   4.234   2.679  0.0494 -0.2735 -2.9255
 4456TIP3    H213322   0.877   4.362   2.626  1.4383  0.1047 -0.4634
 4457TIP3   OH213323   4.857   5.014   1.915 -0.5668 -0.7034 -0.2857
 4457TIP3    H113324   4.842   4.942   1.976 -1.2846  0.5589  1.0704
 4457TIP3    H213325   4.910   5.076   1.964 -1.6279  0.5778 -0.7309
 4458TIP3   OH213326   2.123   5.542   1.031  0.1609  0.0877 -0.6347
 4458TIP3    H113327   2.074   5.622   1.046  0.6688 -0.2870  3.3529
 4458TIP3    H213328   2.207   5.571   0.995 -0.0815  1.2312 -0.2829
 4459TIP3   OH213329   2.214   6.672   3.227 -0.1406  0.1519  0.2896
 4459TIP3    H113330   2.164   6.702   3.302  1.7287  1.3578  1.0890
 4459TIP3    H213331   2.184   6.727   3.154 -2.0349 -1.1017  0.0687
 4460TIP3   OH213332   5.194   4.847   4.307 -0.7779  0.1691  0.2238
 4460TIP3    H113333   5.267   4.856   4.245 -1.3481 -2.2438 -0.8755
 4460TIP3    H213334   5.117   4.843   4.251 -1.3316 -1.7447  1.0725
 4461TIP3   OH213335   4.144   4.573   2.984 -0.4510 -0.3478 -0.6293
 4461TIP3    H113336   4.165   4.483   2.957  0.2570 -0.0872 -0.9742
 4461TIP3    H213337   4.063   4.594   2.939 -0.0008 -0.4052 -1.4632
 4462TIP3   OH213338   2.342   4.239   4.500  0.4286 -0.3579  0.0519
 4462TIP3    H113339   2.295   4.272   4.424 -0.2568 -2.5809 -0.5120
 4462TIP3    H213340   2.274   4.199   4.555  1.2738 -1.0519  0.6051
 4463TIP3   OH213341   5.231   6.257   3.125 -0.3893  0.7530  0.2093
 4463TIP3    H113342   5.138   6.242   3.139 -0.5032  0.9066 -0.3786
 4463TIP3    H213343   5.271   6.171   3.131 -0.1981  0.9922  3.2274
 4464TIP3   OH213344   5.226   6.101   1.280  0.2684 -0.6309  0.2133
 4464TIP3    H113345   5.256   6.078   1.368 -0.5695  0.5653  0.8254
 4464TIP3    H213346   5.151   6.159   1.295  0.0673 -0.4944 -1.2878
 4465TIP3   OH213347   4.479   5.856   1.038 -0.1891  0.5133 -0.1565
 4465TIP3    H113348   4.480   5.869   0.943  0.5232 -1.1444 -0.3903
 4465TIP3    H213349   4.420   5.925   1.070 -3.5391 -1.2354 -2.1856
 4466TIP3   OH213350   6.094   4.193   2.474 -0.5844 -0.0759  0.3997
 4466TIP3    H113351   6.142   4.252   2.416  2.0946  0.9453  3.4769
 4466TIP3    H213352   6.157   4.125   2.497 -1.9456 -1.0895  1.2553
 4467TIP3   OH213353   4.033   4.673   1.988  0.1328  0.2372 -0.6103
 4467TIP3    H113354   3.976   4.746   2.011 -2.3574 -2.3652  1.9359
 4467TIP3    H213355   4.013   4.654   1.897 -1.1796  1.0426 -0.5013
 4468TIP3   OH213356   6.722   6.059   0.590 -0.4891 -0.1245  0.0103
 4468TIP3    H113357   6.810   6.026   0.570 -0.9988  0.0207 -2.6592
 4468TIP3    H213358   6.668   5.980   0.598 -0.1375 -0.2144  1.6761
 4469TIP3   OH213359   3.265   7.162   2.091 -0.1543  0.3877 -0.2854
 4469TIP3    H113360   3.184   7.199   2.055  0.4620  0.7652 -1.3105
 4469TIP3    H213361   3.322   7.152   2.015  1.6862  2.4786  0.7685
 4470TIP3   OH213362   3.111   6.394   1.028 -0.2937  0.3802  0.1406
 4470TIP3    H113363   3.037   6.454   1.019 -0.4638  0.7453  3.2506
 4470TIP3    H213364   3.072   6.307   1.031 -0.2723  0.2971 -1.7834
 4471TIP3   OH213365   5.780   4.103   2.080 -0.2421  0.1249  0.5112
 4471TIP3    H113366   5.846   4.033   2.085 -0.2250  0.2098  1.7016
 4471TIP3    H213367   5.825   4.180   2.115 -0.6158  0.4675  0.2430
 4472TIP3   OH213368   5.671   1.360   1.001  0.0764 -0.4947  0.1397
 4472TIP3    H113369   5.745   1.421   0.993  0.1234 -0.5321  0.2903
 4472TIP3    H213370   5.712   1.273   0.996 -0.2030 -0.5236 -2.1037
 4473TIP3   OH213371   5.643   7.162   0.847 -0.2615 -0.0135  0.1608
 4473TIP3    H113372   5.556   7.136   0.878 -1.4326  1.3559 -1.9066
 4473TIP3    H213373   5.696   7.083   0.856 -2.2701 -1.4818 -0.5708
 4474TIP3   OH213374   0.296   5.063   0.683 -0.0279 -0.2686 -0.6184
 4474TIP3    H113375   0.342   5.063   0.767  1.8190 -0.4170 -1.5931
 4474TIP3    H213376   0.298   5.154   0.654 -1.2550 -0.0990 -0.2113
 4475TIP3   OH213377   3.287   6.283   1.954 -0.3324 -0.9446 -0.4523
 4475TIP3    H113378   3.265   6.302   1.862  0.7492 -2.8094 -1.1343
 4475TIP3    H213379   3.382   6.293   1.958 -0.2829 -1.6680  0.2709
 4476TIP3   OH213380   1.418   0.190   0.979  0.5274 -0.0116 -0.0432
 4476TIP3    H113381   1.394   0.164   0.890 -0.2532 -0.5894  0.3333
 4476TIP3    H213382   1.338   0.228   1.016  0.7301 -0.1408  0.5445
 4477TIP3   OH213383   6.028   4.751   0.773  0.3225  0.0533  0.6470
 4477TIP3    H113384   6.052   4.671   0.726  0.0737 -0.0280  0.6567
 4477TIP3    H213385   5.997   4.810   0.705 -3.2066 -1.2217  1.0167
 4478TIP3   OH213386   3.024   5.103   0.561 -0.3820 -0.2723  0.3144
 4478TIP3    H113387   3.074   5.035   0.517 -0.1979 -0.3884  0.6958
 4478TIP3    H213388   3.022   5.176   0.500  4.0748  1.4414  2.0080
 4479TIP3   OH213389   5.354   5.890   2.559  0.0632 -0.1079  0.0852
 4479TIP3    H113390   5.379   5.908   2.649 -0.2636  0.3928  0.0769
 4479TIP3    H213391   5.259   5.899   2.557 -0.2440 -2.7183  0.2794
 4480TIP3   OH213392   4.020   0.984   6.194 -0.1229  0.2181 -0.1913
 4480TIP3    H113393   3.956   0.913   6.203  0.1224  0.0289  0.0715
 4480TIP3    H213394   4.103   0.939   6.174  0.4110  0.3066  1.7402
 4481TIP3   OH213395   7.346   0.439   4.016  0.6945 -0.0109  0.0717
 4481TIP3    H113396   7.284   0.475   3.952  0.6918  0.8700  0.5620
 4481TIP3    H213397   7.296   0.436   4.098  0.8688 -0.6134  0.1568
 4482TIP3   OH213398   3.741   6.670   0.916  0.1442 -0.0202 -0.5864
 4482TIP3    H113399   3.822   6.625   0.889  1.6956  0.5404  2.9102
 4482TIP3    H213400   3.762   6.763   0.908  0.1440  0.1340  1.0657
 4483TIP3   OH213401   5.446   7.263   1.489  0.0674 -0.0188 -0.6109
 4483TIP3    H113402   5.379   7.331   1.478  0.2461 -0.0872 -2.1652
 4483TIP3    H213403   5.435   7.233   1.579 -0.4344  1.6320 -0.1103
 4484TIP3   OH213404   6.034   5.881   3.412 -0.1505 -0.1105  0.0600
 4484TIP3    H113405   6.103   5.873   3.346 -0.7237 -1.6471 -0.3489
 4484TIP3    H213406   6.038   5.974   3.439  2.3829 -0.2678  0.3964
 4485TIP3   OH213407   5.050   5.345   2.447  0.6163  0.5543  0.2320
 4485TIP3    H113408   5.101   5.342   2.366  1.5418  1.7962  0.7523
 4485TIP3    H213409   5.111   5.315   2.514 -0.9865 -3.2810  0.1097
 4486TIP3   OH213410   3.781   7.065   1.291 -0.4107  0.0819  0.4836
 4486TIP3    H113411   3.816   7.123   1.358 -0.9775  0.0231  0.8344
 4486TIP3    H213412   3.846   7.068   1.220 -0.8748  1.8707  0.0951
 4487TIP3   OH213413   4.649   6.906   0.059 -0.0187  0.3161  0.4120
 4487TIP3    H113414   4.555   6.916   0.075 -0.0614  0.3213  0.1638
 4487TIP3    H213415   4.672   6.982   0.006 -0.3436 -0.8620 -1.4953
 4488TIP3   OH213416   7.467   5.685   1.680 -0.7623  0.5746 -0.1553
 4488TIP3    H113417   7.504   5.768   1.711  1.7258 -1.4887  2.6672
 4488TIP3    H213418   7.534   5.651   1.620  0.4931 -1.6183  2.4134
 4489TIP3   OH213419   5.121   4.893   0.498  0.1147  0.1626 -0.6069
 4489TIP3    H113420   5.188   4.953   0.531  0.2800  0.0774 -0.7936
 4489TIP3    H213421   5.039   4.940   0.510  0.1136 -0.1010  0.4983
 4490TIP3   OH213422   5.767   6.903   2.071  0.1676  0.0856 -0.3468
 4490TIP3    H113423   5.764   6.926   1.978 -1.3680 -0.2354 -0.3863
 4490TIP3    H213424   5.834   6.835   2.077 -0.3933 -0.5452 -1.3526
 4491TIP3   OH213425   3.896   7.078   2.644  0.0837 -0.4472 -0.7841
 4491TIP3    H113426   3.832   7.148   2.628  1.1892  0.0837 -3.0455
 4491TIP3    H213427   3.978   7.125   2.662  0.2982 -1.1443  0.0516
 4492TIP3   OH213428   4.963   3.303   4.191  0.3877  0.4856  0.2343
 4492TIP3    H113429   4.874   3.271   4.204  0.0954  0.9851 -0.5375
 4492TIP3    H213430   5.018   3.225   4.204 -0.0876  0.3461  1.5522
 4493TIP3   OH213431   7.347   0.322   1.615 -0.4524  0.4358  0.4941
 4493TIP3    H113432   7.298   0.270   1.678 -0.0971  0.4302  0.7688
 4493TIP3    H213433   7.415   0.366   1.668  0.1972 -0.0048  0.0280
 4494TIP3   OH213434   6.102   5.558   0.984 -0.1657 -0.4640  0.4279
 4494TIP3    H113435   6.173   5.496   0.999 -0.9407 -1.8629 -1.4736
 4494TIP3    H213436   6.121   5.596   0.899 -0.5321  0.7641  0.8894
 4495TIP3   OH213437   5.596   5.624   0.470  0.2076  0.2957  0.3877
 4495TIP3    H113438   5.665   5.560   0.487 -0.4636  0.1490  2.7077
 4495TIP3    H213439   5.637   5.687   0.409  2.5609  0.4758  2.0713
 4496TIP3   OH213440   1.619   0.583   2.155 -0.3225  0.3708 -0.4044
 4496TIP3    H113441   1.588   0.611   2.069 -1.8399 -1.4901 -0.5004
 4496TIP3    H213442   1.658   0.662   2.193 -1.0042  1.6084 -2.1770
 4497TIP3   OH213443   2.982   4.661   5.177 -0.5127 -0.3831 -0.0348
 4497TIP3    H113444   3.071   4.678   5.207  0.0154  0.7079 -2.1223
 4497TIP3    H213445   2.932   4.646   5.257  1.4368 -0.5095  1.1900
 4498TIP3   OH213446   6.300   7.384   2.174  0.4776  0.1148 -0.1085
 4498TIP3    H113447   6.211   7.368   2.143 -0.4788 -0.7915  3.0052
 4498TIP3    H213448   6.349   7.306   2.147 -0.4005 -0.7876  0.8932
 4499TIP3   OH213449   5.330   5.661   0.928  0.2470  0.3056  0.3861
 4499TIP3    H113450   5.392   5.668   1.001  0.6409 -0.9350  0.1852
 4499TIP3    H213451   5.384   5.673   0.849  0.2196 -0.6300  0.2173
 4500TIP3   OH213452   1.702   0.743   2.371  0.2592  0.2599 -0.6493
 4500TIP3    H113453   1.666   0.831   2.382  3.7080  1.8461 -1.4492
 4500TIP3    H213454   1.704   0.706   2.459 -0.8843  1.0722 -0.2672
 4501TIP3   OH213455   5.630   7.152   1.227 -0.0901  0.2938  0.1409
 4501TIP3    H113456   5.561   7.168   1.292  0.0564 -0.0415  0.3811
 4501TIP3    H213457   5.661   7.064   1.247  0.8552  0.6888  0.4527
 4502TIP3   OH213458   7.161   5.140   0.909  0.3093  0.1475  0.2796
 4502TIP3    H113459   7.202   5.147   0.823  0.9718  0.5410  0.6255
 4502TIP3    H213460   7.074   5.179   0.897  0.4997  0.4498 -0.1392
 4503TIP3   OH213461   4.463   7.096   3.176 -0.0165  0.0157 -0.1364
 4503TIP3    H113462   4.545   7.083   3.224 -0.1345  0.0496  0.0750
 4503TIP3    H213463   4.423   7.009   3.173 -0.4741  0.1921  0.6770
 4504TIP3   OH213464   3.258   6.587   0.810  0.0160  0.0313 -0.3458
 4504TIP3    H113465   3.207   6.578   0.890 -0.1556  0.7307 -0.3725
 4504TIP3    H213466   3.304   6.671   0.820 -0.6649  0.5376 -1.3476
 4505TIP3   OH213467   7.835   6.063   1.551  0.0906  0.0427 -0.7601
 4505TIP3    H113468   7.832   6.137   1.491  1.8289 -0.2725 -1.2400
 4505TIP3    H213469   7.885   6.095   1.626  0.6831 -0.5897 -0.8866
 4506TIP3   OH213470   6.810   6.893   1.362 -0.0083 -0.1376  0.7068
 4506TIP3    H113471   6.880   6.843   1.402  0.7867  0.3461 -0.0555
 4506TIP3    H213472   6.736   6.832   1.357  0.9411 -1.2243 -0.2026
 4507TIP3   OH213473   4.833   7.137   0.585 -0.0046  0.8550  0.2267
 4507TIP3    H113474   4.790   7.176   0.661  0.1495  2.1073 -0.3095
 4507TIP3    H213475   4.771   7.072   0.552 -0.4037  0.8672  0.9530
 4508TIP3   OH213476   4.141   4.097   3.342 -0.2463 -0.0249  0.1528
 4508TIP3    H113477   4.125   4.121   3.251  0.3835 -1.7490 -0.4260
 4508TIP3    H213478   4.096   4.013   3.353  0.5449 -0.3286  1.1287
 4509TIP3   OH213479   6.649   0.046   2.456 -0.0273  0.1611 -0.1270
 4509TIP3    H113480   6.588   0.072   2.387 -2.0035 -0.4545  1.3326
 4509TIP3    H213481   6.678   0.128   2.495 -0.1363  0.4522 -0.6531
 4510TIP3   OH213482   5.926   0.644   3.452 -0.1537 -0.1609  0.3747
 4510TIP3    H113483   5.994   0.585   3.483 -0.2587  0.0277  0.9692
 4510TIP3    H213484   5.934   0.642   3.356  0.3652 -0.5105  0.4249
 4511TIP3   OH213485   5.176   5.145   0.544 -0.1134  0.2369  0.2598
 4511TIP3    H113486   5.153   5.160   0.453 -0.4594  0.8723  0.4471
 4511TIP3    H213487   5.100   5.176   0.593  0.5073  0.9056  0.8099
 4512TIP3   OH213488   7.509   0.417   1.814  0.1509 -1.1168  0.1515
 4512TIP3    H113489   7.592   0.444   1.774  0.4673 -0.1438  1.4460
 4512TIP3    H213490   7.484   0.490   1.870 -2.0320 -1.0383 -0.8598
 4513TIP3   OH213491   5.818   2.206   6.404  0.2278 -0.4033  0.9098
 4513TIP3    H113492   5.768   2.221   6.484 -0.1374  0.1568  0.5816
 4513TIP3    H213493   5.896   2.158   6.432  0.8407  1.0975  1.8176
 4514TIP3   OH213494   1.202   5.108   6.462 -0.9473 -0.2013 -0.3624
 4514TIP3    H113495   1.265   5.082   6.394 -0.9362 -0.8879 -0.0889
 4514TIP3    H213496   1.159   5.185   6.426  0.4830  0.6522 -0.2997
 4515TIP3   OH213497   3.487   5.286   1.161  0.3110  0.9727  0.2603
 4515TIP3    H113498   3.454   5.197   1.169  0.3982  0.9856  0.7843
 4515TIP3    H213499   3.427   5.329   1.100 -1.0057  1.1729  1.6687
 4516TIP3   OH213500   4.999   6.297   1.324 -0.0276  0.3142  0.0815
 4516TIP3    H113501   4.976   6.359   1.255 -0.8880 -0.4587 -0.3446
 4516TIP3    H213502   4.915   6.266   1.357  0.3820 -2.0998 -1.0596
 4517TIP3   OH213503   7.503   7.056   0.632 -0.0570 -0.2145  0.2776
 4517TIP3    H113504   7.447   7.110   0.689 -0.2992 -0.5272  0.3355
 4517TIP3    H213505   7.559   7.008   0.693 -0.6705 -0.9388  0.2737
 4518TIP3   OH213506   5.175   7.390   2.932 -0.4346 -0.3768  0.4158
 4518TIP3    H113507   5.231   7.330   2.883 -1.2292 -1.1762  0.4884
 4518TIP3    H213508   5.135   7.445   2.866 -1.0044 -1.0297  0.2155
 4519TIP3   OH213509   5.857   5.962   1.509 -0.4493  0.2822 -0.2211
 4519TIP3    H113510   5.832   6.054   1.509  1.1565  0.7240 -0.9642
 4519TIP3    H213511   5.777   5.916   1.534 -1.5519  1.7921 -0.9173
 4520TIP3   OH213512   5.745   6.143   1.863  0.3445 -0.3759 -0.3516
 4520TIP3    H113513   5.751   6.050   1.885 -2.0309 -0.6233 -0.5940
 4520TIP3    H213514   5.836   6.173   1.863  1.2178 -2.8341 -0.8875
 4521TIP3   OH213515   6.853   6.594   1.322 -0.1358  0.4269 -0.0601
 4521TIP3    H113516   6.870   6.513   1.275  0.1251 -0.6794  1.9075
 4521TIP3    H213517   6.760   6.612   1.306 -0.2840 -0.4519 -0.2153
 4522TIP3   OH213518   6.310   6.966   0.226  0.2172 -0.2676 -0.4014
 4522TIP3    H113519   6.350   7.048   0.195 -0.1947 -0.5460 -1.6605
 4522TIP3    H213520   6.309   6.909   0.150 -1.3143 -0.7570 -0.0231
 4523TIP3   OH213521   3.218   6.389   1.655 -0.1441  0.4122  0.2088
 4523TIP3    H113522   3.207   6.430   1.569 -3.0404  0.3815  0.4909
 4523TIP3    H213523   3.270   6.311   1.638 -2.6701 -0.8978 -1.9696
 4524TIP3   OH213524   0.259   3.454   1.306  0.6974 -0.1421 -0.1857
 4524TIP3    H113525   0.270   3.424   1.396  0.0735  2.2854  0.7414
 4524TIP3    H213526   0.177   3.414   1.277  0.4009 -0.1650  0.6647
 4525TIP3   OH213527   5.417   6.217   1.989  0.0063  0.0163  0.1872
 4525TIP3    H113528   5.367   6.148   1.945 -0.3991  0.5135 -0.1432
 4525TIP3    H213529   5.500   6.220   1.942 -0.0285 -0.1502  0.1141
 4526TIP3   OH213530   7.474   5.439   0.846 -0.3936 -0.0897 -0.0855
 4526TIP3    H113531   7.510   5.507   0.903 -0.8189  0.6368 -0.6826
 4526TIP3    H213532   7.478   5.359   0.899  0.2527  0.3618  0.5614
 4527TIP3   OH213533   6.164   6.098   0.875  0.0863 -0.6841 -0.8615
 4527TIP3    H113534   6.166   6.102   0.779  0.9823  0.1782 -0.8173
 4527TIP3    H213535   6.093   6.159   0.899  0.6687  0.0318 -0.9373
 4528TIP3   OH213536   7.871   1.175   0.345 -0.2048  0.1925 -0.0030
 4528TIP3    H113537   7.787   1.131   0.339 -0.4030  0.5796 -0.0975
 4528TIP3    H213538   7.880   1.222   0.262 -0.0940  0.5005  0.1800
 4529TIP3   OH213539   1.912   1.904   4.130 -0.0109 -0.1408  0.2122
 4529TIP3    H113540   1.847   1.967   4.098 -0.1439 -0.3866 -0.0012
 4529TIP3    H213541   1.880   1.878   4.216  0.1848  0.2848  0.4175
 4530TIP3   OH213542   4.377   7.319   1.164  0.4948  0.6279  0.0117
 4530TIP3    H113543   4.398   7.302   1.072  0.7109  1.5800 -0.1164
 4530TIP3    H213544   4.422   7.248   1.211 -1.0724 -0.8970 -0.7312
 4531TIP3   OH213545   4.959   5.467   0.324 -0.7700 -0.1238  1.0317
 4531TIP3    H113546   4.954   5.527   0.250 -1.4943 -2.9806 -1.3114
 4531TIP3    H213547   4.869   5.461   0.356 -0.8187 -0.5447  0.8094
 4532TIP3   OH213548   7.313   0.135   2.349  0.0302  0.0770 -0.0552
 4532TIP3    H113549   7.383   0.199   2.336 -0.7004  0.5352 -1.9966
 4532TIP3    H213550   7.250   0.180   2.405 -0.5586  1.1330 -1.5427
 4533TIP3   OH213551   3.729   5.370   1.205  0.0317 -0.4794  0.6205
 4533TIP3    H113552   3.639   5.351   1.178 -0.3087 -0.4931  1.7592
 4533TIP3    H213553   3.765   5.419   1.131 -1.6997  1.7302  1.1836
 4534TIP3   OH213554   3.626   5.342   2.588  0.1782  0.2171  0.2977
 4534TIP3    H113555   3.627   5.391   2.507  0.9558  1.6409  1.1608
 4534TIP3    H213556   3.706   5.290   2.587  0.1737  0.2148  0.1536
 4535TIP3   OH213557   4.235   5.738   0.441  0.6951 -0.4485 -0.1656
 4535TIP3    H113558   4.278   5.724   0.525  1.4001 -0.1258 -0.4724
 4535TIP3    H213559   4.296   5.703   0.377 -0.2011 -1.4616 -0.4973
 4536TIP3   OH213560   4.377   5.007   3.775  0.6136 -0.7546 -0.0824
 4536TIP3    H113561   4.418   4.973   3.855 -0.3444 -0.5842  0.4969
 4536TIP3    H213562   4.446   5.057   3.732  0.9344 -0.2018  1.0419
 4537TIP3   OH213563   4.668   6.332   0.123  0.3538 -0.0228  0.3171
 4537TIP3    H113564   4.756   6.367   0.115  0.1787  0.2132 -0.6572
 4537TIP3    H213565   4.652   6.287   0.040  0.0820 -1.2681  1.0300
 4538TIP3   OH213566   5.428   7.072   1.011  0.3428  0.7764  0.7514
 4538TIP3    H113567   5.452   7.122   1.089 -1.9339  0.6874  1.5579
 4538TIP3    H213568   5.337   7.047   1.026  0.3025 -0.4432 -1.3223
 4539TIP3   OH213569   6.286   5.811   1.165 -0.2931  0.3069  0.3670
 4539TIP3    H113570   6.289   5.906   1.168 -0.5962  0.4001 -1.5690
 4539TIP3    H213571   6.268   5.790   1.073 -4.1007 -1.5153  1.4223
 4540TIP3   OH213572   5.344   7.454   3.339 -0.5971 -0.0528  0.0038
 4540TIP3    H113573   5.315   7.481   3.426 -0.1605 -1.1198  0.4880
 4540TIP3    H213574   5.420   7.398   3.355  0.8484  1.5093 -1.1660
 4541TIP3   OH213575   3.199   6.182   2.688 -0.1312 -0.0710  0.4516
 4541TIP3    H113576   3.281   6.208   2.729  1.0851 -1.9578 -0.6989
 4541TIP3    H213577   3.165   6.113   2.745 -0.8998  0.6616  0.8901
 4542TIP3   OH213578   3.459   7.131   1.892  0.0308 -0.0380  0.4988
 4542TIP3    H113579   3.483   7.188   1.819 -0.5335 -0.4728 -0.0323
 4542TIP3    H213580   3.409   7.060   1.851 -0.7078 -0.0274  1.3613
 4543TIP3   OH213581   5.001   6.296   2.489  0.0039 -0.6444 -0.3972
 4543TIP3    H113582   5.096   6.299   2.505 -0.3101 -2.6036  2.3104
 4543TIP3    H213583   4.986   6.210   2.451 -1.0843 -1.9901  2.8568
 4544TIP3   OH213584   7.460   6.137   0.447  0.2319 -0.2500 -0.1415
 4544TIP3    H113585   7.366   6.149   0.433  0.2931  3.1500  1.8093
 4544TIP3    H213586   7.501   6.207   0.398  1.6736 -0.8681  0.1497
 4545TIP3   OH213587   0.737   0.969   0.201 -0.9861  0.1574 -0.1113
 4545TIP3    H113588   0.656   0.932   0.167 -0.7296 -0.7046  0.1885
 4545TIP3    H213589   0.720   1.063   0.210 -1.1082  0.3747 -2.4535
 4546TIP3   OH213590   0.755   1.080   1.161  0.5482  0.2049 -0.0105
 4546TIP3    H113591   0.663   1.102   1.177  0.7209  1.2886 -0.4729
 4546TIP3    H213592   0.782   1.031   1.238  0.1240  1.5436  1.0019
 4547TIP3   OH213593   4.332   5.686   0.754 -0.1740 -1.0024  0.2401
 4547TIP3    H113594   4.315   5.592   0.745  1.8132 -1.5750  1.8802
 4547TIP3    H213595   4.262   5.718   0.810 -2.0301 -1.0703 -1.9834
 4548TIP3   OH213596   4.224   6.622   1.846 -0.4979 -0.0527 -0.1852
 4548TIP3    H113597   4.183   6.651   1.765 -1.8395  1.4374  1.0009
 4548TIP3    H213598   4.306   6.581   1.818 -0.3871  1.4659 -2.2068
 4549TIP3   OH213599   4.737   5.931   0.786 -0.0957  0.5674 -0.0021
 4549TIP3    H113600   4.685   6.006   0.759  0.7573  0.9419 -0.6185
 4549TIP3    H213601   4.800   5.967   0.848 -1.1674 -0.0504  1.4813
 4550TIP3   OH213602   6.281   0.034   2.107 -0.0026  0.2160 -0.3285
 4550TIP3    H113603   6.190   0.054   2.084  0.3432  0.0548 -1.9558
 4550TIP3    H213604   6.287  -0.061   2.099  0.3755  0.2562 -0.5244
 4551TIP3   OH213605   3.363   6.921   0.468 -0.0379 -0.3020 -0.1915
 4551TIP3    H113606   3.452   6.953   0.483  0.4806 -1.2895 -1.1074
 4551TIP3    H213607   3.330   6.975   0.397 -1.4413  2.3962  2.4067
 4552TIP3   OH213608   6.613   1.104   0.967 -0.0102  0.1172 -0.1145
 4552TIP3    H113609   6.623   1.141   1.055  1.7300 -1.7702  0.4962
 4552TIP3    H213610   6.562   1.024   0.980 -1.5776  0.9298 -1.1149
 4553TIP3   OH213611   6.046   2.642   5.974 -0.1229 -0.4321 -0.1203
 4553TIP3    H113612   6.078   2.573   5.916 -0.3297 -0.9078  0.3330
 4553TIP3    H213613   6.032   2.599   6.058  1.9590  0.6273  0.8172
 4554TIP3   OH213614   7.019   6.968   2.591 -0.8035  0.1297 -0.0129
 4554TIP3    H113615   6.945   6.971   2.651 -1.3341  1.1125 -0.7001
 4554TIP3    H213616   7.037   7.059   2.570  0.6619 -0.0967  0.2116
 4555TIP3   OH213617   1.906   3.636   6.338 -0.1613  0.5453  0.0455
 4555TIP3    H113618   1.988   3.680   6.315  0.7428 -0.8656  0.4491
 4555TIP3    H213619   1.838   3.700   6.319  1.0330  1.7317 -0.3436
 4556TIP3   OH213620   2.469   5.956   1.332  0.8566 -0.3854  0.5226
 4556TIP3    H113621   2.508   5.878   1.371  0.1775 -1.1445 -0.2947
 4556TIP3    H213622   2.536   6.023   1.339  1.6523 -1.2008  0.7167
 4557TIP3   OH213623   4.414   6.371   6.461 -0.3206 -0.8968 -0.2667
 4557TIP3    H113624   4.419   6.402   6.371 -0.2774 -1.4793 -0.4664
 4557TIP3    H213625   4.427   6.276   6.455  1.4804 -0.7253  0.5192
 4558TIP3   OH213626   5.605   5.483   0.937  0.1600  0.0005 -0.7778
 4558TIP3    H113627   5.690   5.479   0.982 -0.8142 -0.2935  1.0876
 4558TIP3    H213628   5.544   5.512   1.004 -1.0154  1.4058 -2.4376
 4559TIP3   OH213629   2.515   6.680   4.344  0.6665  0.2686  0.1084
 4559TIP3    H113630   2.569   6.660   4.267 -0.1401  2.1628 -0.9922
 4559TIP3    H213631   2.535   6.772   4.364 -1.7933  0.9000 -0.0881
 4560TIP3   OH213632   1.358   4.600   6.323 -0.0240  0.4483  0.2731
 4560TIP3    H113633   1.338   4.521   6.272  0.1474 -0.7026  1.9631
 4560TIP3    H213634   1.372   4.569   6.412 -0.8576  2.5066  1.1610
 4561TIP3   OH213635   5.294   6.994   1.986  0.0827 -0.2735  0.2211
 4561TIP3    H113636   5.210   6.955   1.963 -0.2680  0.4109  0.3202
 4561TIP3    H213637   5.339   7.005   1.902  0.3607 -1.2675  0.2304
 4562TIP3   OH213638   6.205   7.378   3.207  0.1886 -0.3629 -0.4070
 4562TIP3    H113639   6.280   7.354   3.153  0.5171 -1.8379  0.6752
 4562TIP3    H213640   6.129   7.348   3.157  0.3397  0.6194 -1.2394
 4563TIP3   OH213641   4.112   6.324   2.206  0.2653 -0.0194  0.2798
 4563TIP3    H113642   4.198   6.290   2.183 -0.4139 -0.1351 -2.2172
 4563TIP3    H213643   4.120   6.419   2.196 -0.5817 -0.2013 -2.5552
 4564TIP3   OH213644   1.216   0.290   1.427 -0.1978 -0.0569 -0.2778
 4564TIP3    H113645   1.160   0.271   1.352  0.0163 -1.6891 -0.0475
 4564TIP3    H213646   1.264   0.209   1.442  3.9470  1.9809 -1.8742
 4565TIP3   OH213647   1.523   2.768   6.409  0.4487  0.4100 -0.1726
 4565TIP3    H113648   1.529   2.841   6.469  0.8328  0.2428 -0.0061
 4565TIP3    H213649   1.611   2.732   6.405  0.5098  0.6301 -1.1044
 4566TIP3   OH213650   4.086   3.835   5.866 -0.2132  0.6889  0.5036
 4566TIP3    H113651   4.059   3.770   5.801  1.7095  0.4545 -0.0802
 4566TIP3    H213652   4.181   3.840   5.858 -0.1084  1.8973  2.1439
 4567TIP3   OH213653   0.742   0.129   1.903 -0.3050  0.2347 -0.4672
 4567TIP3    H113654   0.699   0.192   1.961  0.5357  1.1856 -0.8687
 4567TIP3    H213655   0.678   0.112   1.834 -0.4846  0.7391 -0.4248
 4568TIP3   OH213656   3.911   5.028   1.039  0.1136  0.1387 -0.1572
 4568TIP3    H113657   3.816   5.035   1.038  0.0268 -0.9655 -0.4086
 4568TIP3    H213658   3.929   4.941   1.074  1.0272  0.2999 -0.1993
 4569TIP3   OH213659   3.544   5.509   0.305  0.0365  0.7084 -0.3652
 4569TIP3    H113660   3.617   5.456   0.274 -2.1724 -0.9199 -2.9900
 4569TIP3    H213661   3.494   5.530   0.226 -2.2016  1.9916  1.3286
 4570TIP3   OH213662   4.922   6.732   1.016  0.1694  0.1230  0.0917
 4570TIP3    H113663   5.007   6.757   1.052  0.5151 -0.1331 -0.5522
 4570TIP3    H213664   4.884   6.814   0.985  0.9488 -0.0183 -1.2581
 4571TIP3   OH213665   5.731   5.829   1.930 -0.0051  0.1473  0.6345
 4571TIP3    H113666   5.665   5.810   1.996  0.8659  0.4921  1.6086
 4571TIP3    H213667   5.740   5.747   1.881 -1.3119  0.1691  0.3512
 4572TIP3   OH213668   2.527   3.592   5.022  0.1652 -0.2851 -0.1870
 4572TIP3    H113669   2.538   3.511   4.972  0.5221  0.7579 -1.8054
 4572TIP3    H213670   2.496   3.562   5.108 -0.6909 -2.0685 -1.0856
 4573TIP3   OH213671   4.355   7.010   2.191  0.0732  0.3337  0.3302
 4573TIP3    H113672   4.340   6.921   2.158  0.8307  0.7571 -1.1950
 4573TIP3    H213673   4.271   7.037   2.226 -0.2014 -0.9387  0.6797
 4574TIP3   OH213674   6.891   6.373   1.176 -0.4645  0.2954  0.1800
 4574TIP3    H113675   6.968   6.398   1.126 -0.5682 -1.3253 -0.8605
 4574TIP3    H213676   6.820   6.376   1.112 -0.3828 -3.0871 -0.1539
 4575TIP3   OH213677   3.123   1.966   6.306 -0.6270 -0.2502  0.2375
 4575TIP3    H113678   3.094   1.976   6.216 -1.4977 -0.3479  0.5020
 4575TIP3    H213679   3.084   1.883   6.335 -1.1832  0.2776  1.0215
 4576TIP3   OH213680   3.816   6.778   1.626  0.0546  0.1911  0.1633
 4576TIP3    H113681   3.758   6.785   1.550 -0.4758 -0.1319  0.5370
 4576TIP3    H213682   3.901   6.810   1.594 -0.3532  0.7749 -0.3507
 4577TIP3   OH213683   5.172   3.499   1.730  0.0967  0.1659 -0.7208
 4577TIP3    H113684   5.155   3.416   1.774  0.7262  0.2581 -0.3039
 4577TIP3    H213685   5.165   3.479   1.636  1.2561 -0.5750 -0.6508
 4578TIP3   OH213686   5.867   6.544   3.514  0.2831  0.1819 -0.2819
 4578TIP3    H113687   5.778   6.517   3.490 -0.0762  0.0060  1.2075
 4578TIP3    H213688   5.855   6.618   3.573  1.0567 -0.9473  1.3205
 4579TIP3   OH213689   6.104   5.330   0.095 -0.5123  0.1623 -0.5464
 4579TIP3    H113690   6.163   5.307   0.167 -0.1196 -0.8519 -1.1773
 4579TIP3    H213691   6.150   5.399   0.048 -0.1400 -0.1430 -0.6317
 4580TIP3   OH213692   5.370   0.893   0.851 -0.2444 -0.4424 -0.0820
 4580TIP3    H113693   5.336   0.980   0.873 -0.8290 -0.4288 -0.9955
 4580TIP3    H213694   5.370   0.892   0.756  2.5751 -0.3689 -0.1041
 4581TIP3   OH213695   4.253   2.385   6.223 -0.3174 -0.0005 -0.2532
 4581TIP3    H113696   4.276   2.454   6.285 -1.4296  0.8618 -0.7798
 4581TIP3    H213697   4.289   2.415   6.140 -1.9399  0.6089 -0.7589
 4582TIP3   OH213698   5.499   5.924   2.316 -0.1387 -0.0628  0.2643
 4582TIP3    H113699   5.547   5.991   2.365 -1.6579  1.5100 -0.3280
 4582TIP3    H213700   5.441   5.884   2.381  1.1558 -1.2301  0.7415
 4583TIP3   OH213701   3.599   4.088   0.242 -0.4839 -0.1136  0.4140
 4583TIP3    H113702   3.539   4.078   0.316  1.4918 -1.4692  1.8866
 4583TIP3    H213703   3.678   4.042   0.269  0.2570 -0.7100 -2.5971
 4584TIP3   OH213704   6.355   6.229   0.444  0.1598  0.0646  0.5871
 4584TIP3    H113705   6.262   6.208   0.448  0.2094 -0.7474 -1.4553
 4584TIP3    H213706   6.366   6.269   0.357  1.9017 -0.9510  0.3232
 4585TIP3   OH213707   7.418   0.393   0.586 -0.2936  0.0682 -0.0579
 4585TIP3    H113708   7.459   0.345   0.514  0.4884 -0.7183  0.8988
 4585TIP3    H213709   7.427   0.485   0.562  0.0030 -0.1828 -0.9362
 4586TIP3   OH213710   4.681   6.666   3.759 -0.5126 -0.1858 -0.2600
 4586TIP3    H113711   4.593   6.665   3.722 -1.1465  1.4830  1.1580
 4586TIP3    H213712   4.715   6.753   3.738 -0.3201  0.2383  1.7648
 4587TIP3   OH213713   5.581   6.852   2.649 -0.0052 -0.1001  0.1552
 4587TIP3    H113714   5.642   6.926   2.654 -0.8273  0.6539 -0.8012
 4587TIP3    H213715   5.515   6.879   2.586 -2.2772 -0.2146  2.4109
 4588TIP3   OH213716   3.984   7.180   0.335  0.4141  0.0239  0.2442
 4588TIP3    H113717   4.061   7.128   0.309  0.4144  0.3035 -0.3144
 4588TIP3    H213718   3.909   7.128   0.305  0.4168  0.3882 -0.4113
 4589TIP3   OH213719   5.309   5.829   3.156  0.2624  0.3801  0.1353
 4589TIP3    H113720   5.252   5.874   3.218  0.6778  0.2028  0.6425
 4589TIP3    H213721   5.386   5.804   3.207  1.2478  1.5167 -0.7715
 4590TIP3   OH213722   4.682   6.383   1.932 -0.6619 -0.0658 -0.2462
 4590TIP3    H113723   4.677   6.303   1.984  2.4931  0.1375  0.4550
 4590TIP3    H213724   4.698   6.352   1.843  0.1309 -0.2437 -0.0469
 4591TIP3   OH213725   6.823   0.272   1.709  0.4391  0.1545  0.0164
 4591TIP3    H113726   6.779   0.277   1.794  0.1476  0.6232 -0.1572
 4591TIP3    H213727   6.831   0.179   1.691 -3.0915  0.0340 -1.2720
 4592TIP3   OH213728   2.346   7.340   0.712  0.4451  0.3369 -0.2914
 4592TIP3    H113729   2.343   7.251   0.675  1.3437 -0.3806  1.2880
 4592TIP3    H213730   2.353   7.397   0.635  0.5292 -0.9954 -1.3079
 4593TIP3   OH213731   5.777   7.182   2.043 -0.7019  0.1064  0.1187
 4593TIP3    H113732   5.775   7.097   2.088 -0.5161  0.6935  1.2430
 4593TIP3    H213733   5.757   7.246   2.111  2.1119  1.2392 -0.0414
 4594TIP3   OH213734   6.157   4.436   1.441 -0.1246  0.2152  0.5115
 4594TIP3    H113735   6.127   4.486   1.517 -1.5974  1.2600 -0.7144
 4594TIP3    H213736   6.105   4.356   1.444  0.6324 -0.2583  1.2256
 4595TIP3   OH213737   4.933   5.245   1.438 -0.5755  0.9819 -0.0379
 4595TIP3    H113738   4.934   5.212   1.528  0.2777 -0.1767 -0.4486
 4595TIP3    H213739   4.875   5.185   1.391  1.5019 -0.3806 -0.9386
 4596TIP3   OH213740   0.179   0.931   2.736 -0.0887 -0.3194  0.0124
 4596TIP3    H113741   0.099   0.977   2.761 -0.1742 -0.9606  0.9479
 4596TIP3    H213742   0.154   0.839   2.732  0.6130 -0.5289  0.3459
 4597TIP3   OH213743   5.904   4.261   1.635 -0.1528 -0.0904 -0.2915
 4597TIP3    H113744   5.900   4.255   1.540  0.4187 -2.4361 -0.2083
 4597TIP3    H213745   5.852   4.187   1.666 -2.0879  1.8422  1.2771
 4598TIP3   OH213746   2.501   3.341   5.999  0.1233  0.2656  0.4562
 4598TIP3    H113747   2.466   3.359   5.912 -0.3657 -0.4668  0.4984
 4598TIP3    H213748   2.524   3.248   5.997  2.0685  0.7156  0.4309
 4599TIP3   OH213749   6.195   6.336   2.366  0.6210 -0.1110 -0.0966
 4599TIP3    H113750   6.206   6.360   2.458 -1.0368 -0.0861  0.1088
 4599TIP3    H213751   6.222   6.414   2.318  2.2157 -0.3845  0.3374
 4600TIP3   OH213752   2.216   0.465   2.195  0.3181  0.1663  0.3468
 4600TIP3    H113753   2.304   0.497   2.212  0.2538  0.2073  0.6125
 4600TIP3    H213754   2.221   0.425   2.109  1.0989 -1.7032  1.2325
 4601TIP3   OH213755  -0.013   4.894   1.912 -0.5848  0.5644  0.0614
 4601TIP3    H113756   0.057   4.844   1.954 -0.4937 -0.0584 -0.8381
 4601TIP3    H213757   0.031   4.970   1.874 -0.6679  1.1377  1.0776
 4602TIP3   OH213758   4.682   5.608   2.022  0.3006 -0.3582  0.0203
 4602TIP3    H113759   4.762   5.596   2.072 -0.4172 -1.6445  0.8758
 4602TIP3    H213760   4.659   5.700   2.036  1.2271 -0.1673  0.3370
 4603TIP3   OH213761   0.102   6.903   0.910 -0.2846 -0.1745 -0.1767
 4603TIP3    H113762   0.169   6.905   0.979 -1.0270  0.8568  0.5283
 4603TIP3    H213763   0.151   6.882   0.830  0.7560 -0.2591  0.4673
 4604TIP3   OH213764   4.721   7.211   3.086  0.0831 -0.2125 -0.6507
 4604TIP3    H113765   4.748   7.301   3.065 -2.7702  1.3574  2.0382
 4604TIP3    H213766   4.649   7.193   3.026 -0.8437  0.1585  0.3459
 4605TIP3   OH213767   7.256   6.101   0.144  0.0363 -0.9875 -0.0799
 4605TIP3    H113768   7.319   6.032   0.126  1.9982  0.5026  0.8703
 4605TIP3    H213769   7.285   6.174   0.090 -0.5313 -0.0955  0.7985
 4606TIP3   OH213770   6.869   5.297   4.260  0.2736 -0.2797  0.3481
 4606TIP3    H113771   6.874   5.362   4.330 -0.6143 -0.4694  0.5953
 4606TIP3    H213772   6.891   5.214   4.304 -0.6428 -0.4564  0.5027
 4607TIP3   OH213773   4.564   6.846   1.622 -0.2403  0.1463 -0.3460
 4607TIP3    H113774   4.505   6.877   1.690  1.1477  0.5329  0.7077
 4607TIP3    H213775   4.592   6.759   1.653 -0.9919 -0.4520 -1.3124
 4608TIP3   OH213776   5.937   5.676   2.332  0.4046  0.0296 -0.1900
 4608TIP3    H113777   5.899   5.681   2.419 -0.1229  0.9402 -0.4609
 4608TIP3    H213778   5.929   5.584   2.307 -1.3876  0.1595 -0.1461
 4609TIP3   OH213779   0.148   2.805   5.548 -0.0792  0.7699  0.0757
 4609TIP3    H113780   0.065   2.848   5.568  0.4368  1.8360 -0.0889
 4609TIP3    H213781   0.178   2.771   5.633  0.6101  2.6647  0.6059
 4610TIP3   OH213782   1.339   5.670   4.904  0.3380  0.5547 -0.1811
 4610TIP3    H113783   1.358   5.725   4.980  0.3675 -0.2359  0.3886
 4610TIP3    H213784   1.249   5.692   4.880  0.9830  2.2740 -1.1745
 4611TIP3   OH213785   2.183   4.989   2.079  0.1914  0.0955  0.3223
 4611TIP3    H113786   2.171   4.905   2.033 -0.6484 -0.1373  0.9587
 4611TIP3    H213787   2.268   5.020   2.049 -1.0764  0.7890 -2.7274
 4612TIP3   OH213788   5.507   6.331   2.646 -0.2863 -0.3295  0.1627
 4612TIP3    H113789   5.527   6.238   2.642  0.4514 -0.1839  0.4285
 4612TIP3    H213790   5.519   6.362   2.556  1.6230 -0.0563  0.5029
 4613TIP3   OH213791   4.728   3.469   6.438  0.4124  0.5140  0.4515
 4613TIP3    H113792   4.637   3.485   6.414  0.9649  0.6451 -1.6451
 4613TIP3    H213793   4.728   3.378   6.470 -0.1949 -0.0282 -1.0116
 4614TIP3   OH213794   0.293   0.436   1.499  0.1441  0.4377 -0.1467
 4614TIP3    H113795   0.270   0.467   1.587 -0.0776 -2.3309  0.8349
 4614TIP3    H213796   0.210   0.435   1.451  0.1129  1.0827 -0.1096
 4615TIP3   OH213797   5.937   6.747   0.662  0.5913 -0.1372 -0.2459
 4615TIP3    H113798   5.870   6.687   0.696  0.2805 -0.5679 -1.5998
 4615TIP3    H213799   5.947   6.722   0.570  0.6804  1.6769 -0.7443
 4616TIP3   OH213800   2.236   2.703   5.135 -0.0594 -0.5240  0.1058
 4616TIP3    H113801   2.300   2.691   5.206  1.2757 -0.8932 -1.1414
 4616TIP3    H213802   2.158   2.656   5.166  0.0991  0.3183  1.8425
 4617TIP3   OH213803   5.650   5.825   1.022 -0.1012 -0.1598 -0.0797
 4617TIP3    H113804   5.745   5.826   1.017 -0.1017 -1.0153 -0.2786
 4617TIP3    H213805   5.622   5.776   0.945 -0.5671 -2.7557  1.6710
 4618TIP3   OH213806   7.160   4.955   2.886 -0.3865 -1.5464  0.0010
 4618TIP3    H113807   7.213   4.920   2.814  1.2349  1.9395 -0.5977
 4618TIP3    H213808   7.104   5.020   2.845  0.7628  0.7164  1.8612
 4619TIP3   OH213809   0.426   7.153   0.256  0.0751  0.6393  0.2594
 4619TIP3    H113810   0.422   7.219   0.325 -1.8143 -0.4381  1.2254
 4619TIP3    H213811   0.510   7.109   0.268 -1.0092 -0.7708  3.0859
 4620TIP3   OH213812   2.986   3.284   5.948 -0.0440  0.5284  0.4970
 4620TIP3    H113813   2.984   3.232   5.867 -0.0515  1.3901 -0.0719
 4620TIP3    H213814   2.991   3.220   6.018 -1.5361 -0.2893 -0.1259
 4621TIP3   OH213815   3.033   5.455   4.067  0.4398 -0.3423  0.2687
 4621TIP3    H113816   3.111   5.447   4.121  0.4877 -1.4205  0.0567
 4621TIP3    H213817   3.047   5.394   3.995  0.6116  1.4628 -1.2723
 4622TIP3   OH213818   7.433   6.832   0.486  0.1089 -0.2836  0.0193
 4622TIP3    H113819   7.364   6.791   0.539 -1.5518  1.6580 -0.5897
 4622TIP3    H213820   7.446   6.918   0.526  0.8182  0.1191 -1.0567
 4623TIP3   OH213821   5.055   4.658   6.135 -0.5549 -0.0584  0.4913
 4623TIP3    H113822   5.001   4.579   6.134 -0.5063 -0.1037  1.4697
 4623TIP3    H213823   5.006   4.720   6.189  0.4849 -0.1852  1.6092
 4624TIP3   OH213824   4.608   3.551   1.532  0.0943  0.1298 -0.2517
 4624TIP3    H113825   4.555   3.545   1.452 -0.8288  0.9111  0.2755
 4624TIP3    H213826   4.543   3.566   1.601  1.0060  0.9175  0.4342
 4625TIP3   OH213827   5.786   2.191   1.089  0.3003  0.4747 -0.0345
 4625TIP3    H113828   5.710   2.243   1.060 -0.0086 -1.0079 -2.0066
 4625TIP3    H213829   5.861   2.245   1.065 -0.0843  1.2828  0.5409
 4626TIP3   OH213830   4.469   1.776   5.971 -0.1244 -0.1904  0.7515
 4626TIP3    H113831   4.489   1.699   6.024 -0.7739  0.7063  2.3267
 4626TIP3    H213832   4.417   1.743   5.898  0.1746 -1.3407  1.0559
 4627TIP3   OH213833   7.185   5.248   1.506  0.2618 -0.3322  0.3431
 4627TIP3    H113834   7.266   5.244   1.557 -0.3430 -1.4944  1.2375
 4627TIP3    H213835   7.149   5.159   1.511 -0.6861 -0.0156 -0.6720
 4628TIP3   OH213836   5.674   6.515   0.266  0.1670  0.8376  0.1247
 4628TIP3    H113837   5.703   6.602   0.295 -1.8074  1.2196  1.0109
 4628TIP3    H213838   5.608   6.490   0.330  0.8181 -1.3969 -0.0517
 4629TIP3   OH213839   7.410   6.451   3.959 -0.6276  0.0003  0.1046
 4629TIP3    H113840   7.394   6.359   3.940  1.4549 -0.5009  0.6161
 4629TIP3    H213841   7.323   6.489   3.968 -1.5525 -2.6068  3.1996
 4630TIP3   OH213842   7.429   3.905   0.753 -0.4196  0.4557  0.2965
 4630TIP3    H113843   7.393   3.987   0.787 -0.0823  1.0212 -0.6884
 4630TIP3    H213844   7.379   3.837   0.798 -1.0677  1.2062  0.7300
 4631TIP3   OH213845   6.355   4.296   1.032  0.4887 -0.3874  0.1385
 4631TIP3    H113846   6.418   4.335   0.971  0.3412 -3.2135 -1.9776
 4631TIP3    H213847   6.273   4.340   1.014  0.9903  0.5203  0.0563
 4632TIP3   OH213848   6.140   6.938   1.922  0.4480 -0.1780 -0.2583
 4632TIP3    H113849   6.133   6.943   2.018  1.1397  0.1933 -0.2259
 4632TIP3    H213850   6.138   7.029   1.893 -0.0755 -0.3082 -0.6188
 4633TIP3   OH213851   6.862   7.187   1.037 -0.4147 -0.1867 -0.2976
 4633TIP3    H113852   6.874   7.093   1.047 -2.9300 -0.4040  1.1127
 4633TIP3    H213853   6.942   7.226   1.072 -0.4608 -1.7030  1.5512
 4634TIP3   OH213854   6.412   6.438   1.091 -0.0515 -0.4205  0.2830
 4634TIP3    H113855   6.434   6.430   1.184  0.3124 -0.7821  0.1695
 4634TIP3    H213856   6.496   6.441   1.047 -0.2089  1.3318  0.0769
 4635TIP3   OH213857   3.911   4.767   1.124 -0.4542  0.3568 -0.3966
 4635TIP3    H113858   3.905   4.762   1.219  1.3145  2.8738 -0.0757
 4635TIP3    H213859   3.929   4.678   1.096  0.0568 -0.2388  1.7269
 4636TIP3   OH213860   1.777   3.957   4.734 -0.0638 -0.3297 -0.5673
 4636TIP3    H113861   1.792   3.863   4.726  0.4651 -0.2870 -0.0948
 4636TIP3    H213862   1.864   3.996   4.730 -0.2497  0.1059 -0.3653
 4637TIP3   OH213863   4.821   6.014   2.001 -0.1973 -0.1774 -0.0035
 4637TIP3    H113864   4.820   5.920   2.020 -1.7509 -0.2970 -0.5578
 4637TIP3    H213865   4.913   6.034   1.985  0.3869 -1.2437  1.8228
 4638TIP3   OH213866   4.312   6.425   2.453 -1.3826 -0.6395  0.4293
 4638TIP3    H113867   4.340   6.424   2.362 -0.9101  1.1340  0.5332
 4638TIP3    H213868   4.264   6.343   2.465 -2.2013 -0.4815 -1.6400
 4639TIP3   OH213869   5.461   6.821   1.574  0.3595 -1.1789  0.3319
 4639TIP3    H113870   5.538   6.821   1.631  0.6610 -0.7626 -0.0716
 4639TIP3    H213871   5.396   6.769   1.622 -0.1025  0.8517  2.0202
 4640TIP3   OH213872   3.566   5.153   6.016  0.2958  0.1528 -0.9611
 4640TIP3    H113873   3.567   5.059   6.030  0.4450  0.1313 -1.1236
 4640TIP3    H213874   3.486   5.169   5.966  0.7976 -0.0135 -1.8357
 4641TIP3   OH213875   2.634   0.753   2.481  1.3759 -0.8064  0.3596
 4641TIP3    H113876   2.617   0.708   2.564  1.0183 -0.4028  0.5066
 4641TIP3    H213877   2.664   0.840   2.507 -0.1293 -0.1867  0.0497
 4642TIP3   OH213878   5.517   5.077   2.018  0.3712  0.3800 -0.3239
 4642TIP3    H113879   5.446   5.028   1.976  1.1228 -0.8736 -0.1512
 4642TIP3    H213880   5.588   5.014   2.025  1.0864  1.2877  0.6272
 4643TIP3   OH213881   2.593   5.209   4.722 -0.3936 -0.3546 -0.4894
 4643TIP3    H113882   2.547   5.158   4.790 -0.8051  1.5659  0.7123
 4643TIP3    H213883   2.565   5.299   4.737  2.9545  0.7267 -0.4201
 4644TIP3   OH213884   4.071   6.601   2.876 -0.5256 -0.4543 -0.6191
 4644TIP3    H113885   4.030   6.683   2.847 -1.4094 -0.4102  0.7204
 4644TIP3    H213886   4.163   6.624   2.889 -0.6311  0.1583 -0.9120
 4645TIP3   OH213887   4.902   6.455   0.056 -0.2256 -0.3396 -0.1801
 4645TIP3    H113888   4.910   6.548   0.036 -0.5034 -0.4500 -0.8205
 4645TIP3    H213889   4.936   6.411  -0.022  0.5783 -0.7705  0.4104
 4646TIP3   OH213890   6.529   7.203   2.069  0.4003 -0.7426  0.0346
 4646TIP3    H113891   6.604   7.228   2.123 -1.6020 -0.3832  2.7376
 4646TIP3    H213892   6.500   7.119   2.105  0.4848 -1.6920 -2.0531
 4647TIP3   OH213893   6.514   6.884   0.745  0.2642  0.0649  0.0628
 4647TIP3    H113894   6.474   6.798   0.732 -1.5304  1.0737 -1.2828
 4647TIP3    H213895   6.543   6.911   0.658 -0.5067  1.4625  0.2325
 4648TIP3   OH213896   0.041   0.401   3.243  0.2896  0.0216  0.3624
 4648TIP3    H113897   0.037   0.334   3.175 -0.0864  1.4163 -1.0505
 4648TIP3    H213898  -0.047   0.401   3.281  0.4394 -0.6333  0.6933
 4649TIP3   OH213899   4.859   5.072   1.636  0.2887 -0.5795 -0.3558
 4649TIP3    H113900   4.871   5.061   1.730  1.9477  0.6648 -0.3972
 4649TIP3    H213901   4.928   5.019   1.597  0.2174 -0.3251 -0.8318
 4650TIP3   OH213902   3.031   1.707   6.351 -0.2673 -0.0823  0.2798
 4650TIP3    H113903   3.032   1.699   6.446  0.9402 -0.8669  0.2010
 4650TIP3    H213904   3.052   1.620   6.319 -0.0039  0.3393 -0.7005
 4651TIP3   OH213905   6.787   0.463   2.921  0.2036  0.6516  0.5348
 4651TIP3    H113906   6.766   0.463   2.828 -1.3875  0.3409  0.8811
 4651TIP3    H213907   6.799   0.371   2.943 -1.6638  0.5152  1.1013
 4652TIP3   OH213908   6.344   2.168   0.085  0.6853 -0.6152  0.1191
 4652TIP3    H113909   6.311   2.255   0.110  0.8277 -0.3299 -0.6718
 4652TIP3    H213910   6.371   2.128   0.168  0.6834  0.1261  0.4836
 4653TIP3   OH213911   4.923   5.479   0.963 -0.0521 -0.2872  0.3075
 4653TIP3    H113912   4.831   5.462   0.945 -0.2084 -0.9083  1.6202
 4653TIP3    H213913   4.923   5.519   1.050  0.9494 -0.7329  0.5192
 4654TIP3   OH213914   4.214   3.778   1.115  0.4644  0.3606 -0.2181
 4654TIP3    H113915   4.145   3.792   1.050  0.4488  0.5377 -0.1619
 4654TIP3    H213916   4.294   3.806   1.071  0.4617  0.4280 -0.1789
 4655TIP3   OH213917   4.115   6.469   3.139  0.4669  0.4501  0.1446
 4655TIP3    H113918   4.055   6.414   3.190  0.5204  0.7936  0.5762
 4655TIP3    H213919   4.062   6.500   3.065  0.0388  0.9515  0.6561
 4656TIP3   OH213920   7.138   3.179   1.622 -0.3669 -0.5838 -0.3048
 4656TIP3    H113921   7.134   3.205   1.530 -0.0620 -1.6141 -0.6111
 4656TIP3    H213922   7.061   3.124   1.635  0.4126 -1.7059 -0.3469
 4657TIP3   OH213923   5.705   7.341   1.415  0.1454 -0.6655 -0.0733
 4657TIP3    H113924   5.706   7.429   1.377  0.3002 -0.3425  0.6521
 4657TIP3    H213925   5.612   7.320   1.425  0.1080 -0.4747 -0.0169
 4658TIP3   OH213926   6.163   4.302   2.190  0.3323  0.1970  0.1660
 4658TIP3    H113927   6.244   4.353   2.184  0.1518  0.6191  1.4011
 4658TIP3    H213928   6.166   4.245   2.113  1.7839  0.2435  0.1736
 4659TIP3   OH213929   7.018   5.560   1.968  0.7719 -0.6288 -0.2286
 4659TIP3    H113930   7.061   5.628   1.916 -0.9083  0.0613 -0.7465
 4659TIP3    H213931   7.086   5.493   1.981  2.7712  1.5826  1.1685
 4660TIP3   OH213932   5.465   5.383   1.934  0.0457  0.3017 -0.1318
 4660TIP3    H113933   5.489   5.296   1.965  2.1452  0.7230 -0.4915
 4660TIP3    H213934   5.435   5.429   2.013 -1.1118 -0.7378  0.0507
 4661TIP3   OH213935   4.982   5.288   0.724 -0.0502  0.5593 -0.0536
 4661TIP3    H113936   4.939   5.265   0.806  0.3459  0.9500  0.2629
 4661TIP3    H213937   4.921   5.348   0.681  0.5705  1.8680  0.8253
 4662TIP3   OH213938   1.413   1.311   0.661  0.1221 -0.1690  0.9189
 4662TIP3    H113939   1.431   1.372   0.733  0.2304  0.6195  0.2327
 4662TIP3    H213940   1.462   1.232   0.684  0.6123  0.2789  1.4317
 4663TIP3   OH213941   6.423   5.567   2.449 -0.3678 -0.2619  0.5426
 4663TIP3    H113942   6.376   5.487   2.425 -0.3599 -0.5183  1.3650
 4663TIP3    H213943   6.515   5.546   2.437 -0.3427 -0.5180  1.1626
 4664TIP3   OH213944   5.038   6.637   0.601  0.0185 -0.5151 -0.0363
 4664TIP3    H113945   5.108   6.622   0.666  0.4116  0.3396 -0.2500
 4664TIP3    H213946   5.071   6.710   0.548 -0.8916 -0.3383 -0.3582
 4665TIP3   OH213947   7.053   5.986   1.964  0.1477  0.2036 -0.3519
 4665TIP3    H113948   7.130   6.039   1.984  2.4064 -2.8588 -0.6992
 4665TIP3    H213949   7.023   6.020   1.879 -0.3211  2.9024  0.8142
 4666TIP3   OH213950   7.199   6.131   2.278 -0.2159 -0.1046 -0.3333
 4666TIP3    H113951   7.286   6.144   2.240 -0.2764  1.0758 -0.0833
 4666TIP3    H213952   7.205   6.048   2.325  0.3840 -0.6967 -1.4350
 4667TIP3   OH213953   7.151   6.988   3.365  0.3119 -0.0860 -0.1941
 4667TIP3    H113954   7.215   7.051   3.396 -0.1690  0.0386  0.5610
 4667TIP3    H213955   7.109   7.030   3.290  0.9865 -0.0965 -0.5756
 4668TIP3   OH213956   7.021   6.881   3.836 -0.3766 -0.4407  0.0857
 4668TIP3    H113957   7.019   6.851   3.745  0.0620  0.1262 -0.1176
 4668TIP3    H213958   7.095   6.942   3.839 -0.5371 -0.2762  0.7647
 4669TIP3   OH213959   0.673   6.571   1.278 -0.2433  0.0685 -0.0624
 4669TIP3    H113960   0.720   6.643   1.320  0.2105 -0.6860  0.7229
 4669TIP3    H213961   0.604   6.548   1.341 -1.5325  1.0187 -1.1035
 4670TIP3   OH213962   6.702   5.760   0.668 -0.1413 -0.1441 -0.4525
 4670TIP3    H113963   6.796   5.745   0.679 -0.3079 -0.7817  0.0787
 4670TIP3    H213964   6.666   5.752   0.756 -0.6039  0.7484 -0.5572
 4671TIP3   OH213965   5.474   5.600   1.418 -0.4198  0.0502  0.3085
 4671TIP3    H113966   5.494   5.612   1.511  0.6721 -1.5657  0.3010
 4671TIP3    H213967   5.492   5.508   1.401 -1.3075  0.1568 -1.3518
 4672TIP3   OH213968   6.263   4.978   1.024 -0.0706 -0.5261 -0.1910
 4672TIP3    H113969   6.238   4.918   1.094  0.8186 -0.0422  0.5552
 4672TIP3    H213970   6.355   4.959   1.007 -0.5436 -1.3494 -1.9597
 4673TIP3   OH213971   2.978   6.104   0.984 -0.2401  0.0339 -0.3124
 4673TIP3    H113972   3.000   6.028   0.929  2.0445  0.6721 -0.3379
 4673TIP3    H213973   2.925   6.160   0.927  1.1929  0.1873 -1.5228
 4674TIP3   OH213974   0.164   5.815   2.750  0.0400  0.1944  0.5761
 4674TIP3    H113975   0.132   5.725   2.762  0.7981 -0.2974 -0.9121
 4674TIP3    H213976   0.156   5.831   2.656  1.5363  1.0468  0.5672
 4675TIP3   OH213977   2.248   0.143   0.576  0.1524  0.0007 -0.0669
 4675TIP3    H113978   2.295   0.076   0.527  0.2959 -0.8193  1.1554
 4675TIP3    H213979   2.302   0.221   0.568  1.8181 -0.9569  1.4331
 4676TIP3   OH213980   6.024   7.163   0.042 -0.8697  0.2049  0.3451
 4676TIP3    H113981   5.966   7.087   0.052  0.4893 -0.8390  0.3404
 4676TIP3    H213982   5.972   7.225  -0.010 -1.7519 -0.9837 -0.2259
 4677TIP3   OH213983   4.969   2.191   6.263 -0.0483  1.1591 -0.1525
 4677TIP3    H113984   5.056   2.230   6.261  0.3662  0.3844  1.9405
 4677TIP3    H213985   4.910   2.265   6.280  0.2983  1.5167 -0.4792
 4678TIP3   OH213986   1.671   6.539   1.231  0.3821 -0.4791  0.0766
 4678TIP3    H113987   1.676   6.462   1.175  1.2426  0.2971 -0.9385
 4678TIP3    H213988   1.581   6.572   1.219 -0.0192 -1.3641  0.5952
 4679TIP3   OH213989   0.352   6.444   1.277 -0.2558  1.0454  0.2075
 4679TIP3    H113990   0.264   6.478   1.292 -1.0112 -1.0949  0.7531
 4679TIP3    H213991   0.401   6.467   1.356 -2.0452 -3.1458  2.7024
 4680TIP3   OH213992   7.096   0.682   1.947  0.1080 -0.4088  0.4344
 4680TIP3    H113993   7.027   0.717   1.891  0.0219  0.4956  1.0949
 4680TIP3    H213994   7.120   0.599   1.907 -0.7786 -0.3255 -0.2727
 4681TIP3   OH213995   6.365   7.343   3.655 -0.4982  0.2350 -0.4244
 4681TIP3    H113996   6.271   7.354   3.671 -0.3546  0.8463  0.0392
 4681TIP3    H213997   6.371   7.324   3.562 -1.0490  0.6976 -0.5590
 4682TIP3   OH213998   7.494   6.751   2.668  0.6838 -0.1698 -0.4941
 4682TIP3    H113999   7.581   6.754   2.707 -0.2094 -0.4060  1.5898
 4682TIP3    H214000   7.459   6.839   2.681  0.8918  0.1664 -2.0632
 4683TIP3   OH214001   7.283   4.775   0.724 -0.3997  0.6231 -0.0037
 4683TIP3    H114002   7.268   4.745   0.814 -0.0573 -1.4216 -0.6099
 4683TIP3    H214003   7.355   4.721   0.692 -1.3040  0.5060 -1.9124
 4684TIP3   OH214004   0.335   4.931   1.547  0.4271  0.0809  0.1190
 4684TIP3    H114005   0.391   4.973   1.482 -0.0041  1.7301  0.8015
 4684TIP3    H214006   0.357   4.974   1.629 -0.2395 -0.8265  0.7863
 4685TIP3   OH214007   1.258   6.671   0.581 -0.4906  0.0497 -0.4385
 4685TIP3    H114008   1.235   6.684   0.673 -0.9611  1.2093 -0.7123
 4685TIP3    H214009   1.175   6.680   0.534 -0.3488 -1.1682 -0.9142
 4686TIP3   OH214010   0.137   6.605   3.660 -0.0840  0.7051  0.2062
 4686TIP3    H114011   0.167   6.553   3.734 -0.0900 -0.3288 -0.5086
 4686TIP3    H214012   0.097   6.541   3.600 -0.9273  1.6496 -0.2577
 4687TIP3   OH214013   6.305   4.937   2.384 -0.2898  0.2732  0.2753
 4687TIP3    H114014   6.316   4.842   2.384 -0.5036  0.2478  0.3180
 4687TIP3    H214015   6.341   4.965   2.300 -1.4158  0.0129 -0.3083
 4688TIP3   OH214016   7.010   5.713   0.914  0.4234  0.1425 -0.1337
 4688TIP3    H114017   7.079   5.655   0.949  0.1579 -0.1685 -0.1174
 4688TIP3    H214018   6.967   5.747   0.992  0.4713  0.2302 -0.1459
 4689TIP3   OH214019   1.245   6.722   1.214  0.1611  0.0165  0.3462
 4689TIP3    H114020   1.228   6.668   1.136  2.4800  1.6088 -1.3498
 4689TIP3    H214021   1.247   6.660   1.286 -0.5722 -1.7061 -1.0733
 4690TIP3   OH214022   3.028   0.166   0.508 -0.0475 -0.5125 -0.4210
 4690TIP3    H114023   3.097   0.225   0.477 -0.2108 -0.6440 -1.0428
 4690TIP3    H214024   3.052   0.146   0.599 -1.2126  2.3223  0.5503
 4691TIP3   OH214025   7.386   5.955   0.673 -0.0078  0.5339 -0.1299
 4691TIP3    H114026   7.434   6.010   0.610  1.4287  0.1375  0.6168
 4691TIP3    H214027   7.387   5.868   0.634 -0.5078  0.6015 -0.3100
 4692TIP3   OH214028   7.128   6.440   2.345 -0.3783  0.4217 -0.2769
 4692TIP3    H114029   7.073   6.514   2.370 -0.7956 -0.8583  2.7565
 4692TIP3    H214030   7.198   6.438   2.410  0.8042 -0.5876 -1.5468
 4693TIP3   OH214031   3.321   0.932   0.577  0.4599 -0.2712 -0.0189
 4693TIP3    H114032   3.341   0.841   0.599 -0.3780  0.1048  2.5826
 4693TIP3    H214033   3.365   0.984   0.645  2.0291  1.3782 -2.2283
 4694TIP3   OH214034   6.503   5.218   1.551  0.3071 -0.1405  0.3011
 4694TIP3    H114035   6.481   5.307   1.578 -0.1383  0.2298 -1.2070
 4694TIP3    H214036   6.420   5.170   1.555  0.4791 -0.4071  0.7753
 4695TIP3   OH214037   3.554   0.308   2.650  0.0923  0.4547  0.4843
 4695TIP3    H114038   3.528   0.315   2.558 -0.8477  0.2981  0.7341
 4695TIP3    H214039   3.489   0.250   2.689  1.2600 -0.5586  0.9574
 4696TIP3   OH214040   0.147   6.493   3.060  0.1781  0.4421  0.0095
 4696TIP3    H114041   0.232   6.536   3.074  0.3097 -0.4588  2.2169
 4696TIP3    H214042   0.170   6.412   3.014  0.3697  0.7682 -0.4805
 4697TIP3   OH214043   2.475   1.062   2.211 -0.2806  0.5500 -0.6788
 4697TIP3    H114044   2.560   1.043   2.171  0.1283  0.4649  0.2043
 4697TIP3    H214045   2.431   1.120   2.149  0.8313  1.4132 -0.6775
 4698TIP3   OH214046   0.229   7.135   0.078  0.2618 -0.3345  0.5683
 4698TIP3    H114047   0.270   7.159   0.161 -0.6659 -0.9652  1.2203
 4698TIP3    H214048   0.216   7.040   0.085 -1.4932 -0.1122  0.4603
 4699TIP3   OH214049   7.224   5.920   1.085 -0.8651  0.0451 -0.0802
 4699TIP3    H114050   7.219   5.827   1.061 -2.1478 -0.9247  3.5594
 4699TIP3    H214051   7.141   5.957   1.054 -0.3745  0.0104 -1.4886
 4700TIP3   OH214052   7.682   3.744   1.700  0.5382  0.5836  0.1118
 4700TIP3    H114053   7.655   3.756   1.609  0.8893 -0.0781 -0.0908
 4700TIP3    H214054   7.611   3.781   1.752 -1.2222 -1.9884 -0.3794
 4701TIP3   OH214055   7.639   0.176   2.160 -0.5905 -0.0462  0.0206
 4701TIP3    H114056   7.562   0.183   2.104 -2.0600 -1.0781  1.8714
 4701TIP3    H214057   7.699   0.119   2.112 -1.3766 -0.0257 -0.9998
 4702TIP3   OH214058   6.906   7.360   1.806  0.0775  0.0413 -0.1846
 4702TIP3    H114059   6.853   7.281   1.795  1.3365 -0.7416 -0.7590
 4702TIP3    H214060   6.921   7.367   1.900 -0.2215 -0.2886 -0.1143
 4703TIP3   OH214061   6.671   6.584   0.595 -0.2895  0.5982  0.5223
 4703TIP3    H114062   6.591   6.619   0.636 -0.1366  1.7288 -0.1112
 4703TIP3    H214063   6.679   6.495   0.629 -1.4230  0.7322  1.1581
 4704TIP3   OH214064   2.490   6.226   3.048  0.0266  0.4121 -0.4595
 4704TIP3    H114065   2.559   6.279   3.009 -0.2083 -0.0674 -1.5412
 4704TIP3    H214066   2.419   6.288   3.067  0.5465  0.8161  0.1776
 4705TIP3   OH214067   2.813  -0.002   2.958 -0.0408 -0.3733  0.1254
 4705TIP3    H114068   2.891   0.032   2.914 -0.4255  0.1249 -0.1854
 4705TIP3    H214069   2.746  -0.004   2.890 -1.4678  3.1934  1.2611
 4706TIP3   OH214070   0.806   4.530   2.581 -0.4347 -0.5413 -0.0588
 4706TIP3    H114071   0.799   4.504   2.489 -1.1752 -0.9810  0.1143
 4706TIP3    H214072   0.747   4.605   2.589 -0.4014 -0.5286  0.0620
 4707TIP3   OH214073   0.146   4.317   0.493  0.5163 -0.2832 -0.0800
 4707TIP3    H114074   0.185   4.390   0.541 -0.0333 -0.5762  0.8196
 4707TIP3    H214075   0.207   4.244   0.507  0.5594 -0.2619 -0.1575
 4708TIP3   OH214076   4.521   2.778   5.592  0.5506  0.1988 -0.0396
 4708TIP3    H114077   4.460   2.705   5.601  0.2832  0.4147 -0.0869
 4708TIP3    H214078   4.545   2.801   5.682  2.0990 -1.1661 -0.0775
 4709TIP3   OH214079   4.959   6.047   0.210  0.3153 -0.1619  0.1983
 4709TIP3    H114080   4.930   6.096   0.288 -0.4006 -0.1880 -0.0454
 4709TIP3    H214081   4.976   5.959   0.243 -1.8089 -0.6825  0.0025
 4710TIP3   OH214082   6.648   7.275   0.669  0.4167  0.3491  0.1165
 4710TIP3    H114083   6.569   7.306   0.713  0.0338  0.8158 -0.8877
 4710TIP3    H214084   6.700   7.355   0.654  0.1073  0.3229 -1.1356
 4711TIP3   OH214085   2.668   2.165   6.408 -0.4010 -0.2036 -0.5930
 4711TIP3    H114086   2.744   2.212   6.373 -0.3103  0.7820  0.8570
 4711TIP3    H214087   2.604   2.235   6.427 -1.4144 -0.9606 -1.1749
 4712TIP3   OH214088   3.627   4.517   5.223 -0.1451 -0.4909 -0.1720
 4712TIP3    H114089   3.695   4.535   5.159 -1.1514  0.5414 -0.9734
 4712TIP3    H214090   3.607   4.602   5.262 -0.0789 -0.9826  0.9826
 4713TIP3   OH214091   6.266   6.111   0.062  0.1280  0.3181  0.5291
 4713TIP3    H114092   6.276   6.079  -0.027  0.1273  0.2493  0.5531
 4713TIP3    H214093   6.341   6.075   0.109 -2.4208 -3.7842  1.7348
 4714TIP3   OH214094   7.078   7.279   2.683  1.1635 -0.7717 -0.1377
 4714TIP3    H114095   7.159   7.239   2.715  0.5282 -0.2058  2.2965
 4714TIP3    H214096   7.073   7.362   2.730 -0.7211 -0.7036 -0.4366
 4715TIP3   OH214097   4.739   6.443   0.405  0.0606  0.0539  0.0022
 4715TIP3    H114098   4.835   6.445   0.409  0.0842 -1.1101  0.1061
 4715TIP3    H214099   4.718   6.350   0.394 -0.9796  0.5328 -2.1656
 4716TIP3   OH214100   6.588   4.124   2.083  0.1200 -0.4698 -0.3929
 4716TIP3    H114101   6.520   4.102   2.019  0.1996 -1.7410 -0.0427
 4716TIP3    H214102   6.547   4.108   2.168  0.5225 -0.2636 -0.1590
 4717TIP3   OH214103   6.970   7.317   3.087  0.1850  0.3124 -0.2875
 4717TIP3    H114104   6.969   7.323   3.182 -1.8293 -0.9440 -0.1867
 4717TIP3    H214105   7.032   7.384   3.059 -0.2811  1.6731  1.8255
 4718TIP3   OH214106   7.124   0.198   0.897 -0.7093 -0.6546  0.3631
 4718TIP3    H114107   7.208   0.178   0.856 -0.2938 -0.8319  1.2947
 4718TIP3    H214108   7.140   0.189   0.990 -1.3029  1.0115  0.6517
 4719TIP3   OH214109   1.507   6.141   2.571 -0.0351  0.1184 -0.0394
 4719TIP3    H114110   1.511   6.203   2.499  0.2437  1.6267  1.2457
 4719TIP3    H214111   1.594   6.099   2.571  0.1438  0.4897 -0.2517
 4720TIP3   OH214112   6.986   4.517   2.558 -0.0554 -0.0854  0.2701
 4720TIP3    H114113   6.960   4.550   2.471 -1.2437  1.2012  1.0931
 4720TIP3    H214114   7.076   4.487   2.546 -0.2008  0.1015 -1.4117
 4721TIP3   OH214115   1.276   7.366   6.316  0.0033 -0.0317 -0.3344
 4721TIP3    H114116   1.230   7.353   6.233 -0.3497  0.4752 -0.2209
 4721TIP3    H214117   1.207   7.358   6.383  0.2112  0.0040 -0.1152
 4722TIP3   OH214118   7.794   3.887   2.142  0.0150 -0.0097  0.4632
 4722TIP3    H114119   7.776   3.909   2.233 -0.0590 -1.0114  0.6920
 4722TIP3    H214120   7.883   3.920   2.127  0.1495 -0.1212  0.9919
 4723TIP3   OH214121   7.558   5.183   2.475  0.0545 -0.1229 -0.6029
 4723TIP3    H114122   7.637   5.197   2.528  0.1708  0.7572 -0.9928
 4723TIP3    H214123   7.503   5.126   2.529 -1.1088  3.0915  1.7850
 4724TIP3   OH214124   5.970   5.063   2.146  0.4468  0.9525 -0.1455
 4724TIP3    H114125   5.990   4.986   2.199 -0.7151 -0.4864 -1.6982
 4724TIP3    H214126   6.047   5.119   2.153  1.9648 -1.0738 -0.1988
 4725TIP3   OH214127   1.141   5.783   2.344 -0.2481 -0.2200 -0.0177
 4725TIP3    H114128   1.163   5.826   2.427 -0.3733  0.9847 -0.6065
 4725TIP3    H214129   1.051   5.810   2.327 -0.0241 -0.0107 -0.8457
 4726TIP3   OH214130   0.728   5.948   2.862  0.2011  0.1051  0.4878
 4726TIP3    H114131   0.694   5.858   2.861  1.3588 -0.3376  0.2195
 4726TIP3    H214132   0.663   5.999   2.813  0.2665 -0.8501 -0.6023
 4727TIP3   OH214133   0.955   6.076   0.921 -0.5218  0.6309  0.6696
 4727TIP3    H114134   0.893   6.096   0.851  0.0127  0.6266  0.1909
 4727TIP3    H214135   0.968   5.981   0.914 -0.0415  0.7151  0.4182
 4728TIP3   OH214136   6.794   6.904   1.905  0.0347 -0.8269  0.7240
 4728TIP3    H114137   6.870   6.905   1.964  0.1111 -1.1048  0.6310
 4728TIP3    H214138   6.791   6.993   1.869  0.9983 -1.1408 -0.1454
 4729TIP3   OH214139   3.947   5.192   1.317 -0.1037 -0.6149  0.0750
 4729TIP3    H114140   3.874   5.221   1.262 -0.1150 -1.5905 -0.4225
 4729TIP3    H214141   3.906   5.168   1.401  0.0891  2.2770  1.0469
 4730TIP3   OH214142   4.855   1.348   3.053 -0.1214  0.6786 -0.8358
 4730TIP3    H114143   4.868   1.403   3.131  1.6044 -0.2616 -0.4447
 4730TIP3    H214144   4.762   1.325   3.056  0.4151 -1.4352  2.4197
 4731TIP3   OH214145   0.124   5.871   3.639  0.5441 -0.5250  0.9611
 4731TIP3    H114146   0.064   5.816   3.688  1.1523 -0.5907  1.6290
 4731TIP3    H214147   0.073   5.899   3.563  0.0479 -1.5349  0.9109
 4732TIP3   OH214148   4.747   1.059   3.813 -0.4756  0.5755  0.2847
 4732TIP3    H114149   4.715   1.074   3.724  0.1645  0.7707  0.0859
 4732TIP3    H214150   4.830   1.107   3.818  0.3948 -0.9083  0.4039
 4733TIP3   OH214151   3.844   0.304   2.659 -0.2162  0.2920  0.1673
 4733TIP3    H114152   3.749   0.308   2.649 -0.0672 -0.2418 -1.7425
 4733TIP3    H214153   3.877   0.363   2.591  0.7788  2.0661  2.1611
 4734TIP3   OH214154   0.782   7.082   1.685  0.3118  0.1453 -0.0086
 4734TIP3    H114155   0.742   7.115   1.604 -1.1672 -0.1461  0.5840
 4734TIP3    H214156   0.773   6.987   1.680 -3.0240  0.2645  2.0699
 4735TIP3   OH214157   3.696   0.053   4.512 -0.5986  0.2105 -0.4530
 4735TIP3    H114158   3.653  -0.023   4.553  0.8363 -0.6884 -0.5844
 4735TIP3    H214159   3.747   0.016   4.440 -0.1357  1.3522 -0.7226
 4736TIP3   OH214160   7.329   5.413   2.693 -0.1930 -0.3560 -0.1275
 4736TIP3    H114161   7.419   5.395   2.668  0.1254 -0.7416  1.2427
 4736TIP3    H214162   7.336   5.450   2.781 -1.5321 -2.6402  0.9716
 4737TIP3   OH214163   1.947   3.595   2.737  0.6891  0.8104  0.2206
 4737TIP3    H114164   1.888   3.670   2.744  0.7323  0.8836 -0.1905
 4737TIP3    H214165   1.929   3.558   2.650  3.1307  2.4265 -1.0258
 4738TIP3   OH214166   0.198   4.068   4.605  0.5083  0.5521  0.1714
 4738TIP3    H114167   0.176   3.976   4.592  1.2453 -0.0049  2.6709
 4738TIP3    H214168   0.285   4.078   4.565  0.7262  0.0095  0.5075
 4739TIP3   OH214169   7.629   7.291   3.171 -0.2677  0.2626 -0.2211
 4739TIP3    H114170   7.546   7.314   3.213 -0.0846  1.0925 -0.2948
 4739TIP3    H214171   7.615   7.309   3.078  0.4634  1.8417 -0.0427
 4740TIP3   OH214172   4.015   0.242   4.028  0.1975 -0.0523 -0.5203
 4740TIP3    H114173   4.023   0.281   3.941  1.8127  0.4714 -0.1466
 4740TIP3    H214174   3.992   0.316   4.085  2.2452  0.1896  0.0177
 4741TIP3   OH214175   0.005   7.217   1.633 -0.1213 -0.0910  0.3204
 4741TIP3    H114176   0.093   7.240   1.664 -0.7357  0.7584  1.4501
 4741TIP3    H214177  -0.045   7.298   1.639 -1.3360 -0.8688  0.8806
 4742TIP3   OH214178   2.600   0.049   3.148 -0.6456 -0.2453  0.4382
 4742TIP3    H114179   2.645   0.047   3.064 -0.4697 -2.1158  0.5431
 4742TIP3    H214180   2.519   0.000   3.133 -0.2039 -1.3629  1.5518
 4743TIP3   OH214181   5.481   0.133   4.335  0.1133  0.0542  0.0298
 4743TIP3    H114182   5.466   0.179   4.418 -0.5837  1.3828 -0.8311
 4743TIP3    H214183   5.394   0.106   4.306  0.3073  0.0360 -0.5393
 4744TIP3   OH214184   2.658   6.280   4.365  0.1856  0.7666 -0.3785
 4744TIP3    H114185   2.679   6.312   4.453 -0.6207  0.6502 -0.1386
 4744TIP3    H214186   2.733   6.305   4.312  2.5234 -2.6498  1.1764
 4745TIP3   OH214187   2.852   6.157   2.197 -0.0767 -0.3958 -0.2830
 4745TIP3    H114188   2.853   6.112   2.281 -1.5344  1.3134  0.6929
 4745TIP3    H214189   2.764   6.194   2.190 -0.0927 -0.7779 -2.7166
 4746TIP3   OH214190   1.653   6.385   4.125 -0.3117 -0.0719 -0.3069
 4746TIP3    H114191   1.707   6.371   4.047  0.2549  0.0985  0.0497
 4746TIP3    H214192   1.689   6.465   4.164 -1.5668  0.6941 -0.6982
 4747TIP3   OH214193   2.469   7.315   2.421  0.4762 -0.3451 -0.2756
 4747TIP3    H114194   2.432   7.227   2.410 -0.4340 -0.0211  0.1817
 4747TIP3    H214195   2.453   7.358   2.337 -2.3777  0.5932  0.6905
 4748TIP3   OH214196   3.320   1.624   4.776  0.0879  0.0903 -0.5717
 4748TIP3    H114197   3.264   1.595   4.848 -1.2159  0.8934 -1.2428
 4748TIP3    H214198   3.397   1.662   4.819  0.6135 -1.9726  0.3402
 4749TIP3   OH214199   1.797   6.271   2.550 -0.9080  0.1161  0.4932
 4749TIP3    H114200   1.776   6.178   2.561 -1.1139  0.0908 -0.1010
 4749TIP3    H214201   1.883   6.281   2.591 -0.0922 -0.7045 -0.9303
 4750TIP3   OH214202   1.796   7.161   3.644  0.6324  0.0282  0.0353
 4750TIP3    H114203   1.708   7.169   3.681 -0.4560  0.4440 -2.5296
 4750TIP3    H214204   1.839   7.244   3.663 -0.3246  0.6876 -0.6769
 4751TIP3   OH214205   1.778   6.379   5.802 -0.0342  0.1285 -0.4661
 4751TIP3    H114206   1.690   6.393   5.837 -0.1036 -0.8656 -0.2046
 4751TIP3    H214207   1.834   6.378   5.880  0.2626  1.1329 -0.6639
 4752TIP3   OH214208   1.668   5.028   4.764  0.1147  0.4957  0.2406
 4752TIP3    H114209   1.576   5.053   4.760  0.4282  1.4399 -1.4128
 4752TIP3    H214210   1.668   4.934   4.746 -0.6943  0.0987  2.2426
 4753TIP3   OH214211   2.893   5.005   2.046  0.2842  0.5415  0.4886
 4753TIP3    H114212   2.807   5.046   2.044  0.1848  0.3137 -0.1147
 4753TIP3    H214213   2.955   5.077   2.031  0.1022  0.4694 -0.7202
 4754TIP3   OH214214   3.289   6.668   1.140 -0.2631 -0.0909 -0.3094
 4754TIP3    H114215   3.320   6.720   1.066 -1.3959  0.1533 -0.6328
 4754TIP3    H214216   3.224   6.725   1.182  2.5585  1.0556  2.7277
 4755TIP3   OH214217   6.521   0.748   5.647 -0.0326 -0.2225  0.3819
 4755TIP3    H114218   6.426   0.737   5.641  0.1560 -2.9320  1.6432
 4755TIP3    H214219   6.553   0.732   5.558 -0.7019  0.1846  0.0627
 4756TIP3   OH214220   0.602   5.880   1.778 -0.8026  0.0820  0.3982
 4756TIP3    H114221   0.610   5.849   1.868 -0.7567  0.1813  0.4279
 4756TIP3    H214222   0.692   5.891   1.748 -0.8053 -0.6330  0.1065
 4757TIP3   OH214223   4.504   0.618   3.240 -0.3186 -0.1884  0.4412
 4757TIP3    H114224   4.571   0.588   3.179 -1.2935 -1.5534  0.0391
 4757TIP3    H214225   4.540   0.598   3.327  1.0988  1.8196  0.3728
 4758TIP3   OH214226   2.270   6.812   1.748  0.1880  0.0195  0.3378
 4758TIP3    H114227   2.347   6.756   1.734 -2.4645 -3.5542 -0.4745
 4758TIP3    H214228   2.262   6.818   1.843  1.6500  0.7977  0.4446
 4759TIP3   OH214229   2.361   7.306   4.358 -0.1203  0.4105  0.0070
 4759TIP3    H114230   2.377   7.295   4.452  1.1155 -0.0762 -0.2506
 4759TIP3    H214231   2.268   7.326   4.352 -0.0401  1.3155  1.4151
 4760TIP3   OH214232   2.219   6.389   2.487 -0.1596 -0.1168  0.2560
 4760TIP3    H114233   2.221   6.349   2.400 -0.5560  0.9491 -0.2502
 4760TIP3    H214234   2.256   6.476   2.474 -0.3065  0.0796  1.1413
 4761TIP3   OH214235   0.923   6.672   3.585  0.3937 -0.0436  0.2662
 4761TIP3    H114236   0.865   6.606   3.546 -0.8788  0.7947  0.7154
 4761TIP3    H214237   0.864   6.743   3.612  1.7383  1.3206 -0.2769
 4762TIP3   OH214238   5.482   0.487   1.358 -0.0228 -0.5940 -0.4055
 4762TIP3    H114239   5.475   0.451   1.270  3.1807 -0.9885 -0.5832
 4762TIP3    H214240   5.511   0.577   1.345 -1.3799 -0.0697  0.2003
 4763TIP3   OH214241   3.164   0.281   0.855  0.0603 -0.2493 -0.0285
 4763TIP3    H114242   3.171   0.216   0.785  1.2388 -1.0482  0.8154
 4763TIP3    H214243   3.145   0.229   0.934  0.1778  0.5075  0.5039
 4764TIP3   OH214244   2.484   6.938   3.244 -0.1065 -0.3938  0.6807
 4764TIP3    H114245   2.437   6.896   3.172 -0.9326 -0.1523  1.0667
 4764TIP3    H214246   2.575   6.911   3.232 -0.4433 -1.4037  0.2909
 4765TIP3   OH214247   0.491   6.467   4.480  0.2650  0.2650 -0.1566
 4765TIP3    H114248   0.554   6.396   4.498 -0.5997  0.0085  1.8859
 4765TIP3    H214249   0.447   6.438   4.400  0.6853 -0.9818  0.0366
 4766TIP3   OH214250   2.788   6.618   3.782  0.2515 -0.1636  0.1490
 4766TIP3    H114251   2.825   6.648   3.865  2.6223 -0.2275 -0.8380
 4766TIP3    H214252   2.712   6.675   3.768  1.2417  1.4451  1.1882
 4767TIP3   OH214253   0.980   6.110   1.211 -0.1412 -0.4703 -0.3802
 4767TIP3    H114254   0.916   6.172   1.246  0.1885 -1.2600  1.6930
 4767TIP3    H214255   0.941   6.079   1.130 -2.5041 -1.0799  0.9376
 4768TIP3   OH214256   6.708   7.142   1.769 -0.0003 -0.1731 -0.2881
 4768TIP3    H114257   6.614   7.132   1.788 -0.1504  2.5937  0.6862
 4768TIP3    H214258   6.711   7.166   1.677 -0.0496 -2.4349 -0.9215
 4769TIP3   OH214259   4.730   0.282   2.988 -0.2579 -0.1950 -0.3473
 4769TIP3    H114260   4.732   0.334   2.908  0.5000 -0.5320 -0.5519
 4769TIP3    H214261   4.650   0.230   2.981 -0.6048  0.3567 -0.5111
 4770TIP3   OH214262   0.180   6.283   2.905  1.0003 -0.1333  0.0043
 4770TIP3    H114263   0.237   6.227   2.852  1.1330  1.5795 -1.7561
 4770TIP3    H214264   0.102   6.230   2.922  1.7556 -1.3654 -0.3229
 4771TIP3   OH214265   7.194   7.063   1.537  0.5985 -0.0907 -0.2745
 4771TIP3    H114266   7.172   7.022   1.621 -1.4202  0.9600 -0.2587
 4771TIP3    H214267   7.275   7.020   1.510  1.5397 -0.1106  2.4461
 4772TIP3   OH214268   2.576   5.302   5.568  0.1552 -0.3292 -0.1166
 4772TIP3    H114269   2.600   5.221   5.615  0.1767 -0.0258  0.4016
 4772TIP3    H214270   2.616   5.372   5.620 -1.4835  0.1609  0.5210
 4773TIP3   OH214271   5.381   0.365   4.123  0.5820  0.7460  0.2615
 4773TIP3    H114272   5.417   0.420   4.053  0.6147  1.5334  0.8988
 4773TIP3    H214273   5.343   0.427   4.185  0.0018  0.0152  0.6401
 4774TIP3   OH214274   3.324   2.317   1.025  0.0360  0.5773  0.2393
 4774TIP3    H114275   3.403   2.369   1.008 -0.7469  1.7728  0.1930
 4774TIP3    H214276   3.260   2.350   0.962 -0.9389  0.6300  1.2442
 4775TIP3   OH214277   4.107   1.045   3.481 -0.1106  0.1591  0.3268
 4775TIP3    H114278   4.138   0.979   3.542  0.7405  2.1833  2.1764
 4775TIP3    H214279   4.172   1.115   3.487 -1.1323  1.2962 -1.3389
 4776TIP3   OH214280   1.771   0.802   0.341 -0.3123 -0.5244 -0.1509
 4776TIP3    H114281   1.821   0.836   0.267 -2.3100  1.5729 -0.6057
 4776TIP3    H214282   1.694   0.762   0.302 -0.9238 -0.2364  0.7390
 4777TIP3   OH214283   4.579   0.077   0.401  0.3357  0.1837 -0.5145
 4777TIP3    H114284   4.524   0.003   0.424  1.2790 -0.6663 -0.9757
 4777TIP3    H214285   4.528   0.154   0.427 -0.4983 -0.6279  0.2842
 4778TIP3   OH214286   5.642   0.717   3.240 -0.9291 -0.0982  0.2283
 4778TIP3    H114287   5.732   0.745   3.230 -1.1301  0.0345 -1.3843
 4778TIP3    H214288   5.598   0.789   3.284 -0.4260  0.1668  0.2935
 4779TIP3   OH214289   2.081   0.125   3.915 -0.2533  0.2764  0.8822
 4779TIP3    H114290   2.048   0.096   4.000 -0.6545 -2.2363 -0.0818
 4779TIP3    H214291   2.175   0.137   3.929 -0.3049 -0.2198  1.6618
 4780TIP3   OH214292   5.235   0.923   1.779  0.2772  0.6006 -0.2904
 4780TIP3    H114293   5.286   0.891   1.704 -0.0927 -0.0188 -0.2802
 4780TIP3    H214294   5.299   0.934   1.849  0.5449  0.7062 -0.5526
 4781TIP3   OH214295   1.293   4.660   3.018  0.2205 -0.4439 -0.4098
 4781TIP3    H114296   1.377   4.665   3.063  0.0631  0.2587 -0.1845
 4781TIP3    H214297   1.228   4.654   3.089  0.1111 -1.5461 -0.5917
 4782TIP3   OH214298   2.609   6.023   2.599 -0.1646  0.1564 -0.2576
 4782TIP3    H114299   2.516   6.019   2.576 -0.5412  0.0726  1.2126
 4782TIP3    H214300   2.610   6.033   2.694  1.3222  0.8904 -0.3262
 4783TIP3   OH214301   4.197   0.556   1.491 -0.3385  0.6363  0.2788
 4783TIP3    H114302   4.262   0.506   1.540  0.1530  1.0556  0.0702
 4783TIP3    H214303   4.196   0.517   1.404 -0.8441  0.2125  0.4746
 4784TIP3   OH214304   1.557   6.990   2.979  0.7923  0.3287 -0.4919
 4784TIP3    H114305   1.576   6.902   3.012 -0.9289 -0.2517 -1.0110
 4784TIP3    H214306   1.641   7.035   2.981  1.9535 -1.7346 -1.4652
 4785TIP3   OH214307   6.383   1.141   5.697  0.3661 -0.1874  0.0092
 4785TIP3    H114308   6.395   1.103   5.610  0.6833  2.1502 -0.9823
 4785TIP3    H214309   6.418   1.229   5.691 -0.0321  0.1870  2.3913
 4786TIP3   OH214310   6.858   6.288   3.251  0.2472  0.3813 -0.0542
 4786TIP3    H114311   6.889   6.291   3.161  0.3678  0.8634 -0.0015
 4786TIP3    H214312   6.937   6.305   3.304  0.4423 -1.2680  0.1983
 4787TIP3   OH214313   2.743   7.327   1.738  0.0226  0.0879  0.7450
 4787TIP3    H114314   2.796   7.276   1.678 -0.3916 -0.7088  1.0512
 4787TIP3    H214315   2.762   7.291   1.824 -2.2669 -1.3813  0.7058
 4788TIP3   OH214316   0.199   5.410   1.675 -0.2930  0.1961  0.2658
 4788TIP3    H114317   0.169   5.332   1.629  0.1127 -0.3793  0.9803
 4788TIP3    H214318   0.249   5.377   1.749  0.3133  1.1424  0.2829
 4789TIP3   OH214319   0.333   6.019   3.115 -0.1392 -0.4320  0.2873
 4789TIP3    H114320   0.391   5.973   3.176 -0.2144  0.9554  1.4120
 4789TIP3    H214321   0.319   6.105   3.155 -3.2697 -0.8675  0.2287
 4790TIP3   OH214322   5.674   0.283   3.819  0.2294 -0.0142  0.2266
 4790TIP3    H114323   5.601   0.330   3.778 -2.0461 -1.7149  2.1785
 4790TIP3    H214324   5.677   0.199   3.774  1.3254  0.2441 -0.1878
 4791TIP3   OH214325   4.135   0.448   5.130  0.1875 -0.0154 -0.2629
 4791TIP3    H114326   4.216   0.447   5.181  0.2194 -0.7918 -0.3245
 4791TIP3    H214327   4.165   0.455   5.039  0.2205 -1.4622 -0.3614
 4792TIP3   OH214328   4.180   0.329   5.726  0.5645 -0.0350  0.4856
 4792TIP3    H114329   4.154   0.300   5.639 -0.2735 -0.0788  0.7490
 4792TIP3    H214330   4.111   0.298   5.784  0.8082  0.5179  1.0836
 4793TIP3   OH214331   7.582   4.359   3.987  0.4554 -0.0901 -0.0547
 4793TIP3    H114332   7.594   4.302   3.910 -1.4517 -0.0123 -0.4318
 4793TIP3    H214333   7.659   4.342   4.041  0.9036 -1.5410 -1.1060
 4794TIP3   OH214334   1.553   5.442   3.984  0.4383  0.2492  0.2035
 4794TIP3    H114335   1.536   5.386   4.059 -0.2877  0.8850  0.5308
 4794TIP3    H214336   1.592   5.521   4.022 -0.5889  0.8618 -0.0101
 4795TIP3   OH214337   2.635   6.949   2.478  0.2028  0.5788  0.1287
 4795TIP3    H114338   2.676   6.909   2.555  0.2488 -1.2647 -0.8250
 4795TIP3    H214339   2.666   7.040   2.479  3.0462 -0.3398  0.3242
 4796TIP3   OH214340   6.178   0.633   4.740 -0.1172 -0.1301  0.6712
 4796TIP3    H114341   6.243   0.587   4.686 -1.8264 -1.5805 -0.1870
 4796TIP3    H214342   6.169   0.719   4.699  0.8932 -0.0836  0.5186
 4797TIP3   OH214343   2.826   5.255   4.362  0.2505  0.5953 -0.9519
 4797TIP3    H114344   2.816   5.345   4.330  1.3669  0.8684 -0.5740
 4797TIP3    H214345   2.742   5.213   4.343  0.8520  0.7675 -4.1566
 4798TIP3   OH214346   1.663   5.749   2.635 -0.0321  0.4167  0.1559
 4798TIP3    H114347   1.706   5.725   2.717 -1.3534  0.3127  0.8377
 4798TIP3    H214348   1.631   5.666   2.601 -0.4755  0.6053  0.1126
 4799TIP3   OH214349   0.157   6.494   5.062 -0.3507 -0.3409 -0.0034
 4799TIP3    H114350   0.136   6.521   5.151 -2.4126  2.3958 -1.2540
 4799TIP3    H214351   0.122   6.405   5.056 -0.3735 -0.4848  1.8238
 4800TIP3   OH214352   0.218   6.293   1.954  0.5256 -0.0935 -0.7522
 4800TIP3    H114353   0.231   6.379   1.995 -1.0008  0.4590 -1.3600
 4800TIP3    H214354   0.300   6.246   1.969  1.0013  1.0993  0.4866
 4801TIP3   OH214355   1.074   6.938   2.254  0.3127  0.1982  0.1366
 4801TIP3    H114356   1.133   6.994   2.203  2.0425 -0.5246  1.3203
 4801TIP3    H214357   1.082   6.969   2.344 -0.3698 -0.5473  0.4680
 4802TIP3   OH214358   0.301   6.866   2.885 -0.0297  0.6874  0.8309
 4802TIP3    H114359   0.240   6.851   2.957 -1.0248  0.2697 -0.0843
 4802TIP3    H214360   0.336   6.779   2.865  0.4757  0.8489  1.0081
 4803TIP3   OH214361   7.444   3.865   5.734 -0.5556 -0.2450 -0.0065
 4803TIP3    H114362   7.366   3.810   5.744  0.4572 -1.6899  0.2840
 4803TIP3    H214363   7.491   3.825   5.661  0.0211  0.4681 -0.0257
 4804TIP3   OH214364   1.904   5.864   2.342 -0.2671  0.1687 -0.0929
 4804TIP3    H114365   1.863   5.911   2.416 -0.4433 -1.3825  0.8204
 4804TIP3    H214366   1.994   5.848   2.371 -0.3146 -0.3774 -0.2469
 4805TIP3   OH214367   4.224   1.345   4.261 -0.1111  0.1492  0.9040
 4805TIP3    H114368   4.189   1.434   4.267 -2.8566 -0.9877  3.0639
 4805TIP3    H214369   4.259   1.327   4.348  1.4945 -0.4723  0.1359
 4806TIP3   OH214370   1.320   6.242   4.616  0.1313  0.1182  0.4185
 4806TIP3    H114371   1.326   6.286   4.531 -1.8272 -1.4560 -0.5875
 4806TIP3    H214372   1.409   6.209   4.632  0.8068  1.5069 -0.4237
 4807TIP3   OH214373   0.618   4.342   3.932  0.1438 -0.3352 -0.3129
 4807TIP3    H114374   0.622   4.333   3.837 -1.1802  0.3842 -0.4463
 4807TIP3    H214375   0.591   4.433   3.947  0.9293 -0.2712  0.7616
 4808TIP3   OH214376   4.379   6.406   3.121 -0.2206  0.3461  0.2346
 4808TIP3    H114377   4.382   6.311   3.105  0.7289  0.0174  2.2734
 4808TIP3    H214378   4.286   6.424   3.138 -0.4148 -0.1963 -0.2108
 4809TIP3   OH214379   2.288   6.435   3.124 -0.5456 -0.1531  0.5611
 4809TIP3    H114380   2.204   6.393   3.108 -0.4764  0.5105 -1.5732
 4809TIP3    H214381   2.267   6.511   3.179 -1.1263 -0.8439  1.3061
 4810TIP3   OH214382   1.292   5.342   1.335  0.5207  0.1737  0.6046
 4810TIP3    H114383   1.292   5.426   1.290 -0.9887 -0.0830  0.1030
 4810TIP3    H214384   1.317   5.278   1.268 -1.8464 -0.2228  0.0849
 4811TIP3   OH214385   7.311   6.945   0.976  0.6382 -0.3900 -0.2838
 4811TIP3    H114386   7.389   6.941   1.031  1.2087 -1.0887 -1.1364
 4811TIP3    H214387   7.308   7.035   0.944  0.8242 -0.2351  0.1323
 4812TIP3   OH214388   3.669   2.352   1.723  0.1787  0.2480 -0.4048
 4812TIP3    H114389   3.641   2.442   1.739 -0.0657  0.0246  0.4944
 4812TIP3    H214390   3.764   2.355   1.726  0.1968  0.6532 -1.4020
 4813TIP3   OH214391   4.102   7.255   2.582 -0.0554  0.0125  0.1374
 4813TIP3    H114392   4.174   7.251   2.644  1.0806 -0.5549 -1.1688
 4813TIP3    H214393   4.103   7.345   2.549  1.9862 -0.7221 -2.0204
 4814TIP3   OH214394   3.649   0.546   3.781 -0.3160 -0.7294 -0.0311
 4814TIP3    H114395   3.571   0.600   3.789  0.2343  0.0856 -0.1280
 4814TIP3    H214396   3.678   0.532   3.872 -0.1611 -0.4249 -0.0338
 4815TIP3   OH214397   7.509   6.753   1.780  0.2745  0.0077 -0.0379
 4815TIP3    H114398   7.488   6.833   1.827  1.7468  1.1757 -1.3358
 4815TIP3    H214399   7.531   6.689   1.848 -2.0495  0.3401  1.0597
 4816TIP3   OH214400   0.204   5.347   4.300 -0.2057  0.0320 -0.0779
 4816TIP3    H114401   0.258   5.365   4.377 -0.2833  0.3542 -0.1002
 4816TIP3    H214402   0.235   5.261   4.269  0.2108  0.1594 -0.0199
 4817TIP3   OH214403   2.064   6.825   3.041  0.0106 -0.1841 -0.2200
 4817TIP3    H114404   2.011   6.855   2.967  0.6900  0.8466 -0.3029
 4817TIP3    H214405   2.095   6.905   3.082  1.0812 -0.7654  0.1345
 4818TIP3   OH214406   2.888   7.148   3.588 -0.7345  0.3432  0.7742
 4818TIP3    H114407   2.966   7.096   3.568 -1.4644 -0.1179 -1.0102
 4818TIP3    H214408   2.881   7.147   3.683  0.9627 -0.3053  0.9046
 4819TIP3   OH214409   5.324   0.759   3.809 -0.4165  0.1247  0.7371
 4819TIP3    H114410   5.268   0.790   3.879 -0.0824  1.4845  0.4130
 4819TIP3    H214411   5.274   0.774   3.729  0.4228  1.3991  0.4407
 4820TIP3   OH214412   7.895   4.890   2.755  0.1971 -0.0000 -0.2901
 4820TIP3    H114413   7.824   4.852   2.806  2.0307 -0.8464  1.6867
 4820TIP3    H214414   7.878   4.861   2.665 -1.3828 -1.0063  0.3190
 4821TIP3   OH214415   2.947   0.385   1.532  0.3445  0.4298 -0.0612
 4821TIP3    H114416   3.011   0.456   1.529  0.5505  0.1790 -1.7631
 4821TIP3    H214417   2.915   0.386   1.622  1.8961  1.3059  0.4974
 4822TIP3   OH214418   2.467   5.021   0.875  0.1899  0.3624  0.1537
 4822TIP3    H114419   2.408   5.090   0.843 -1.4754 -1.2040 -0.2339
 4822TIP3    H214420   2.421   4.940   0.856 -0.0117 -0.7528  4.8428
 4823TIP3   OH214421   1.766   5.371   1.081  0.0328  0.9933 -0.5776
 4823TIP3    H114422   1.855   5.359   1.048 -0.0235  1.5882 -0.9489
 4823TIP3    H214423   1.753   5.297   1.140  0.8996  1.1031 -0.2411
 4824TIP3   OH214424   2.574   6.649   2.461 -0.2891 -0.2516 -0.5443
 4824TIP3    H114425   2.484   6.639   2.492 -0.5013  0.0006 -1.0695
 4824TIP3    H214426   2.612   6.715   2.520 -0.1329 -1.1050  0.3222
 4825TIP3   OH214427   4.216   0.415   4.275 -0.2360 -0.2671 -0.0511
 4825TIP3    H114428   4.158   0.487   4.299  1.2993  1.2026 -0.6821
 4825TIP3    H214429   4.202   0.349   4.344 -3.5237 -0.4842 -0.8349
 4826TIP3   OH214430   2.704   0.490   0.987 -0.2017 -0.6772  0.2586
 4826TIP3    H114431   2.787   0.525   0.955 -0.8065 -0.0114 -0.6139
 4826TIP3    H214432   2.713   0.489   1.083  1.6233 -2.6835  0.0996
 4827TIP3   OH214433   0.564   7.099   4.049 -0.2404  0.2018 -0.3662
 4827TIP3    H114434   0.525   7.044   4.117  1.9727  1.6716  2.1851
 4827TIP3    H214435   0.489   7.143   4.008 -1.5532 -0.2056  1.5353
 4828TIP3   OH214436   3.433   1.729   3.841  0.0381  0.0880  0.1565
 4828TIP3    H114437   3.512   1.713   3.789  0.1891  1.2111  0.0363
 4828TIP3    H214438   3.376   1.655   3.821  1.0774 -0.7613  0.2738
 4829TIP3   OH214439   2.967   6.316   2.392  0.1348  0.1269  0.2281
 4829TIP3    H114440   2.971   6.245   2.456 -4.5345  0.4991  1.0640
 4829TIP3    H214441   2.955   6.273   2.308 -2.4706 -0.1450  0.7103
 4830TIP3   OH214442   4.518   0.503   2.700 -0.4710 -0.2572  0.4667
 4830TIP3    H114443   4.476   0.485   2.615  0.5329  1.0184 -0.3054
 4830TIP3    H214444   4.535   0.597   2.699 -0.3474 -0.2565  2.0456
 4831TIP3   OH214445   4.509   6.665   0.742  0.6664  0.5757 -0.0804
 4831TIP3    H114446   4.599   6.638   0.763  0.2061 -0.5947  0.4434
 4831TIP3    H214447   4.516   6.709   0.657  1.3803 -1.7550 -1.2824
 4832TIP3   OH214448   0.651   4.370   5.915  0.0014  0.3626  0.0413
 4832TIP3    H114449   0.671   4.441   5.975 -0.0425 -1.6972  2.5704
 4832TIP3    H214450   0.569   4.333   5.947 -0.4090 -0.3317 -1.7143
 4833TIP3   OH214451   1.842   5.770   2.849 -0.1455 -0.5279 -0.3948
 4833TIP3    H114452   1.842   5.862   2.876 -0.4834 -0.1382 -1.6688
 4833TIP3    H214453   1.935   5.745   2.851  0.1052  0.2517 -1.3381
 4834TIP3   OH214454   2.592   7.022   0.747 -0.0995  0.4779  0.4938
 4834TIP3    H114455   2.540   7.026   0.828 -0.2136 -0.0580  0.4520
 4834TIP3    H214456   2.650   6.946   0.760  0.7020  1.0984  0.5589
 4835TIP3   OH214457   2.615   6.922   3.978  0.0066 -0.4850 -0.2757
 4835TIP3    H114458   2.523   6.936   4.004  0.5399 -3.4791  3.7959
 4835TIP3    H214459   2.664   6.990   4.024  0.0062  0.1467 -1.1990
 4836TIP3   OH214460   7.225   0.855   1.231 -0.7934 -0.4289  0.0702
 4836TIP3    H114461   7.166   0.849   1.156 -0.7743  1.0991 -0.0711
 4836TIP3    H214462   7.175   0.898   1.299 -0.0822  0.2209  0.1920
 4837TIP3   OH214463   3.241   6.490   3.193 -0.0000 -0.2635 -0.3317
 4837TIP3    H114464   3.206   6.407   3.162 -0.3999  0.4234 -1.7740
 4837TIP3    H214465   3.329   6.470   3.224 -0.4367 -1.3820  0.1941
 4838TIP3   OH214466   3.746   6.921   3.001  0.1369 -0.1534 -0.1206
 4838TIP3    H114467   3.710   6.987   3.059 -1.1774  1.4667 -2.7208
 4838TIP3    H214468   3.679   6.852   2.999  0.5864 -0.6369  0.9525
 4839TIP3   OH214469   2.223   6.145   1.271  0.0956 -0.7034  0.0928
 4839TIP3    H114470   2.161   6.182   1.335 -1.0487 -1.4579 -0.5606
 4839TIP3    H214471   2.309   6.174   1.302 -0.4918 -0.5017  1.6133
 4840TIP3   OH214472   3.657   7.316   2.791  0.1088  0.0848 -0.0443
 4840TIP3    H114473   3.692   7.369   2.719  1.0015 -0.0504  0.2752
 4840TIP3    H214474   3.704   7.348   2.869 -0.3294 -0.2529  0.3609
 4841TIP3   OH214475   3.183   6.114   2.420 -0.0814 -0.0753 -0.0788
 4841TIP3    H114476   3.147   6.030   2.451 -1.2969  0.4328 -0.1018
 4841TIP3    H214477   3.201   6.163   2.501  1.7721 -0.8107 -0.0198
 4842TIP3   OH214478   5.689   0.201   1.954  0.0641 -0.2512 -0.1855
 4842TIP3    H114479   5.674   0.277   2.011 -0.2748 -0.7502  0.3929
 4842TIP3    H214480   5.671   0.234   1.866  0.7985  0.5848 -0.0349
 4843TIP3   OH214481   3.770   7.147   0.029 -0.1524 -0.3294 -0.1326
 4843TIP3    H114482   3.687   7.101   0.016 -0.0119 -0.3406 -1.0340
 4843TIP3    H214483   3.766   7.221  -0.032 -0.5620  1.1185  1.6199
 4844TIP3   OH214484   1.341   0.146   0.156  0.1227 -0.2322  0.0697
 4844TIP3    H114485   1.329   0.064   0.204 -1.6145  0.7752  1.3909
 4844TIP3    H214486   1.267   0.149   0.096 -0.0437  0.5778  0.3176
 4845TIP3   OH214487   3.675   1.282   2.315  0.0497 -0.1762  0.2426
 4845TIP3    H114488   3.587   1.316   2.304 -0.5982 -2.1117 -0.6554
 4845TIP3    H214489   3.723   1.353   2.358 -2.0858  0.6614  1.2827
 4846TIP3   OH214490   6.184   1.551   3.187  0.4950  0.1303  0.0492
 4846TIP3    H114491   6.190   1.643   3.162  0.8624  0.1743  0.2912
 4846TIP3    H214492   6.215   1.503   3.110  1.0342  0.2411  0.1978
 4847TIP3   OH214493   7.504   1.546   1.797  0.2013  0.2758 -0.2707
 4847TIP3    H114494   7.426   1.550   1.852  0.6545  0.6326  0.3524
 4847TIP3    H214495   7.527   1.453   1.794 -0.2566  0.1694 -0.4698
 4848TIP3   OH214496   3.651   6.821   1.382 -1.1039 -0.1972 -0.1804
 4848TIP3    H114497   3.626   6.781   1.299 -3.2337  0.2248  0.2298
 4848TIP3    H214498   3.698   6.900   1.356 -1.6380 -0.1326 -0.9990
 4849TIP3   OH214499   3.236   6.627   4.150  0.0902  0.4453  0.0530
 4849TIP3    H114500   3.217   6.629   4.056 -0.1315 -0.9284  0.0566
 4849TIP3    H214501   3.176   6.561   4.185  0.0687  1.0574  1.1882
 4850TIP3   OH214502   7.427   2.031   6.223  0.4358 -0.1935 -0.3403
 4850TIP3    H114503   7.397   2.033   6.132  1.4162  0.4405 -0.6553
 4850TIP3    H214504   7.348   2.017   6.274 -0.3624  1.2809 -1.1671
 4851TIP3   OH214505   3.952   6.409   1.106  0.1673 -0.0889  0.0882
 4851TIP3    H114506   3.994   6.326   1.130 -2.7976 -1.6383  0.0962
 4851TIP3    H214507   3.900   6.433   1.183 -1.6450  0.0223 -1.1459
 4852TIP3   OH214508   1.886   5.451   5.942  0.0669 -0.3604 -0.4397
 4852TIP3    H114509   1.954   5.509   5.909  1.0551 -0.8737  0.6559
 4852TIP3    H214510   1.919   5.422   6.027 -0.5349 -2.2841 -0.8431
 4853TIP3   OH214511   1.484   7.153   1.932 -0.0573 -0.4849  0.2775
 4853TIP3    H114512   1.575   7.124   1.932 -0.4744 -1.8127  1.2077
 4853TIP3    H214513   1.466   7.176   1.841  0.8090 -1.4473 -0.1403
 4854TIP3   OH214514   4.340   0.756   4.822  0.5274  0.4383  0.1248
 4854TIP3    H114515   4.409   0.773   4.758  0.4792 -2.5599 -0.8185
 4854TIP3    H214516   4.263   0.733   4.769  0.3793 -1.6923  1.1890
 4855TIP3   OH214517   2.766   7.410   2.787 -0.1627  0.3624  0.1741
 4855TIP3    H114518   2.861   7.409   2.774  0.0186 -0.2266  1.4806
 4855TIP3    H214519   2.730   7.394   2.699  0.9809 -1.6251  0.0205
 4856TIP3   OH214520   3.153   5.347   1.669 -0.0793  0.5502 -0.3819
 4856TIP3    H114521   3.222   5.332   1.604 -0.7147 -1.7598 -0.5575
 4856TIP3    H214522   3.200   5.363   1.750  0.6933 -0.1367 -0.6818
 4857TIP3   OH214523   2.414   7.126   0.562  0.1606 -0.0246 -0.1942
 4857TIP3    H114524   2.484   7.166   0.510 -1.7067 -0.4061 -3.0911
 4857TIP3    H214525   2.460   7.076   0.629  2.6826 -0.0731 -1.8840
 4858TIP3   OH214526   2.407   7.449   1.136  0.8386  0.2886 -0.0160
 4858TIP3    H114527   2.482   7.453   1.196  1.5436 -0.9668 -0.7897
 4858TIP3    H214528   2.357   7.373   1.166  0.4657  0.4731 -0.1772
 4859TIP3   OH214529   3.028   0.766   3.935  0.0468 -0.1554  0.0903
 4859TIP3    H114530   2.971   0.843   3.934  0.3284  0.0556 -0.9190
 4859TIP3    H214531   3.076   0.771   3.852 -0.7504 -2.0327 -0.5235
 4860TIP3   OH214532   3.558   1.683   1.562 -0.3778  0.2387 -0.1184
 4860TIP3    H114533   3.511   1.766   1.563  0.6051  0.8118  0.4787
 4860TIP3    H214534   3.637   1.700   1.614 -0.5240 -1.2834  0.6194
 4861TIP3   OH214535   3.483   7.093   0.925  0.4146  0.6804 -0.2684
 4861TIP3    H114536   3.525   7.098   1.011  0.5747  2.9685 -0.4432
 4861TIP3    H214537   3.401   7.141   0.936 -1.3243 -2.1447 -0.4356
 4862TIP3   OH214538   4.557   2.002   2.674  0.1949  0.0201  0.6037
 4862TIP3    H114539   4.573   1.918   2.631  1.8824  0.2423  0.7556
 4862TIP3    H214540   4.494   2.047   2.618  0.4417 -0.7323 -0.2827
 4863TIP3   OH214541   5.197   6.504   0.140  0.0761 -0.2095  1.1242
 4863TIP3    H114542   5.127   6.439   0.137  0.6930 -0.9514  2.6465
 4863TIP3    H214543   5.153   6.587   0.121 -0.6129 -1.1068 -1.4455
 4864TIP3   OH214544   2.902   6.219   4.250  0.2880  0.3669  0.3658
 4864TIP3    H114545   2.947   6.160   4.189 -0.6919 -0.9626  0.9160
 4864TIP3    H214546   2.864   6.161   4.316  1.1076  1.7575  2.1172
 4865TIP3   OH214547   6.486   0.037   3.585  0.5355  0.2986  0.1764
 4865TIP3    H114548   6.565   0.035   3.639 -0.6767 -1.2630  1.9758
 4865TIP3    H214549   6.414   0.034   3.648 -0.9804  2.5534 -1.3963
 4866TIP3   OH214550   5.869   0.081   0.262 -0.0138 -0.3733 -0.2618
 4866TIP3    H114551   5.904   0.059   0.175  0.6268  1.6128 -0.5300
 4866TIP3    H214552   5.897   0.009   0.318  1.1837 -0.7404 -1.3104
 4867TIP3   OH214553   4.113   1.296   0.885 -0.3696 -0.8278 -0.1422
 4867TIP3    H114554   4.097   1.239   0.810  0.3241  0.8554 -1.6191
 4867TIP3    H214555   4.208   1.302   0.890 -0.3579  3.6420 -2.8052
 4868TIP3   OH214556   7.451   1.837   0.068  0.1667  0.0933 -0.5926
 4868TIP3    H114557   7.456   1.808   0.159 -0.2285  1.3040 -0.1767
 4868TIP3    H214558   7.358   1.834   0.046  0.3714 -1.2693 -1.3191
 4869TIP3   OH214559   3.496   6.686   1.577  0.0934  0.0746  0.7077
 4869TIP3    H114560   3.544   6.740   1.514  0.0491  0.6597  1.1749
 4869TIP3    H214561   3.495   6.599   1.537 -1.7529  0.8820 -1.0861
 4870TIP3   OH214562   4.010   6.551   2.472  0.3132  0.4813 -0.0818
 4870TIP3    H114563   4.055   6.466   2.474 -0.9989 -0.2257 -0.2205
 4870TIP3    H214564   4.068   6.608   2.422  1.1820 -0.3501 -0.0266
 4871TIP3   OH214565   5.454   0.696   2.542 -0.1669 -0.0834 -1.1084
 4871TIP3    H114566   5.497   0.727   2.462  1.9831  0.3926  0.1969
 4871TIP3    H214567   5.479   0.604   2.549 -2.5794 -0.8685 -2.3978
 4872TIP3   OH214568   5.365   0.107   0.793  0.5207  0.1732 -0.0967
 4872TIP3    H114569   5.333   0.138   0.709 -3.7185 -0.4389  1.1715
 4872TIP3    H214570   5.310   0.151   0.858  3.5876  0.5185  2.3970
 4873TIP3   OH214571   4.791   2.024   1.797  0.0493  0.1673  0.6063
 4873TIP3    H114572   4.735   1.980   1.734 -0.3623 -0.3574  1.3315
 4873TIP3    H214573   4.829   2.098   1.749  1.4215 -1.4576 -0.8630
 4874TIP3   OH214574   2.630   6.969   1.061  0.1230  0.5311 -0.3147
 4874TIP3    H114575   2.678   6.900   1.106  0.8183  0.6632 -0.8465
 4874TIP3    H214576   2.539   6.955   1.086  0.5211  0.7111  1.2587
 4875TIP3   OH214577   1.013   5.654   1.168 -0.2003  0.0623  0.0555
 4875TIP3    H114578   0.959   5.684   1.096 -1.2557 -1.1028  0.3558
 4875TIP3    H214579   1.093   5.621   1.126 -1.0534 -1.1543 -0.6278
 4876TIP3   OH214580   4.407   7.024   0.643  0.2477 -0.1352 -1.0149
 4876TIP3    H114581   4.450   7.103   0.610  2.7827 -1.3346 -0.7054
 4876TIP3    H214582   4.413   7.031   0.738 -1.0717  0.0977 -0.9325
 4877TIP3   OH214583   5.244   0.557   2.002 -0.0245  0.0802 -0.2999
 4877TIP3    H114584   5.245   0.631   2.063  0.4894  0.7892 -1.1704
 4877TIP3    H214585   5.153   0.526   2.004 -0.2095  0.6434  0.1614
 4878TIP3   OH214586   3.675   6.325   0.486  0.2241  0.1771 -0.5064
 4878TIP3    H114587   3.636   6.404   0.448  0.7453  1.4805  1.6017
 4878TIP3    H214588   3.767   6.328   0.458 -0.3284 -1.0643 -2.5636
 4879TIP3   OH214589   5.143   7.000   0.981  0.0634 -0.0414 -0.0941
 4879TIP3    H114590   5.183   6.914   0.987  1.0321  0.4691  1.0370
 4879TIP3    H214591   5.075   6.999   1.049 -0.4562 -0.1689 -0.6034
 4880TIP3   OH214592   5.731   2.086   1.799 -0.4639 -0.3974 -0.1458
 4880TIP3    H114593   5.674   2.063   1.873 -1.4137 -2.5740 -1.5002
 4880TIP3    H214594   5.691   2.164   1.762 -0.6464  0.0348  0.9453
 4881TIP3   OH214595   2.792   5.963   3.007 -0.1919 -0.1114  0.1219
 4881TIP3    H114596   2.752   5.895   3.060  0.5512 -1.0735 -0.5396
 4881TIP3    H214597   2.838   5.916   2.938  0.0927  1.0710 -0.5078
 4882TIP3   OH214598   6.371   0.540   0.050  0.2896 -0.3201 -0.1974
 4882TIP3    H114599   6.370   0.596   0.127  1.1363  0.8965 -1.0469
 4882TIP3    H214600   6.443   0.479   0.064 -0.7494 -1.3318  0.8138
 4883TIP3   OH214601   3.914   1.615   1.525  0.2537 -0.0619  0.2182
 4883TIP3    H114602   3.875   1.547   1.470 -0.0805 -0.1004  0.5006
 4883TIP3    H214603   3.929   1.572   1.609 -0.4869  0.3648  0.5791
 4884TIP3   OH214604   4.806   1.214   2.222  0.3495 -0.3926  0.1320
 4884TIP3    H114605   4.796   1.175   2.309  0.7595 -1.1076 -0.1346
 4884TIP3    H214606   4.763   1.152   2.163 -1.3958  0.9216  0.0163
 4885TIP3   OH214607   1.890   7.187   3.367  0.2869 -0.6036 -0.3766
 4885TIP3    H114608   1.817   7.172   3.428 -1.5208  1.7422 -1.8992
 4885TIP3    H214609   1.909   7.280   3.375  1.3096 -0.6565 -2.0173
 4886TIP3   OH214610   6.914   1.240   3.709  0.5730  0.5470 -0.5688
 4886TIP3    H114611   6.932   1.196   3.792  1.8590  0.5951 -0.8083
 4886TIP3    H214612   6.870   1.174   3.655  0.0327  0.4164  0.0349
 4887TIP3   OH214613   7.738   0.965   4.553  0.2676  0.1882  0.0332
 4887TIP3    H114614   7.807   0.912   4.593  1.1996 -0.1181 -1.8766
 4887TIP3    H214615   7.663   0.906   4.545  0.2890  0.0705  0.7420
 4888TIP3   OH214616   3.167   5.879   3.670  0.3768 -0.1361 -0.4996
 4888TIP3    H114617   3.258   5.905   3.680  0.2837 -0.0431  0.1590
 4888TIP3    H214618   3.164   5.788   3.699  0.3822 -0.3353 -1.1353
 4889TIP3   OH214619   4.459   0.942   4.067  0.0017  0.2710  0.3162
 4889TIP3    H114620   4.400   0.939   3.992  0.7365  0.9881 -0.3001
 4889TIP3    H214621   4.420   1.006   4.127 -0.0264  0.4952  0.0579
 4890TIP3   OH214622   4.253   5.828   2.214 -0.3845 -0.0910  0.1020
 4890TIP3    H114623   4.226   5.737   2.199  0.0929 -0.2727  0.3564
 4890TIP3    H214624   4.203   5.878   2.149  0.6972 -0.7276 -1.2417
 4891TIP3   OH214625   1.422   6.632   6.409 -0.3098 -0.2222  0.4274
 4891TIP3    H114626   1.456   6.546   6.384 -0.5595 -1.0873  2.9159
 4891TIP3    H214627   1.489   6.694   6.380  1.3079 -1.5097  1.3306
 4892TIP3   OH214628   6.058   0.650   1.654  0.4515  0.0015 -0.0797
 4892TIP3    H114629   6.075   0.560   1.628 -0.1808  0.0678 -0.7271
 4892TIP3    H214630   6.043   0.697   1.572 -1.6687  0.1766  0.3656
 4893TIP3   OH214631   0.933   1.659   2.075 -0.1939  0.9728 -0.0695
 4893TIP3    H114632   0.846   1.697   2.079 -0.6246  0.1617 -1.3459
 4893TIP3    H214633   0.975   1.703   2.001  0.1292  0.6379 -0.0873
 4894TIP3   OH214634   5.091   0.884   1.007 -0.6004  1.0334 -0.3742
 4894TIP3    H114635   5.165   0.941   1.026  0.1581 -0.3515  0.8922
 4894TIP3    H214636   5.015   0.931   1.040  0.0297  1.2615  0.7569
 4895TIP3   OH214637   3.724   6.620   3.041  0.0178 -0.4757 -0.7704
 4895TIP3    H114638   3.770   6.566   2.977  1.9395  0.5876 -0.2960
 4895TIP3    H214639   3.740   6.576   3.124 -0.1906 -0.3351 -0.6571
 4896TIP3   OH214640   6.158   2.090   3.373  0.3960 -0.3530 -0.5415
 4896TIP3    H114641   6.172   2.001   3.406  2.8683 -0.3640 -1.4529
 4896TIP3    H214642   6.167   2.146   3.451 -1.0887 -0.8806  0.0184
 4897TIP3   OH214643   7.201   1.602   1.329 -0.0363 -0.6768 -0.6497
 4897TIP3    H114644   7.176   1.510   1.317 -0.2887 -0.6144 -0.6096
 4897TIP3    H214645   7.275   1.615   1.269  1.5918 -1.5686  1.1343
 4898TIP3   OH214646   4.148   6.439   1.352 -0.1296  0.2698 -0.2760
 4898TIP3    H114647   4.082   6.396   1.406  1.1715 -1.2361  0.1585
 4898TIP3    H214648   4.140   6.532   1.373 -1.7127  0.0508  0.1823
 4899TIP3   OH214649   7.305   7.191   0.850  0.0459 -0.1645 -0.3480
 4899TIP3    H114650   7.229   7.242   0.821 -0.8767 -1.1242  0.3326
 4899TIP3    H214651   7.364   7.257   0.888 -1.3301  0.3610  0.9369
 4900TIP3   OH214652   5.757   0.701   3.664  0.1237  0.2085 -0.3830
 4900TIP3    H114653   5.809   0.661   3.735 -0.5188 -0.1471 -0.1079
 4900TIP3    H214654   5.801   0.672   3.584  1.2166  1.1109 -0.1268
 4901TIP3   OH214655   5.525   0.201   1.459 -0.1104 -0.3426  0.1128
 4901TIP3    H114656   5.465   0.186   1.532 -2.6163  0.5924 -1.6746
 4901TIP3    H214657   5.514   0.293   1.438  1.5692 -0.2971 -0.6251
 4902TIP3   OH214658   2.958   6.918   2.966  0.6848  0.2000 -0.0070
 4902TIP3    H114659   3.019   6.846   2.953  0.4205 -0.1757  0.7757
 4902TIP3    H214660   2.951   6.960   2.880  0.0254 -1.3470 -0.7242
 4903TIP3   OH214661   3.723   7.180   3.408  0.5312  0.2900  0.0251
 4903TIP3    H114662   3.791   7.154   3.470  0.5294 -1.8461 -0.8179
 4903TIP3    H214663   3.659   7.108   3.411  1.3350 -0.6926 -3.6013
 4904TIP3   OH214664   0.287   0.825   0.074  0.0847 -0.0913 -0.0092
 4904TIP3    H114665   0.270   0.872   0.156 -2.0786 -0.1607 -0.3942
 4904TIP3    H214666   0.364   0.771   0.093  0.1081  0.5177  1.7193
 4905TIP3   OH214667   1.980   7.195   2.002 -0.2430  0.3239 -0.2251
 4905TIP3    H114668   2.009   7.115   2.046  0.0998  0.1222 -0.8111
 4905TIP3    H214669   1.897   7.170   1.960  0.1258  0.1285 -0.8403
 4906TIP3   OH214670   6.777   2.084   4.284 -0.0631  0.2255 -0.4165
 4906TIP3    H114671   6.739   2.010   4.236 -0.1090  0.2068 -0.3511
 4906TIP3    H214672   6.803   2.146   4.216  0.0947  0.0910 -0.4797
 4907TIP3   OH214673   4.968   7.001   1.229  0.3926  0.0805 -0.0232
 4907TIP3    H114674   4.978   6.929   1.291 -1.3050  1.3847  1.8430
 4907TIP3    H214675   4.882   7.038   1.249  1.0988  2.4353 -1.1541
 4908TIP3   OH214676   3.454   7.061   1.454  0.3716  0.0109 -0.0981
 4908TIP3    H114677   3.498   7.145   1.466 -0.7777  0.9956 -2.5050
 4908TIP3    H214678   3.483   7.029   1.369 -0.0407 -1.5135  0.3079
 4909TIP3   OH214679   4.663   6.991   0.922  0.1189 -0.0448 -0.4542
 4909TIP3    H114680   4.574   6.964   0.898 -0.0728  1.0488 -1.0196
 4909TIP3    H214681   4.676   6.957   1.010 -0.0236 -2.1570 -1.2167
 4910TIP3   OH214682   6.809   0.174   2.895  0.6201  0.3157 -0.6428
 4910TIP3    H114683   6.741   0.109   2.911  0.5267  0.4281 -0.5770
 4910TIP3    H214684   6.890   0.132   2.925  0.5020  0.3807 -0.2242
 4911TIP3   OH214685   1.523   6.970   2.699  0.5818 -0.1645  0.0089
 4911TIP3    H114686   1.501   7.063   2.689 -2.3924 -0.8783 -0.4058
 4911TIP3    H214687   1.523   6.955   2.794 -0.1054  0.0088  0.0410
 4912TIP3   OH214688   2.542   5.674   0.897  0.6376  0.5013 -0.6635
 4912TIP3    H114689   2.482   5.718   0.957  0.2166  0.3707 -0.9875
 4912TIP3    H214690   2.614   5.644   0.953  0.5744  0.9725 -0.3333
 4913TIP3   OH214691   0.798   0.506   0.173 -0.3671 -0.1433  0.2228
 4913TIP3    H114692   0.826   0.585   0.128  0.5415  1.2444  3.1142
 4913TIP3    H214693   0.839   0.511   0.259  1.7690 -4.9728 -0.3417
 4914TIP3   OH214694   3.572   7.092   2.534 -0.2305 -0.1065  0.0692
 4914TIP3    H114695   3.544   7.170   2.487  1.1440  1.2477  1.4099
 4914TIP3    H214696   3.580   7.121   2.625  2.4941 -1.1818  0.2344
 4915TIP3   OH214697   3.768   6.087   2.319 -0.2295  0.0212 -0.0131
 4915TIP3    H114698   3.718   6.091   2.401  0.2340 -1.5953  0.3593
 4915TIP3    H214699   3.801   5.998   2.315  0.2943  0.2700 -1.6618
 4916TIP3   OH214700   5.012   0.111   0.884 -0.4578 -0.2968 -0.2878
 4916TIP3    H114701   5.014   0.034   0.827 -2.4219 -0.6074  0.0270
 4916TIP3    H214702   5.019   0.075   0.972 -0.1917 -0.0225 -0.1968
 4917TIP3   OH214703   3.043   6.759   0.878  0.2610 -0.1307  0.4045
 4917TIP3    H114704   3.003   6.807   0.806 -1.8451 -0.0907  1.5555
 4917TIP3    H214705   3.097   6.825   0.923  0.3327  0.2225 -0.1916
 4918TIP3   OH214706   5.469   0.487   4.968 -0.6195  0.3836 -0.1372
 4918TIP3    H114707   5.420   0.554   5.016 -0.6660 -0.1608  0.5857
 4918TIP3    H214708   5.404   0.447   4.909 -0.5761  1.0143 -0.6138
 4919TIP3   OH214709   5.883   0.856   3.168 -0.1903  0.6696 -0.3584
 4919TIP3    H114710   5.917   0.906   3.243 -0.4058  0.5327 -0.1677
 4919TIP3    H214711   5.864   0.922   3.102 -2.7461  1.1250  0.7451
 4920TIP3   OH214712   6.246   0.376   3.490 -0.2485 -0.2414 -0.0774
 4920TIP3    H114713   6.203   0.439   3.548 -0.4937  0.1941 -0.7412
 4920TIP3    H214714   6.213   0.291   3.521  0.5338 -0.0991  1.1886
 4921TIP3   OH214715   3.580   7.277   1.595 -0.0579  0.1867  0.3028
 4921TIP3    H114716   3.487   7.285   1.616 -0.0573  0.0097  0.3812
 4921TIP3    H214717   3.609   7.366   1.578 -0.9039 -0.0287 -2.5802
 4922TIP3   OH214718   2.248   2.804   0.897  0.0629  0.1147 -0.2184
 4922TIP3    H114719   2.199   2.724   0.874  0.1254  0.7953 -2.8602
 4922TIP3    H214720   2.331   2.772   0.932 -0.0079 -0.9981 -1.0276
 4923TIP3   OH214721   7.186   0.119   1.140  0.7000 -0.2357  0.3057
 4923TIP3    H114722   7.123   0.048   1.151 -0.9144  1.4377  2.0514
 4923TIP3    H214723   7.219   0.137   1.228  0.3645  1.8156  0.0500
 4924TIP3   OH214724   1.284   1.728   0.710  0.5990 -0.2602  0.1257
 4924TIP3    H114725   1.360   1.676   0.684  0.1950 -0.9953  0.4245
 4924TIP3    H214726   1.216   1.704   0.648  0.0464 -0.9920  1.0189
 4925TIP3   OH214727   3.961   1.700   0.989 -0.3286 -0.5011  0.2433
 4925TIP3    H114728   3.896   1.661   0.931  0.2606 -0.2087 -0.6187
 4925TIP3    H214729   3.916   1.774   1.029 -0.5889 -0.4188 -0.1977
 4926TIP3   OH214730   5.845   5.426   1.064 -0.8160 -0.0847 -0.0545
 4926TIP3    H114731   5.842   5.332   1.044 -1.5627 -0.0998  0.1103
 4926TIP3    H214732   5.861   5.430   1.158 -1.9141 -0.0565  0.1303
 4927TIP3   OH214733   7.285   7.264   1.950  0.0177  0.1197  0.0239
 4927TIP3    H114734   7.318   7.350   1.924 -1.2241 -0.3651 -3.3244
 4927TIP3    H214735   7.256   7.277   2.040  1.2899  2.7813  0.1218
 4928TIP3   OH214736   0.231   0.891   0.460 -0.0084 -0.1930  0.1691
 4928TIP3    H114737   0.147   0.860   0.495 -0.0760  1.0388  1.1177
 4928TIP3    H214738   0.296   0.831   0.498 -0.3139 -0.2685  0.5765
 4929TIP3   OH214739   6.872   5.937   1.543  0.0641  0.1274  0.5392
 4929TIP3    H114740   6.838   6.006   1.486  0.8270 -1.7312 -2.2371
 4929TIP3    H214741   6.967   5.951   1.543  0.1909 -0.7313  0.2332
 4930TIP3   OH214742   6.824   2.393   1.382 -1.1004  0.5491 -0.7379
 4930TIP3    H114743   6.904   2.405   1.331  0.4277 -0.5141  1.3604
 4930TIP3    H214744   6.769   2.337   1.327 -0.6789  1.7641 -2.4386
 4931TIP3   OH214745   6.069   0.628   0.857  0.4014 -0.4147 -0.2699
 4931TIP3    H114746   6.073   0.570   0.781  0.4205 -0.9059  0.1090
 4931TIP3    H214747   6.152   0.614   0.902  1.1055  1.0885 -1.0446
 4932TIP3   OH214748   4.104   4.961   5.336 -0.0236  0.3732 -0.1564
 4932TIP3    H114749   4.039   4.984   5.403 -0.7545  0.5612 -0.9213
 4932TIP3    H214750   4.186   4.995   5.370 -0.5573  1.3339  0.1896
 4933TIP3   OH214751   7.265   0.668   0.958  0.3979 -0.2748 -0.7841
 4933TIP3    H114752   7.307   0.695   0.877  1.1689  0.0794 -0.2729
 4933TIP3    H214753   7.194   0.731   0.971  0.7725  0.1514 -0.7773
 4934TIP3   OH214754   0.130   1.572   2.027 -0.1057  0.3016  0.2237
 4934TIP3    H114755   0.056   1.551   1.968  0.7185 -2.0056 -0.0366
 4934TIP3    H214756   0.092   1.567   2.115 -0.6918  0.9840  0.0175
 4935TIP3   OH214757   4.223   5.281   5.611 -0.7304 -0.0222  0.5185
 4935TIP3    H114758   4.134   5.264   5.642 -0.9072 -2.2970 -1.0612
 4935TIP3    H214759   4.276   5.279   5.691 -1.9214  0.0037  1.3310
 4936TIP3   OH214760   6.454   0.382   0.580  0.0711 -0.8816  0.3399
 4936TIP3    H114761   6.490   0.455   0.529  0.1050 -1.2273 -0.1413
 4936TIP3    H214762   6.504   0.382   0.661 -0.8255  0.4437  0.8887
 4937TIP3   OH214763   0.776   0.173   1.538  0.0087  0.3150 -0.0796
 4937TIP3    H114764   0.838   0.101   1.530  0.7993  1.0460 -0.7178
 4937TIP3    H214765   0.712   0.143   1.603  2.0462  0.2493  1.9770
 4938TIP3   OH214766   0.983   0.424   0.374 -0.4903  0.2480 -0.3736
 4938TIP3    H114767   1.078   0.436   0.368 -0.6010  1.8296  0.7991
 4938TIP3    H214768   0.971   0.330   0.384  0.9265 -0.0096 -0.9995
 4939TIP3   OH214769   5.041   0.909   2.631 -0.1434 -0.5524  0.2750
 4939TIP3    H114770   5.063   0.998   2.607 -2.6831 -0.0797 -0.4797
 4939TIP3    H214771   5.009   0.915   2.722 -2.6903 -0.2353 -0.5960
 4940TIP3   OH214772   2.050   7.008   1.727 -0.2955 -0.0081  0.2621
 4940TIP3    H114773   2.021   6.925   1.688  1.2059 -0.6032  0.3755
 4940TIP3    H214774   2.065   6.987   1.819 -1.1544  0.7162  0.5726
 4941TIP3   OH214775   5.540   0.433   0.100 -0.6737 -0.6063  0.1259
 4941TIP3    H114776   5.573   0.390   0.179 -1.5882 -0.6374  0.5004
 4941TIP3    H214777   5.508   0.518   0.131 -1.9576 -1.0185 -0.0215
 4942TIP3   OH214778   6.300   0.228   3.064 -0.1069  1.1441 -0.2900
 4942TIP3    H114779   6.362   0.169   3.020 -0.1734  1.9734 -1.5168
 4942TIP3    H214780   6.243   0.170   3.113  0.3971  0.2349 -0.7605
 4943TIP3   OH214781   3.560   4.888   6.103 -0.2126 -0.0065 -0.4116
 4943TIP3    H114782   3.467   4.886   6.079 -0.5517 -0.1175  0.8311
 4943TIP3    H214783   3.559   4.899   6.198  1.0321 -1.4192 -0.2164
 4944TIP3   OH214784   6.784   5.027   0.471  0.5297  0.1299  0.2355
 4944TIP3    H114785   6.826   5.057   0.551 -0.3589 -1.6122  1.3738
 4944TIP3    H214786   6.739   4.947   0.495  0.1018 -0.3421 -1.9751
 4945TIP3   OH214787   6.904   0.364   2.147 -0.1746  0.0731 -0.8349
 4945TIP3    H114788   6.910   0.297   2.079 -0.6773 -0.8680  0.0288
 4945TIP3    H214789   6.815   0.398   2.140 -1.2425 -2.1081  1.2337
 4946TIP3   OH214790   5.507   0.859   2.760  0.7293  0.4096 -0.2322
 4946TIP3    H114791   5.463   0.802   2.696  0.2961  1.6162 -1.0214
 4946TIP3    H214792   5.463   0.840   2.843  2.1115 -2.0679 -0.0123
 4947TIP3   OH214793   0.764   1.225   2.114  0.6245 -0.4592 -0.9172
 4947TIP3    H114794   0.738   1.212   2.205  0.1223 -1.1114 -1.1439
 4947TIP3    H214795   0.687   1.267   2.074  0.2002 -1.7097 -1.4233
 4948TIP3   OH214796   3.017   5.480   6.248 -0.0985 -0.2615 -0.2104
 4948TIP3    H114797   2.984   5.435   6.325  0.7448  1.0631  0.9424
 4948TIP3    H214798   3.104   5.443   6.234 -0.4182 -0.8053 -0.7888
 4949TIP3   OH214799   1.494   3.149   2.639 -0.1301  0.1521 -0.1872
 4949TIP3    H114800   1.412   3.108   2.668 -0.2953  0.5113 -0.1468
 4949TIP3    H214801   1.483   3.160   2.544 -0.2081  0.3767 -0.1530
 4950TIP3   OH214802   4.515   6.618   0.087  0.3530 -0.7546  0.5478
 4950TIP3    H114803   4.606   6.644   0.100  0.9081 -1.9960 -0.6840
 4950TIP3    H214804   4.521   6.534   0.041 -1.4148 -0.4948 -0.1734
 4951TIP3   OH214805   4.972   0.173   2.049  0.1241 -0.1487  0.0149
 4951TIP3    H114806   4.927   0.103   2.001 -1.0839  0.8093 -0.2660
 4951TIP3    H214807   4.952   0.156   2.141 -1.7584  0.9076 -0.1822
 4952TIP3   OH214808   3.700   4.686   5.971 -0.3567 -0.4929 -0.2573
 4952TIP3    H114809   3.637   4.616   5.989 -0.8282 -0.2022 -0.7741
 4952TIP3    H214810   3.666   4.762   6.019  1.2294 -1.1471  1.9631
 4953TIP3   OH214811   5.745   7.193   0.445 -0.1182 -0.8208 -0.4609
 4953TIP3    H114812   5.759   7.127   0.377  0.9214 -1.1760  0.0919
 4953TIP3    H214813   5.827   7.195   0.493 -0.6068 -0.0514  0.3414
 4954TIP3   OH214814   3.443   6.928   1.673  0.3665  0.3243 -0.5076
 4954TIP3    H114815   3.477   6.842   1.647 -1.5623  0.2227 -2.8909
 4954TIP3    H214816   3.459   6.983   1.596  0.4790  1.7863  0.5632
 4955TIP3   OH214817   1.683   0.144   0.232 -0.1605 -0.0626 -0.5037
 4955TIP3    H114818   1.721   0.232   0.240 -0.1359 -0.2308  1.3030
 4955TIP3    H214819   1.706   0.100   0.313 -1.0351 -1.4225 -0.9762
 4956TIP3   OH214820   7.640   2.470   5.674 -0.0940  0.4723  0.4300
 4956TIP3    H114821   7.696   2.394   5.691  0.8011  1.2879  1.1679
 4956TIP3    H214822   7.567   2.459   5.735 -0.4929 -0.3159 -0.1696
 4957TIP3   OH214823   1.820   6.463   3.895  0.7421 -0.2472  0.4814
 4957TIP3    H114824   1.793   6.380   3.856 -0.3574 -0.9577  2.6789
 4957TIP3    H214825   1.880   6.502   3.831 -2.3084 -0.5564 -2.7064
 4958TIP3   OH214826   0.929   0.158   0.452 -0.3637  0.3077  0.0420
 4958TIP3    H114827   0.891   0.104   0.521  0.1537  0.6177  0.5662
 4958TIP3    H214828   0.959   0.096   0.386  0.7867 -0.0689  0.9239
 4959TIP3   OH214829   3.752   6.870   0.595  0.6994  0.5307 -0.2087
 4959TIP3    H114830   3.689   6.798   0.601 -1.0633  2.0607  0.1806
 4959TIP3    H214831   3.837   6.830   0.614 -0.3947 -1.2175  1.1431
 4960TIP3   OH214832   0.288   1.946   1.116 -0.0345  0.5483 -0.1110
 4960TIP3    H114833   0.277   1.917   1.026  0.0958  1.5704 -0.4658
 4960TIP3    H214834   0.212   2.001   1.134 -0.9963 -1.1059  1.0160
 4961TIP3   OH214835   1.057   0.212   1.181 -0.2121  0.0645  0.1973
 4961TIP3    H114836   1.039   0.121   1.159 -0.8095  0.2684 -0.1408
 4961TIP3    H214837   0.973   0.257   1.172 -0.4191  0.2270  2.5023
 4962TIP3   OH214838   0.749   0.843   1.681 -0.4779  0.0192 -0.3379
 4962TIP3    H114839   0.793   0.763   1.650  0.1922  0.1188  0.3355
 4962TIP3    H214840   0.656   0.825   1.669 -0.3081 -0.6467 -0.7175
 4963TIP3   OH214841   6.032   0.278   0.003 -0.0146 -0.0129  0.0498
 4963TIP3    H114842   5.937   0.274  -0.006  0.1288 -0.1545 -1.7109
 4963TIP3    H214843   6.047   0.302   0.094 -1.7631  1.3962 -0.0125
 4964TIP3   OH214844   5.688   7.287   1.801 -0.3377  0.2504 -0.3314
 4964TIP3    H114845   5.639   7.368   1.814 -0.7101  0.1843 -1.2931
 4964TIP3    H214846   5.691   7.247   1.888 -1.3500  0.6254 -0.1117
 4965TIP3   OH214847   0.089   2.144   1.168  0.1758 -0.0193  0.4272
 4965TIP3    H114848   0.052   2.112   1.250 -0.4171  0.6490  0.4247
 4965TIP3    H214849   0.012   2.165   1.114  0.5383  1.9024  0.6270
 4966TIP3   OH214850   0.259   0.827   2.205 -0.2037  0.3159  0.3208
 4966TIP3    H114851   0.226   0.872   2.283 -0.9420 -0.3237  0.3786
 4966TIP3    H214852   0.181   0.786   2.166  0.4479 -0.8461  0.2239
 4967TIP3   OH214853   1.319   1.457   3.359  0.0662  0.4612  0.0291
 4967TIP3    H114854   1.373   1.390   3.316 -0.2439  0.3794 -0.2300
 4967TIP3    H214855   1.311   1.426   3.449 -0.4653 -0.0941 -0.2023
 4968TIP3   OH214856   1.235   0.866   3.029 -0.2960  0.4975 -0.2156
 4968TIP3    H114857   1.243   0.927   3.101 -0.5875 -0.1046  0.3323
 4968TIP3    H214858   1.222   0.780   3.071  2.7959 -0.3697 -0.8995
 4969TIP3   OH214859   0.869   5.058   5.499 -0.6596  0.4514  0.5019
 4969TIP3    H114860   0.780   5.028   5.519 -0.9757  1.6120  0.8290
 4969TIP3    H214861   0.925   5.002   5.554 -1.0619 -1.2748 -0.7761
 4970TIP3   OH214862   6.652   0.080   0.736  0.6144 -0.0287  0.1165
 4970TIP3    H114863   6.728   0.134   0.718  0.8502 -0.5539 -0.4816
 4970TIP3    H214864   6.615   0.060   0.650 -0.3600  0.4557  0.4145
 4971TIP3   OH214865   3.519   4.211   5.870  0.0197  0.1467 -0.1475
 4971TIP3    H114866   3.453   4.195   5.801  2.5002  0.9253 -2.8172
 4971TIP3    H214867   3.572   4.131   5.871  1.5170  1.1068 -0.9398
 4972TIP3   OH214868   0.366   0.167   3.486 -0.1471  0.0043  0.2162
 4972TIP3    H114869   0.279   0.158   3.526 -0.3497  0.3340 -0.1429
 4972TIP3    H214870   0.393   0.256   3.506 -0.1770  0.1162 -0.2305
 4973TIP3   OH214871   7.539   6.573   0.772 -0.1854 -0.6353 -0.2392
 4973TIP3    H114872   7.574   6.499   0.821 -2.5102 -0.8505  1.1470
 4973TIP3    H214873   7.611   6.636   0.768  0.1915 -0.7715  3.1401
 4974TIP3   OH214874   5.464   6.293   1.325 -0.0918  0.3474 -0.2192
 4974TIP3    H114875   5.422   6.212   1.354  0.1197  0.5233  0.5913
 4974TIP3    H214876   5.444   6.298   1.232  0.1583 -0.7968 -0.3463
 4975TIP3   OH214877   1.434   5.001   6.329  0.1059 -0.1275  0.2537
 4975TIP3    H114878   1.416   4.921   6.281 -1.1862  0.0066  0.4932
 4975TIP3    H214879   1.439   4.973   6.421 -0.4637  0.0800  0.3495
 4976TIP3   OH214880   1.134   0.953   2.353 -0.5200  0.1185  0.1091
 4976TIP3    H114881   1.193   0.887   2.390 -3.5045 -1.6500  1.9563
 4976TIP3    H214882   1.184   0.994   2.283  2.3888 -2.2358  0.7144
 4977TIP3   OH214883   0.165   0.869   1.641 -0.2575 -0.1696  0.4927
 4977TIP3    H114884   0.146   0.789   1.591  1.5273  0.0515 -0.6063
 4977TIP3    H214885   0.195   0.838   1.726  1.0797 -0.7257 -0.1604
 4978TIP3   OH214886   4.703   3.108   6.399  0.0890 -0.7630  0.1848
 4978TIP3    H114887   4.667   3.083   6.484  0.5039 -0.5236  0.4297
 4978TIP3    H214888   4.736   3.026   6.362 -0.3456 -0.9169  0.1259
 4979TIP3   OH214889   4.832   6.975   3.185 -0.0683 -0.1295 -0.2384
 4979TIP3    H114890   4.828   7.069   3.169 -0.0311 -0.2441 -0.9295
 4979TIP3    H214891   4.866   6.938   3.103 -1.4757 -0.8818 -0.5061
 4980TIP3   OH214892   2.430   5.118   2.031 -0.4917  0.5801 -0.4690
 4980TIP3    H114893   2.518   5.133   1.998  0.0487  0.4424  0.8577
 4980TIP3    H214894   2.404   5.203   2.067 -0.8717  0.6071 -0.8130
 4981TIP3   OH214895   4.405   6.755   2.084  0.0366  0.2817 -0.7520
 4981TIP3    H114896   4.406   6.660   2.080 -2.3773  0.1104  1.5133
 4981TIP3    H214897   4.498   6.780   2.091  0.5388 -2.0532  1.3638
 4982TIP3   OH214898   5.371   7.396   0.299  0.7499  0.3101 -0.3379
 4982TIP3    H114899   5.294   7.360   0.255 -0.2484 -0.4063  1.9533
 4982TIP3    H214900   5.445   7.356   0.252 -0.2883 -0.6565 -1.1848
 4983TIP3   OH214901   4.162   6.829   2.455 -0.4750 -0.3536 -0.1479
 4983TIP3    H114902   4.138   6.913   2.417 -2.7154 -0.5345  0.7889
 4983TIP3    H214903   4.246   6.845   2.498 -0.1273  0.9842 -1.3065
 4984TIP3   OH214904   4.919   5.590   4.509 -0.3979  0.2519  0.0240
 4984TIP3    H114905   4.827   5.609   4.523  0.1937  2.5582  1.0919
 4984TIP3    H214906   4.962   5.617   4.591  1.3256  0.2100 -0.8278
 4985TIP3   OH214907   1.603   0.422   0.839 -0.9031 -0.0040  0.0955
 4985TIP3    H114908   1.537   0.352   0.844  0.3138 -1.2795 -1.3091
 4985TIP3    H214909   1.687   0.377   0.850 -0.1169  1.2468 -0.7078
 4986TIP3   OH214910   7.608   0.297   1.451  0.6755 -0.0440 -0.0050
 4986TIP3    H114911   7.655   0.378   1.434  0.9648 -0.4138 -0.9817
 4986TIP3    H214912   7.535   0.297   1.388  0.2658 -0.2044  0.4620
 4987TIP3   OH214913   0.841   6.515   2.952 -0.0019 -0.1987  0.2627
 4987TIP3    H114914   0.763   6.542   3.000  0.0605  0.0620  0.2190
 4987TIP3    H214915   0.870   6.594   2.906  0.4802 -0.2086  0.5455
 4988TIP3   OH214916   0.234   0.074  -0.020  0.6532  0.3149 -0.1455
 4988TIP3    H114917   0.267   0.041   0.063 -0.6045  0.7467  0.5326
 4988TIP3    H214918   0.165   0.136   0.004 -0.9462 -0.8665 -1.5528
 4989TIP3   OH214919   5.831   6.852   5.358  0.1888 -0.4077  0.5245
 4989TIP3    H114920   5.794   6.764   5.372  0.2157 -0.5521 -0.3270
 4989TIP3    H214921   5.922   6.844   5.387 -0.3998 -0.0770  2.5434
 4990TIP3   OH214922   6.428   5.538   3.698  0.1942  0.5325  0.3565
 4990TIP3    H114923   6.497   5.594   3.660  0.8525 -0.6092 -0.1509
 4990TIP3    H214924   6.395   5.487   3.624  1.1276 -1.3325  1.1789
 4991TIP3   OH214925   2.113   1.936   4.477  0.1554 -0.8209  0.5808
 4991TIP3    H114926   2.132   1.985   4.397 -0.1594 -0.9834  0.4040
 4991TIP3    H214927   2.018   1.945   4.488  0.3960  0.3617  1.7031
 4992TIP3   OH214928   5.529   6.916   4.661  0.5214  0.0579  0.0007
 4992TIP3    H114929   5.473   6.863   4.605  0.1843  2.3155 -1.8604
 4992TIP3    H214930   5.496   7.005   4.652  3.5099  1.2363 -0.0261
 4993TIP3   OH214931   6.332   5.925   4.707 -0.1981  0.3895 -0.2032
 4993TIP3    H114932   6.315   5.868   4.782  3.0759 -1.7999 -1.0271
 4993TIP3    H214933   6.360   6.008   4.747  1.0763 -0.6026  1.0691
 4994TIP3   OH214934   3.137   0.286   5.398 -0.1047 -0.1729 -0.3601
 4994TIP3    H114935   3.050   0.311   5.368 -0.0410  0.4189 -0.0549
 4994TIP3    H214936   3.122   0.208   5.452 -0.5282  0.3197  0.2471
 4995TIP3   OH214937   3.448   1.496   5.853 -0.5289 -0.3978  0.2849
 4995TIP3    H114938   3.397   1.431   5.804  1.4584 -0.1608 -2.2057
 4995TIP3    H214939   3.450   1.463   5.943 -2.0474 -2.2239 -0.3233
 4996TIP3   OH214940   1.816   0.890   4.492  0.1965 -0.2739 -0.2521
 4996TIP3    H114941   1.734   0.917   4.450 -0.1497 -1.4364 -0.3477
 4996TIP3    H214942   1.869   0.855   4.420  1.3212  1.6891 -0.4139
 4997TIP3   OH214943   4.810   5.014   0.171  0.3382 -0.0608 -0.4108
 4997TIP3    H114944   4.894   4.982   0.138 -0.0578 -1.9824  0.4010
 4997TIP3    H214945   4.824   5.025   0.265 -0.0356  0.5526 -0.4262
 4998TIP3   OH214946   4.131   5.108   0.910 -0.4366 -0.7099 -0.1697
 4998TIP3    H114947   4.043   5.104   0.947 -0.1691 -1.4994  0.4100
 4998TIP3    H214948   4.134   5.037   0.846  0.1437 -1.4301  0.6443
 4999TIP3   OH214949   3.366   5.010   0.144  0.3395  0.1622  0.4401
 4999TIP3    H114950   3.319   5.092   0.131  0.0863  0.0293  0.5026
 4999TIP3    H214951   3.350   4.961   0.063 -0.5331 -0.3233  0.8946
 5000TIP3   OH214952   2.791   1.027   6.291  0.0101  0.3010 -0.3017
 5000TIP3    H114953   2.864   0.973   6.324  1.0392  1.5763 -0.4628
 5000TIP3    H214954   2.713   0.976   6.311  0.8931 -0.7224  0.6098
 5001TIP3   OH214955   5.453   6.915   5.098  0.1587 -0.1844 -0.1456
 5001TIP3    H114956   5.463   7.010   5.087  0.8666 -0.3627 -1.0677
 5001TIP3    H214957   5.390   6.890   5.031  0.8449 -0.5451 -0.6541
 5002TIP3   OH214958   3.701   3.183   0.228 -0.2583  0.2243  0.2288
 5002TIP3    H114959   3.707   3.116   0.296  0.0219 -0.0109 -0.0277
 5002TIP3    H214960   3.726   3.265   0.271  2.0892 -0.2737 -0.1335
 5003TIP3   OH214961   1.653   1.412   5.347  0.0884  0.0722 -0.0722
 5003TIP3    H114962   1.687   1.447   5.265  0.8384 -2.2214 -0.7678
 5003TIP3    H214963   1.558   1.407   5.333  0.1695  0.0905 -0.6397
 5004TIP3   OH214964   4.837   6.069   0.452  0.0802 -0.1741 -0.1520
 5004TIP3    H114965   4.796   5.983   0.442 -1.2138  0.5138 -0.7911
 5004TIP3    H214966   4.789   6.111   0.524  0.4859  0.1483 -0.0678
 5005TIP3   OH214967   3.224   1.598   6.048 -0.0140  0.3758 -0.4544
 5005TIP3    H114968   3.270   1.533   6.101  1.0181  1.3059 -0.1780
 5005TIP3    H214969   3.162   1.547   5.995  0.2977 -0.7485  0.2518
 5006TIP3   OH214970   0.225   0.739   6.072 -0.1116  0.0535 -0.6181
 5006TIP3    H114971   0.302   0.735   6.129  0.0690 -0.8601 -0.9310
 5006TIP3    H214972   0.250   0.692   5.993 -1.3825 -1.2304 -0.2709
 5007TIP3   OH214973   0.760   3.909   5.489 -0.2586  0.1919  0.2979
 5007TIP3    H114974   0.760   3.864   5.405 -2.6491  0.3584  0.1592
 5007TIP3    H214975   0.751   3.838   5.554 -0.6554  0.2066  0.2643
 5008TIP3   OH214976   2.047   0.964   5.727  0.0363  0.4175 -0.1855
 5008TIP3    H114977   2.021   1.039   5.672 -0.4111 -0.5069 -1.2465
 5008TIP3    H214978   2.063   1.003   5.813 -1.7457  1.5145 -0.3112
 5009TIP3   OH214979   0.090   0.398   4.417  0.4812 -0.1165  0.6092
 5009TIP3    H114980   0.102   0.389   4.512  1.4062 -0.7904  0.4393
 5009TIP3    H214981   0.094   0.308   4.384  0.8960  0.1749 -0.1473
 5010TIP3   OH214982   7.566   6.879   5.248  0.0684 -0.4911 -0.6204
 5010TIP3    H114983   7.495   6.927   5.205  1.2324  0.7732 -1.1819
 5010TIP3    H214984   7.525   6.799   5.280 -1.7413  0.5024 -0.3781
 5011TIP3   OH214985   1.809   1.607   4.827  0.1389 -0.5213 -0.6330
 5011TIP3    H114986   1.743   1.648   4.770  1.5188  1.0275 -1.1596
 5011TIP3    H214987   1.832   1.675   4.890  1.2058 -1.0707 -0.4258
 5012TIP3   OH214988   2.951   0.149   4.541 -0.3566  0.4207  0.0039
 5012TIP3    H114989   3.023   0.108   4.590  0.1503  1.3308  0.0254
 5012TIP3    H214990   2.872   0.111   4.579  0.1323 -1.3943 -0.7324
 5013TIP3   OH214991   7.504   2.817   5.674 -0.2624  0.2052  0.0085
 5013TIP3    H114992   7.527   2.905   5.703 -0.2513 -0.0359  0.7436
 5013TIP3    H214993   7.579   2.763   5.699  0.1252  0.1464 -1.2646
 5014TIP3   OH214994   6.732   5.397   0.036 -0.1122 -0.1965 -0.1279
 5014TIP3    H114995   6.775   5.477   0.066 -1.7250  0.9364 -0.7809
 5014TIP3    H214996   6.700   5.418  -0.051 -0.8104 -1.4747 -0.1884
 5015TIP3   OH214997   5.567   6.052   2.976  0.2374 -0.1162 -0.3272
 5015TIP3    H114998   5.655   6.089   2.963  0.1803  0.0809 -0.1506
 5015TIP3    H214999   5.577   5.994   3.052  0.4423 -0.8479 -0.8982
 5016TIP3   OH215000   0.455   1.771   3.034  0.2208  0.0563  0.5404
 5016TIP3    H115001   0.427   1.844   2.979  1.5391  0.6032  0.5931
 5016TIP3    H215002   0.509   1.717   2.976  0.8593  0.1521  1.0451
 5017TIP3   OH215003   3.012   2.142   5.673 -0.3303  0.3069  0.1535
 5017TIP3    H115004   3.080   2.087   5.712 -0.0814  0.7485  0.3537
 5017TIP3    H215005   2.958   2.169   5.747 -0.0149  0.9286  0.1651
 5018TIP3   OH215006   1.990   0.526   4.098  0.1654  0.6890 -0.2888
 5018TIP3    H115007   2.039   0.511   4.017  1.5043 -1.0238  0.8336
 5018TIP3    H215008   1.904   0.486   4.082  0.2218  0.8560 -1.0435
 5019TIP3   OH215009   1.470   2.130   3.840 -0.6567 -0.6088  0.4080
 5019TIP3    H115010   1.438   2.104   3.926 -0.8205 -0.2239  0.4606
 5019TIP3    H215011   1.420   2.076   3.779 -1.3525 -0.0632  0.4910
 5020TIP3   OH215012   0.907   0.905   2.755  0.0883 -0.1055 -0.1873
 5020TIP3    H115013   0.972   0.854   2.803 -0.5436 -1.1141 -0.3779
 5020TIP3    H215014   0.913   0.873   2.665 -0.4343  0.0274 -0.2712
 5021TIP3   OH215015   4.611   6.327   1.409  0.8315 -0.1851  0.1630
 5021TIP3    H115016   4.601   6.372   1.325 -0.1794  0.4533  0.6260
 5021TIP3    H215017   4.566   6.244   1.397  0.4404  0.0266  0.1755
 5022TIP3   OH215018   3.886   5.506   0.433 -0.1160 -0.0534 -0.1883
 5022TIP3    H115019   3.848   5.453   0.363 -1.6022  0.8592 -0.1054
 5022TIP3    H215020   3.973   5.468   0.448 -1.0171 -2.2380 -0.3367
 5023TIP3   OH215021   1.716   1.536   5.111 -0.2054  0.0245 -0.0485
 5023TIP3    H115022   1.774   1.543   5.035  1.6554 -1.1763  1.2008
 5023TIP3    H215023   1.687   1.625   5.128  2.5396  0.9202  0.2224
 5024TIP3   OH215024   5.006   4.698   0.039 -0.4313  0.4592 -0.3151
 5024TIP3    H115025   5.007   4.780   0.089 -0.5904 -1.6606  3.3788
 5024TIP3    H215026   5.058   4.638   0.092 -2.6436 -2.6296 -1.5068
 5025TIP3   OH215027   7.225   0.154   6.051  0.0233 -0.4572  0.2277
 5025TIP3    H115028   7.163   0.082   6.041 -0.2647 -0.6431  2.9068
 5025TIP3    H215029   7.170   0.231   6.067  0.3552  0.2370 -1.9010
 5026TIP3   OH215030   4.153   6.756   1.614  0.1323  0.1654  0.4537
 5026TIP3    H115031   4.118   6.839   1.644 -1.0121 -0.1895  0.1185
 5026TIP3    H215032   4.118   6.745   1.526  1.2372 -0.1115  0.0331
 5027TIP3   OH215033   2.714   0.467   6.262  0.7266 -0.3831 -0.2178
 5027TIP3    H115034   2.702   0.546   6.208 -0.1961 -1.2324 -1.2712
 5027TIP3    H215035   2.769   0.497   6.334 -2.6476  2.1473  1.4447
 5028TIP3   OH215036   1.192   1.311   4.592  0.2299  0.3732  0.5400
 5028TIP3    H115037   1.225   1.392   4.553 -0.9761 -0.3895 -2.1576
 5028TIP3    H215038   1.120   1.339   4.648 -1.2126  1.0333 -1.6140
 5029TIP3   OH215039   4.474   4.426   0.476 -0.0580  0.4528 -0.0252
 5029TIP3    H115040   4.525   4.367   0.420 -0.9754 -1.1277  0.7802
 5029TIP3    H215041   4.458   4.503   0.421 -0.8977 -1.0401 -1.9218
 5030TIP3   OH215042   0.618   1.789   4.427 -0.2006  0.4248  0.3302
 5030TIP3    H115043   0.571   1.867   4.400 -0.8080 -0.3789 -0.9665
 5030TIP3    H215044   0.675   1.819   4.498  0.2507  2.2285 -0.7647
 5031TIP3   OH215045   7.797   7.456   5.481 -0.6491  0.3353  0.0661
 5031TIP3    H115046   7.714   7.474   5.524 -0.8007 -1.5553  0.5861
 5031TIP3    H215047   7.808   7.361   5.488  0.9244  0.4135 -1.1386
 5032TIP3   OH215048   6.274   5.098   4.233  0.0297  0.3309 -0.0501
 5032TIP3    H115049   6.325   5.106   4.152  0.2423  0.5270  0.1015
 5032TIP3    H215050   6.335   5.124   4.302 -0.4132  0.9947  0.0898
 5033TIP3   OH215051   1.708   1.018   5.694 -0.5110  0.1819 -0.5477
 5033TIP3    H115052   1.748   1.080   5.633 -1.0215 -0.2685 -1.3374
 5033TIP3    H215053   1.760   1.028   5.774 -0.9675  2.0530 -0.4654
 5034TIP3   OH215054   5.611   7.295   3.672  0.1049  0.6363 -0.0671
 5034TIP3    H115055   5.520   7.322   3.662  0.2255  1.3962  0.8380
 5034TIP3    H215056   5.608   7.218   3.729 -0.1194 -0.4644 -1.5369
 5035TIP3   OH215057   2.457   2.760   5.739 -0.0317  0.1634 -0.3441
 5035TIP3    H115058   2.520   2.735   5.806 -0.8025  1.8465  1.0579
 5035TIP3    H215059   2.476   2.702   5.665 -0.1100 -2.7022  1.8188
 5036TIP3   OH215060   1.625   0.857   5.928  0.8287 -0.2009 -0.4830
 5036TIP3    H115061   1.716   0.831   5.946  0.8328 -0.5862 -1.0629
 5036TIP3    H215062   1.573   0.783   5.959  0.7346 -0.1539 -0.5316
 5037TIP3   OH215063   1.854   1.324   4.638 -0.7460  0.1182  0.1753
 5037TIP3    H115064   1.774   1.307   4.588 -0.8991  0.2956  0.3620
 5037TIP3    H215065   1.828   1.312   4.730 -0.4066 -0.4510  0.1994
 5038TIP3   OH215066   5.002   4.024   0.505 -0.2518  0.1079  0.0380
 5038TIP3    H115067   5.010   3.934   0.474 -0.5077  0.0891  0.0259
 5038TIP3    H215068   5.093   4.052   0.522  0.0526  0.6819 -2.3248
 5039TIP3   OH215069   6.044   2.641   0.036 -0.1225  0.6838  0.2505
 5039TIP3    H115070   5.985   2.704   0.079  0.0476 -0.0953  1.6535
 5039TIP3    H215071   5.991   2.603  -0.034 -1.1681  0.2726  1.2577
 5040TIP3   OH215072   6.930   7.356   5.068 -0.4808  0.3258  0.5047
 5040TIP3    H115073   6.862   7.293   5.093  1.1404 -1.3135  0.8458
 5040TIP3    H215074   6.996   7.350   5.137  1.2377  0.0378 -1.1253
 5041TIP3   OH215075   3.257   3.727   0.630 -0.5131 -0.4535  0.1481
 5041TIP3    H115076   3.302   3.689   0.706 -0.0242 -1.4043 -0.6088
 5041TIP3    H215077   3.322   3.727   0.560 -0.8305  0.8213 -0.1604
 5042TIP3   OH215078   1.452   1.234   5.633 -0.2583  0.4248  0.2829
 5042TIP3    H115079   1.446   1.151   5.681 -1.1713  0.2501 -0.1184
 5042TIP3    H215080   1.525   1.221   5.572 -0.0581  0.1063  0.5887
 5043TIP3   OH215081   2.608   1.647   4.616  0.3516  0.0611 -0.2450
 5043TIP3    H115082   2.522   1.689   4.608 -0.2903 -0.6866  2.3139
 5043TIP3    H215083   2.666   1.718   4.642 -0.0501  0.0329  0.7373
 5044TIP3   OH215084   5.501   4.714   0.392  0.5049  0.0523  0.1905
 5044TIP3    H115085   5.491   4.809   0.396 -0.9260 -0.0121 -1.3261
 5044TIP3    H215086   5.584   4.700   0.348 -0.1145  0.6150 -1.1805
 5045TIP3   OH215087   3.840   3.997   0.568  0.0064  0.6039  0.0822
 5045TIP3    H115088   3.919   4.041   0.599  1.5222 -2.3872  0.6834
 5045TIP3    H215089   3.848   3.997   0.472  1.7364 -1.3487  0.1941
 5046TIP3   OH215090   4.747   1.987   0.832  0.1534 -0.1442 -0.2158
 5046TIP3    H115091   4.823   1.971   0.888  0.4162  0.3876 -0.4102
 5046TIP3    H215092   4.689   1.913   0.848 -0.7870  1.1283  2.4321
 5047TIP3   OH215093   7.091   6.943   4.866  0.1271 -0.3264 -0.2664
 5047TIP3    H115094   7.131   6.866   4.906 -0.5186  0.1032  1.2125
 5047TIP3    H215095   7.164   7.003   4.851  0.7340 -1.4596 -2.0193
 5048TIP3   OH215096   6.620   1.571   4.866 -0.4792 -0.4587 -0.1601
 5048TIP3    H115097   6.669   1.565   4.947 -1.0493 -1.9918  0.0863
 5048TIP3    H215098   6.533   1.601   4.892  0.1632  1.8027 -0.5422
 5049TIP3   OH215099   4.335   3.882   0.587  0.5135 -0.2108  0.1725
 5049TIP3    H115100   4.329   3.790   0.612 -1.1132 -0.3141 -0.5044
 5049TIP3    H215101   4.244   3.912   0.584  0.9598  1.1179 -0.6929
 5050TIP3   OH215102   3.238   1.991   5.804  0.1466 -0.2401  0.1702
 5050TIP3    H115103   3.287   1.922   5.848  0.1152  0.1182  0.7821
 5050TIP3    H215104   3.305   2.046   5.765  0.1431 -1.0383 -0.9674
 5051TIP3   OH215105   7.840   6.653   4.420  0.3045  0.0826  0.0671
 5051TIP3    H115106   7.780   6.726   4.409 -1.4626 -1.3744 -0.2769
 5051TIP3    H215107   7.816   6.591   4.351  2.3312 -0.4592 -0.1895
 5052TIP3   OH215108   3.380   7.407   3.840 -0.5661 -0.0867  0.1988
 5052TIP3    H115109   3.321   7.369   3.776  1.2012 -0.8324 -1.0070
 5052TIP3    H215110   3.322   7.446   3.906 -2.4080  1.4806 -2.2812
 5053TIP3   OH215111   4.281   3.135   2.093  0.1762  0.0813 -0.2403
 5053TIP3    H115112   4.279   3.223   2.054  0.4375  0.2945  0.2203
 5053TIP3    H215113   4.225   3.082   2.036 -2.2866  1.2193  1.0504
 5054TIP3   OH215114   2.714   1.181   5.438  0.3538 -0.2824 -0.8941
 5054TIP3    H115115   2.678   1.093   5.425  2.4379 -1.8149  2.8556
 5054TIP3    H215116   2.662   1.217   5.511  0.9599  0.7305 -0.9530
 5055TIP3   OH215117   3.514   0.089   6.149  0.5028  0.4620 -0.2342
 5055TIP3    H115118   3.460   0.017   6.118 -1.1687  0.8980  1.5786
 5055TIP3    H215119   3.502   0.088   6.244 -1.2159  4.3994 -0.3249
 5056TIP3   OH215120   5.659   7.181   4.197 -0.2651  0.2732  0.1472
 5056TIP3    H115121   5.664   7.231   4.278 -0.3950  0.6748 -0.0943
 5056TIP3    H215122   5.581   7.214   4.153  0.7046  1.2018 -0.9088
 5057TIP3   OH215123   6.915   4.746   5.725 -0.1353  0.1559  0.6340
 5057TIP3    H115124   6.967   4.751   5.645  0.5705 -0.7733  1.0122
 5057TIP3    H215125   6.967   4.690   5.783 -1.2400 -0.2315  1.2745
 5058TIP3   OH215126   3.371   2.647   3.928  0.2335 -0.5803 -0.1463
 5058TIP3    H115127   3.283   2.685   3.921  0.1822 -0.5536  0.6389
 5058TIP3    H215128   3.398   2.664   4.018  1.0008 -0.6941 -0.3513
 5059TIP3   OH215129   1.504   0.293   5.461  0.4237  0.2444  0.2475
 5059TIP3    H115130   1.428   0.241   5.433 -0.2642  1.3388  0.0259
 5059TIP3    H215131   1.500   0.291   5.557  0.0852  0.3422  0.2372
 5060TIP3   OH215132   2.246   1.780   6.244 -0.3615  0.0953 -0.3468
 5060TIP3    H115133   2.307   1.716   6.281 -0.7307 -0.5553 -0.8391
 5060TIP3    H215134   2.162   1.734   6.242 -0.3049  0.0092 -2.2134
 5061TIP3   OH215135   2.491   0.336   6.237 -0.1280 -0.1292 -0.0813
 5061TIP3    H115136   2.573   0.385   6.240  1.0896 -2.0648 -1.2557
 5061TIP3    H215137   2.461   0.334   6.328  1.8044 -0.5259  0.5561
 5062TIP3   OH215138   2.539   1.858   3.839 -0.0638 -0.5960 -0.3923
 5062TIP3    H115139   2.566   1.941   3.801  0.9665 -0.5004  0.5159
 5062TIP3    H215140   2.448   1.873   3.865  0.5497  0.7475  1.0896
 5063TIP3   OH215141   6.749   6.531   4.603  0.1830  0.5877  0.2223
 5063TIP3    H115142   6.800   6.467   4.552 -1.5184  0.5616 -1.5163
 5063TIP3    H215143   6.757   6.612   4.553 -3.3724  0.0332 -1.4273
 5064TIP3   OH215144   3.637   5.011   1.047 -0.1162 -0.0526  0.0073
 5064TIP3    H115145   3.552   4.989   1.008  0.8305 -1.4435 -1.3126
 5064TIP3    H215146   3.618   5.021   1.141 -1.4745 -1.8781 -0.0305
 5065TIP3   OH215147   6.374   7.291   5.318 -0.1397 -0.3453 -0.4071
 5065TIP3    H115148   6.462   7.303   5.352 -0.6096  1.3114  0.2880
 5065TIP3    H215149   6.385   7.289   5.223  0.4592  1.7360 -0.3986
 5066TIP3   OH215150   3.749   0.064   0.583  0.8583  0.0229  0.5168
 5066TIP3    H115151   3.762   0.093   0.493  0.5180 -0.1885  0.3987
 5066TIP3    H215152   3.788   0.133   0.636 -1.1520  1.3838  0.2724
 5067TIP3   OH215153   3.019   0.810   5.429  0.4328 -0.1670 -0.0772
 5067TIP3    H115154   3.068   0.864   5.491  0.9265 -0.2570 -0.3879
 5067TIP3    H215155   3.020   0.860   5.347  0.4442 -0.4083 -0.2235
 5068TIP3   OH215156   2.394   1.073   5.182 -0.5890  0.1499  0.2951
 5068TIP3    H115157   2.321   1.134   5.196 -0.1986  0.8432 -0.6204
 5068TIP3    H215158   2.469   1.130   5.164  0.0486 -0.5781  0.6310
 5069TIP3   OH215159   0.935   7.003   5.294  1.1930 -0.4398  0.2861
 5069TIP3    H115160   0.980   7.062   5.234 -2.3462 -0.6435 -2.7702
 5069TIP3    H215161   0.895   7.060   5.360  2.4923  0.0633  0.6341
 5070TIP3   OH215162   2.813   1.890   5.887 -0.3499 -0.0484  0.6304
 5070TIP3    H115163   2.849   1.872   5.800  1.6350 -1.0662  1.6462
 5070TIP3    H215164   2.732   1.838   5.889  0.1185 -0.8431 -0.2283
 5071TIP3   OH215165   5.197   1.203   4.814 -0.4630 -0.2502  0.7251
 5071TIP3    H115166   5.112   1.208   4.859  1.2357  1.7577  3.8714
 5071TIP3    H215167   5.236   1.122   4.846 -1.0589 -1.0825 -0.5897
 5072TIP3   OH215168   6.596   7.203   4.995 -0.1401 -0.3647 -0.0506
 5072TIP3    H115169   6.510   7.231   5.027  0.1852 -0.3451  0.8409
 5072TIP3    H215170   6.639   7.168   5.073 -0.3649 -2.9518 -1.0316
 5073TIP3   OH215171   5.805   7.034   0.235 -0.3467 -0.1454  0.2281
 5073TIP3    H115172   5.885   6.982   0.240  0.5091  1.0226 -0.8685
 5073TIP3    H215173   5.747   6.983   0.179  0.3925 -0.0697 -0.6235
 5074TIP3   OH215174   4.901   1.992   3.798 -0.4501 -0.4265 -0.7943
 5074TIP3    H115175   4.807   1.987   3.815 -0.0796 -0.2599  1.4326
 5074TIP3    H215176   4.921   2.086   3.804  0.5532 -0.8147  2.8967
 5075TIP3   OH215177   2.341   6.850   5.274 -0.6905 -0.4940  0.1674
 5075TIP3    H115178   2.330   6.757   5.256 -1.3678 -0.4905  0.5546
 5075TIP3    H215179   2.266   6.873   5.329 -0.0885  0.0945  0.7561
 5076TIP3   OH215180   0.663   5.172   3.941  0.2331 -0.0936 -0.5176
 5076TIP3    H115181   0.614   5.177   3.859 -0.6734  2.5354  0.1300
 5076TIP3    H215182   0.601   5.201   4.008  1.2450 -1.3293  0.9856
 5077TIP3   OH215183   7.384   6.233   4.181 -0.2174  0.1546 -0.1973
 5077TIP3    H115184   7.308   6.209   4.128 -0.9994 -2.2779  1.9293
 5077TIP3    H215185   7.459   6.210   4.127 -1.0018  0.3005 -1.3670
 5078TIP3   OH215186   2.005   6.298   5.646  0.0123  0.0895  0.8015
 5078TIP3    H115187   1.966   6.349   5.575 -0.0333 -0.5812  0.3438
 5078TIP3    H215188   1.942   6.304   5.718  0.3550  1.3047  1.0157
 5079TIP3   OH215189   0.248   6.028   4.988  0.4008 -0.1487  0.5470
 5079TIP3    H115190   0.181   6.090   5.016  3.1596  2.5621  1.4392
 5079TIP3    H215191   0.232   6.016   4.894 -0.4972  1.5135  0.4718
 5080TIP3   OH215192   5.667   3.424   0.078 -0.8015 -0.0058  0.4105
 5080TIP3    H115193   5.660   3.492   0.010  0.0642  0.3262  0.6400
 5080TIP3    H215194   5.746   3.375   0.054 -0.4649  0.1459  1.2033
 5081TIP3   OH215195   6.368   3.605   1.216 -0.3255  0.3029 -0.0826
 5081TIP3    H115196   6.404   3.666   1.280  2.9130 -0.1214 -1.4192
 5081TIP3    H215197   6.306   3.658   1.165 -0.1877  1.5491  1.0129
 5082TIP3   OH215198   0.799   3.116   1.704 -0.1272 -0.3395  0.1501
 5082TIP3    H115199   0.835   3.092   1.789  0.4274 -1.2799 -0.3471
 5082TIP3    H215200   0.820   3.043   1.646  0.6012  0.8351 -1.1162
 5083TIP3   OH215201   0.016   5.673   5.197 -0.0906 -0.2234  0.0555
 5083TIP3    H115202   0.098   5.673   5.248 -0.2807 -0.3105  0.3650
 5083TIP3    H215203   0.006   5.764   5.169  0.1325 -0.2200 -0.0197
 5084TIP3   OH215204   7.271   6.379   4.800  0.0157  0.0298  0.1309
 5084TIP3    H115205   7.227   6.350   4.720  0.7294  0.2504 -0.3444
 5084TIP3    H215206   7.276   6.474   4.790 -1.1731  0.2064  1.0977
 5085TIP3   OH215207   2.022   0.384   5.153  0.0185 -0.5600  0.4587
 5085TIP3    H115208   2.091   0.337   5.198  1.5890  0.9156 -0.3463
 5085TIP3    H215209   2.051   0.387   5.062 -0.5966  0.9941  0.3044
 5086TIP3   OH215210   0.479   6.558   5.321 -0.4287 -0.2602  0.3781
 5086TIP3    H115211   0.455   6.633   5.376  1.6465 -0.0878  1.1060
 5086TIP3    H215212   0.470   6.482   5.378  1.2047 -0.1378  0.8206
 5087TIP3   OH215213   5.069   0.863   5.894 -0.3857 -0.4563 -0.2034
 5087TIP3    H115214   5.105   0.916   5.965 -3.9580  0.5432  0.9261
 5087TIP3    H215215   5.076   0.773   5.925 -0.6341 -0.1254  0.8286
 5088TIP3   OH215216   3.327   1.722   3.319  0.5057 -0.3987  0.1295
 5088TIP3    H115217   3.326   1.775   3.398 -0.4527  3.1976 -2.1810
 5088TIP3    H215218   3.417   1.728   3.287  0.0556  1.1014 -0.9039
 5089TIP3   OH215219   5.898   0.654   5.480  0.1667 -0.2194  0.0534
 5089TIP3    H115220   5.843   0.596   5.532  0.6090 -0.6317  0.0727
 5089TIP3    H215221   5.877   0.742   5.510 -0.7394 -0.3489 -0.1952
 5090TIP3   OH215222   0.423   6.147   6.056  0.0327  0.4734 -0.1166
 5090TIP3    H115223   0.507   6.103   6.048  0.7454  1.3697  2.0225
 5090TIP3    H215224   0.398   6.134   6.148 -1.6657  1.0952 -0.4725
 5091TIP3   OH215225   5.677   2.021   0.321 -1.0231 -0.7691 -0.1157
 5091TIP3    H115226   5.609   2.028   0.389 -2.2516  0.0277 -1.4016
 5091TIP3    H215227   5.628   2.014   0.239  0.4547  0.0421 -1.0823
 5092TIP3   OH215228   0.841   6.021   6.296 -0.7961  0.1332  0.0136
 5092TIP3    H115229   0.764   5.971   6.267 -0.2030 -0.5878 -0.3356
 5092TIP3    H215230   0.843   6.097   6.239 -0.2224 -0.7627 -1.1718
 5093TIP3   OH215231   6.600   5.795   0.415  0.6115 -0.0538 -0.3690
 5093TIP3    H115232   6.648   5.750   0.485  1.8923  0.8483 -0.6627
 5093TIP3    H215233   6.539   5.852   0.462 -0.2591 -1.2708  0.0044
 5094TIP3   OH215234   4.170   1.974   4.560 -0.3613  0.1418  0.3575
 5094TIP3    H115235   4.117   1.899   4.534 -0.7392  1.0387 -1.5661
 5094TIP3    H215236   4.122   2.014   4.632 -1.9058  0.5117 -0.8642
 5095TIP3   OH215237   7.008   4.166   0.611  0.5140  0.0582 -0.1967
 5095TIP3    H115238   7.077   4.209   0.661  1.8206 -1.9292 -0.2309
 5095TIP3    H215239   6.997   4.081   0.653 -0.9882 -0.1811 -1.0254
 5096TIP3   OH215240   6.602   5.880   5.002 -0.6172 -0.3032 -0.4299
 5096TIP3    H115241   6.599   5.797   4.955  1.1346 -1.2210  0.9968
 5096TIP3    H215242   6.516   5.919   4.987 -0.5264 -1.0812 -3.3878
 5097TIP3   OH215243   7.144   3.706   0.288 -0.5116  0.1749 -0.2964
 5097TIP3    H115244   7.111   3.619   0.269 -1.1171  0.4332 -0.4485
 5097TIP3    H215245   7.209   3.723   0.219 -0.7795  0.0606 -0.5732
 5098TIP3   OH215246   7.184   5.148   4.933  0.5168  0.4646  0.5959
 5098TIP3    H115247   7.253   5.133   4.997 -0.2626 -0.5699  1.2195
 5098TIP3    H215248   7.197   5.238   4.904  1.0884  0.8394  1.9599
 5099TIP3   OH215249   2.391   1.458   5.907 -0.0459  0.6132 -0.1532
 5099TIP3    H115250   2.481   1.489   5.913  0.3671 -0.7157  0.7665
 5099TIP3    H215251   2.338   1.537   5.910  1.0249  1.2966  1.0946
 5100TIP3   OH215252   6.884   5.871   1.127  0.1610  0.1707 -0.0881
 5100TIP3    H115253   6.914   5.957   1.157  1.8443 -0.4976  0.2048
 5100TIP3    H215254   6.832   5.837   1.201 -2.2732  1.7651 -1.0014
 5101TIP3   OH215255   4.742   2.972   0.414 -0.3340  0.1224  0.4250
 5101TIP3    H115256   4.756   2.878   0.416  0.6863  0.2674  0.4474
 5101TIP3    H215257   4.739   2.998   0.506 -2.1705 -0.1041  0.4355
 5102TIP3   OH215258   5.950   4.182   1.367 -0.0363 -0.1997  0.0859
 5102TIP3    H115259   6.027   4.154   1.415 -0.3564 -2.1704 -0.5164
 5102TIP3    H215260   5.957   4.140   1.282 -1.6797 -0.2649 -0.0471
 5103TIP3   OH215261   7.793   7.156   5.497  0.3397 -0.3014 -0.9097
 5103TIP3    H115262   7.812   7.076   5.449  0.7086 -0.3988 -0.6051
 5103TIP3    H215263   7.701   7.147   5.523  1.0727 -1.7993  1.3089
 5104TIP3   OH215264   6.098   5.685   0.750 -0.1650 -0.2260  0.2787
 5104TIP3    H115265   6.157   5.696   0.676 -0.9060 -0.1758 -0.3058
 5104TIP3    H215266   6.029   5.749   0.735 -1.2352 -1.4103  0.1022
 5105TIP3   OH215267   3.292   0.256   4.295  0.0439  0.4165 -0.0457
 5105TIP3    H115268   3.346   0.183   4.325 -0.9566  0.0153  0.8132
 5105TIP3    H215269   3.204   0.218   4.284 -0.5969  1.5895  0.9045
 5106TIP3   OH215270   5.705   2.796   4.848  0.2195 -0.1870  0.2144
 5106TIP3    H115271   5.776   2.736   4.826  0.7503  0.8401 -0.9042
 5106TIP3    H215272   5.726   2.826   4.936  0.8267 -0.3832  0.1389
 5107TIP3   OH215273   2.959   5.613   0.182  0.1151  0.2419  0.6120
 5107TIP3    H115274   2.869   5.644   0.172  0.2864  0.8614  1.0215
 5107TIP3    H215275   2.987   5.591   0.092 -1.6681 -3.4193  0.8425
 5108TIP3   OH215276   4.564   4.284   0.208  0.0185  0.1916 -0.1300
 5108TIP3    H115277   4.650   4.309   0.175 -0.2362 -0.8999 -1.6445
 5108TIP3    H215278   4.572   4.191   0.230 -0.9745 -0.1216 -1.0125
 5109TIP3   OH215279   3.733   0.969   5.007  0.0071 -0.7968 -0.4386
 5109TIP3    H115280   3.814   0.937   4.967  0.5053  0.2626 -0.2980
 5109TIP3    H215281   3.717   1.054   4.965  0.6664  0.4390  1.7590
 5110TIP3   OH215282   5.926   4.984   0.115 -0.4630  0.0612  0.8061
 5110TIP3    H115283   5.888   5.069   0.096  1.3102  0.6574 -0.2241
 5110TIP3    H215284   5.864   4.920   0.080 -0.1137  1.0243 -1.6032
 5111TIP3   OH215285   0.219   4.529   0.619  0.5722 -0.0334 -0.3394
 5111TIP3    H115286   0.229   4.555   0.711 -1.3082  2.4365 -0.8043
 5111TIP3    H215287   0.230   4.609   0.569  1.3830 -1.3214 -2.2900
 5112TIP3   OH215288   4.493   6.711   5.837 -0.2621 -0.2397  0.3193
 5112TIP3    H115289   4.436   6.745   5.768  0.0123 -1.8888 -0.7419
 5112TIP3    H215290   4.477   6.617   5.837  1.1041 -0.4837  1.2655
 5113TIP3   OH215291   1.710   0.617   5.373  0.3521 -0.4487  0.5969
 5113TIP3    H115292   1.731   0.540   5.426 -1.6823 -0.4308  1.5029
 5113TIP3    H215293   1.674   0.680   5.437  2.6920  1.5537  0.0039
 5114TIP3   OH215294   2.081   1.892   5.790  0.4660 -0.4125 -0.7092
 5114TIP3    H115295   1.989   1.899   5.764  0.0638  0.6336  0.9011
 5114TIP3    H215296   2.116   1.981   5.778  1.6084 -1.0789 -2.4754
 5115TIP3   OH215297   3.763   6.940   4.614 -0.1616  0.1933 -0.7282
 5115TIP3    H115298   3.751   6.850   4.647 -2.1875  0.7516  0.1391
 5115TIP3    H215299   3.857   6.946   4.595 -0.2754 -2.6849 -2.5012
 5116TIP3   OH215300   1.729   2.121   3.992 -0.1350 -0.3314 -0.0772
 5116TIP3    H115301   1.677   2.113   4.072 -0.9293  1.0361 -0.4467
 5116TIP3    H215302   1.665   2.139   3.924  0.7698  0.8999 -0.6204
 5117TIP3   OH215303   0.114   4.021   1.844  0.0322  0.0708 -0.3873
 5117TIP3    H115304   0.072   4.091   1.796  0.7748  1.4630  0.9461
 5117TIP3    H215305   0.195   4.004   1.796  0.3018  0.7845 -0.1942
 5118TIP3   OH215306   1.672   1.106   4.104 -0.2484  0.0661  0.7579
 5118TIP3    H115307   1.650   1.195   4.076  1.1490  1.0191  2.6024
 5118TIP3    H215308   1.713   1.118   4.189  0.1973 -2.3473  0.8896
 5119TIP3   OH215309   7.470   7.223   5.053  0.3389  0.0165 -0.7637
 5119TIP3    H115310   7.550   7.173   5.061 -0.7603 -2.0069 -2.0015
 5119TIP3    H215311   7.485   7.302   5.105  1.2713 -2.5966  3.1371
 5120TIP3   OH215312   3.295   2.448   5.616 -0.4035  0.9812  0.3876
 5120TIP3    H115313   3.383   2.486   5.621  0.3604 -0.7784  0.8790
 5120TIP3    H215314   3.280   2.438   5.522  0.5108  0.0295  0.3246
 5121TIP3   OH215315   6.847   6.058   3.395 -0.2813  0.3219  0.4269
 5121TIP3    H115316   6.819   6.135   3.345  0.3913  0.2210 -0.1186
 5121TIP3    H215317   6.941   6.069   3.406 -0.1884 -0.3939  0.3870
 5122TIP3   OH215318   4.146   0.693   5.616  0.1214 -0.0901  0.6199
 5122TIP3    H115319   4.172   0.609   5.579  0.7139 -1.0022  2.9572
 5122TIP3    H215320   4.086   0.731   5.552 -0.0017 -2.2027 -0.5559
 5123TIP3   OH215321   6.561   4.048   1.017  0.6539 -0.1742  0.1613
 5123TIP3    H115322   6.521   4.125   0.976 -0.5653 -1.5206 -1.2129
 5123TIP3    H215323   6.503   4.027   1.090 -0.0749 -0.9500 -0.6400
 5124TIP3   OH215324   2.567   0.585   4.671  0.1826  0.3443 -0.4188
 5124TIP3    H115325   2.530   0.626   4.749 -4.4025 -1.2907 -1.6055
 5124TIP3    H215326   2.538   0.641   4.599 -0.7094 -1.3843 -1.4415
 5125TIP3   OH215327   7.049   6.338   3.444 -0.1362 -0.0422  0.2446
 5125TIP3    H115328   7.112   6.409   3.455 -0.7160  0.3487  1.0499
 5125TIP3    H215329   6.997   6.339   3.524 -0.8001 -0.7350 -0.1694
 5126TIP3   OH215330   2.365   1.362   6.157  0.3837 -0.0045  0.0111
 5126TIP3    H115331   2.391   1.401   6.073 -0.3735  0.6341  0.0704
 5126TIP3    H215332   2.397   1.424   6.223 -1.0081  0.6316  0.0987
 5127TIP3   OH215333   7.225   6.077   5.299 -0.1619  0.1288  0.1815
 5127TIP3    H115334   7.134   6.096   5.318  0.3852  1.0422  1.9790
 5127TIP3    H215335   7.263   6.160   5.271  0.3902  0.0140  0.5631
 5128TIP3   OH215336   7.446   6.338   3.524  0.2876 -0.2706  0.7643
 5128TIP3    H115337   7.510   6.285   3.477  0.1289  0.4327 -0.2655
 5128TIP3    H215338   7.473   6.428   3.507 -0.6344  0.0153  0.8126
 5129TIP3   OH215339   4.583   5.640   3.844 -0.3974  0.4313 -0.5246
 5129TIP3    H115340   4.614   5.673   3.928 -0.1170 -1.2710  0.0778
 5129TIP3    H215341   4.655   5.586   3.812 -2.1472 -2.5201  0.2770
 5130TIP3   OH215342   5.923   6.354   3.316  0.8082 -1.0673  0.2718
 5130TIP3    H115343   5.868   6.394   3.384  1.4048  0.8258 -0.3171
 5130TIP3    H215344   5.861   6.330   3.247  0.8235  2.7457 -1.1903
 5131TIP3   OH215345   7.465   6.068   2.968 -0.5656  0.9375 -0.4104
 5131TIP3    H115346   7.488   5.977   2.982  0.8360  1.4737  0.9932
 5131TIP3    H215347   7.381   6.080   3.012 -0.9777  0.2155 -1.0014
 5132TIP3   OH215348   3.033   2.465   5.314  0.0148  0.2513  0.2418
 5132TIP3    H115349   3.086   2.482   5.236  2.3599  1.4351  2.0306
 5132TIP3    H215350   3.071   2.386   5.352  1.0399  1.5305  1.9445
 5133TIP3   OH215351   7.548   7.322   4.124 -0.5734 -0.6272  0.5178
 5133TIP3    H115352   7.534   7.239   4.169 -3.7214 -1.4291 -1.7030
 5133TIP3    H215353   7.477   7.378   4.156 -1.2699 -0.3690 -1.3850
 5134TIP3   OH215354   2.441   0.611   5.266  0.2790 -0.4744 -0.3788
 5134TIP3    H115355   2.431   0.573   5.179 -0.0946 -0.9542 -0.1265
 5134TIP3    H215356   2.496   0.688   5.252  1.0664 -1.1150 -0.8881
 5135TIP3   OH215357   0.672   7.242   3.672 -0.1721  0.4432 -0.0642
 5135TIP3    H115358   0.691   7.148   3.666  0.3257  0.5535 -0.2286
 5135TIP3    H215359   0.601   7.257   3.609  1.6825  0.7040 -2.1502
 5136TIP3   OH215360   1.232   6.741   4.788  0.3318 -0.3726 -0.2261
 5136TIP3    H115361   1.229   6.652   4.823  0.4394 -0.1556  0.3297
 5136TIP3    H215362   1.158   6.746   4.727  0.1811 -0.7628 -0.0716
 5137TIP3   OH215363   0.076   5.939   6.021 -0.1247 -0.4755  0.4159
 5137TIP3    H115364   0.010   5.899   6.078 -0.5356  1.2196  1.1745
 5137TIP3    H215365   0.085   5.879   5.948 -1.5116 -1.4069  0.9937
 5138TIP3   OH215366   7.803   7.055   4.752 -0.1591 -0.2307 -0.1102
 5138TIP3    H115367   7.796   7.073   4.658 -0.5878  0.3471  0.0318
 5138TIP3    H215368   7.809   7.141   4.793  1.9071 -0.5243  0.2633
 5139TIP3   OH215369   2.547   1.483   5.249  0.5314  0.1969 -0.6538
 5139TIP3    H115370   2.559   1.388   5.239  1.6455  0.1758  0.6928
 5139TIP3    H215371   2.458   1.500   5.217  0.4617 -1.2464 -1.2562
 5140TIP3   OH215372   7.798   6.565   5.404 -0.5931 -0.5552  0.3053
 5140TIP3    H115373   7.823   6.473   5.396  1.7481 -0.0815  1.6467
 5140TIP3    H215374   7.704   6.566   5.385 -0.6213 -3.1848  0.0863
 5141TIP3   OH215375   1.531   0.734   5.574 -0.2389 -0.4448  0.1910
 5141TIP3    H115376   1.490   0.810   5.615 -0.8088 -1.1935  1.0408
 5141TIP3    H215377   1.461   0.694   5.522  0.3511  0.2172 -1.1255
 5142TIP3   OH215378   3.533   1.492   2.853 -0.4350  0.2612 -0.6223
 5142TIP3    H115379   3.481   1.414   2.830 -2.0080  1.1877 -0.2627
 5142TIP3    H215380   3.515   1.554   2.782  0.6483  0.3798 -0.7937
 5143TIP3   OH215381   0.447   6.901   4.875  0.3080 -0.3121 -0.0705
 5143TIP3    H115382   0.425   6.871   4.963 -0.3998 -2.9865 -1.1018
 5143TIP3    H215383   0.363   6.930   4.838  0.5810  0.6759  0.0679
 5144TIP3   OH215384   2.169   5.712   6.087  0.1212  0.5802  0.1770
 5144TIP3    H115385   2.233   5.766   6.133 -0.0613 -1.4611  2.9390
 5144TIP3    H215386   2.086   5.731   6.129  0.0531 -1.7801  1.1824
 5145TIP3   OH215387   3.338   0.278   6.433 -0.1317  0.0479  0.3505
 5145TIP3    H115388   3.395   0.230   6.492 -0.2833  0.2476  0.6584
 5145TIP3    H215389   3.355   0.239   6.347  0.5061  0.1375  0.4296
 5146TIP3   OH215390   3.870   0.028   5.549  0.4223  0.2976  0.2688
 5146TIP3    H115391   3.849  -0.034   5.479  2.4491  0.5779 -0.6423
 5146TIP3    H215392   3.836   0.112   5.518  0.3357  0.2045  0.1134
 5147TIP3   OH215393   3.236   0.564   6.363 -0.5341 -0.0168  0.2000
 5147TIP3    H115394   3.275   0.634   6.414  0.2848  0.4313 -1.0114
 5147TIP3    H215395   3.309   0.503   6.346 -0.3167  0.8324 -2.0832
 5148TIP3   OH215396   3.169   1.280   3.670 -0.5647 -0.4922 -0.2925
 5148TIP3    H115397   3.088   1.315   3.632 -0.2808 -0.5579 -0.9637
 5148TIP3    H215398   3.223   1.259   3.595  0.7979  1.2544  0.1520
 5149TIP3   OH215399   4.128   0.077   5.580 -0.9168  0.5084  0.1171
 5149TIP3    H115400   4.156   0.131   5.506 -2.5171 -0.2832 -1.0802
 5149TIP3    H215401   4.039   0.051   5.559 -1.1096 -0.4079  1.9527
 5150TIP3   OH215402   0.749   0.285   4.051  0.3971  0.3338 -0.2720
 5150TIP3    H115403   0.768   0.197   4.083  1.3324  0.1549 -1.2799
 5150TIP3    H215404   0.748   0.340   4.129  1.2287 -0.3357  0.2141
 5151TIP3   OH215405   2.055   0.077   4.954 -0.6149 -0.7325 -0.0646
 5151TIP3    H115406   2.022   0.026   4.880  0.6832 -1.2043 -0.3415
 5151TIP3    H215407   2.086   0.012   5.016  1.9567 -0.3358 -0.8375
 5152TIP3   OH215408   1.478   6.122   5.298  0.5884  0.3453 -0.0853
 5152TIP3    H115409   1.498   6.033   5.329  0.3389 -1.5244 -4.9826
 5152TIP3    H215410   1.561   6.169   5.306  1.7745 -1.4984 -1.1350
 5153TIP3   OH215411   1.781   1.996   4.884  0.1444  0.3534  0.3654
 5153TIP3    H115412   1.829   1.927   4.930 -0.9153  0.9566  2.4356
 5153TIP3    H215413   1.740   2.047   4.954 -0.9310  1.7277 -1.2382
 5154TIP3   OH215414   5.270   3.430   0.236 -0.0994  0.2057 -0.4664
 5154TIP3    H115415   5.303   3.341   0.225 -1.6436 -0.1627 -2.4556
 5154TIP3    H215416   5.322   3.467   0.307  1.2787 -1.9274 -0.3392
 5155TIP3   OH215417   4.933   2.982   0.208  0.0021 -0.5683 -0.2066
 5155TIP3    H115418   4.934   2.887   0.197 -3.3788 -0.4891 -1.7749
 5155TIP3    H215419   4.860   2.998   0.269  1.2564  0.9739  0.9391
 5156TIP3   OH215420   4.915   2.322   3.564 -0.2729  0.6747 -0.1269
 5156TIP3    H115421   4.969   2.246   3.542  1.6474  2.4734 -1.9047
 5156TIP3    H215422   4.879   2.350   3.480  0.0468  2.4259  0.2884
 5157TIP3   OH215423   2.473   2.897   4.656 -0.3482  0.1846  0.2137
 5157TIP3    H115424   2.472   2.984   4.617  1.5402 -0.2428 -0.8351
 5157TIP3    H215425   2.384   2.885   4.689 -0.8695  2.1581 -0.3958
 5158TIP3   OH215426   2.563   0.018   5.806 -0.3971  0.0446 -0.8094
 5158TIP3    H115427   2.629   0.083   5.780  2.1104 -2.0400  0.0756
 5158TIP3    H215428   2.529   0.050   5.889  0.1264  0.6945 -0.8391
 5159TIP3   OH215429   5.044   3.042   3.908  0.1084 -0.7744  0.0814
 5159TIP3    H115430   4.986   3.117   3.897  0.4891 -0.3435  1.0430
 5159TIP3    H215431   5.050   3.029   4.002 -0.8249 -2.6982 -0.0830
 5160TIP3   OH215432   0.183   1.467   5.258  0.0150  0.1641  0.2464
 5160TIP3    H115433   0.170   1.382   5.215 -0.5295  0.2956  0.1461
 5160TIP3    H215434   0.231   1.446   5.338  0.0015 -0.2269  0.1546
 5161TIP3   OH215435   6.215   6.707   4.313  0.1059  0.0896 -0.7824
 5161TIP3    H115436   6.225   6.773   4.244 -2.0499 -0.1141 -1.3244
 5161TIP3    H215437   6.243   6.752   4.393 -1.4553  1.7507 -1.1299
 5162TIP3   OH215438   3.717   1.274   3.945 -0.4801 -0.6867  0.0633
 5162TIP3    H115439   3.673   1.347   3.989  1.2915  0.6068 -0.2220
 5162TIP3    H215440   3.660   1.199   3.960 -2.3070  0.7338  0.4480
 5163TIP3   OH215441   7.754   6.484   4.617 -0.2991  0.0203  0.3155
 5163TIP3    H115442   7.702   6.550   4.663  1.5063  1.3960  0.4440
 5163TIP3    H215443   7.790   6.531   4.541  0.5113 -0.9907  0.0606
 5164TIP3   OH215444   5.241   2.557   3.657 -0.0659 -0.3511 -0.4101
 5164TIP3    H115445   5.197   2.622   3.711 -0.0437 -1.0914  0.5224
 5164TIP3    H215446   5.305   2.606   3.606 -0.0810  0.3586  0.2559
 5165TIP3   OH215447   5.231   4.133   0.664 -0.0949 -0.3333  0.2781
 5165TIP3    H115448   5.297   4.187   0.707  0.4329 -0.5280 -0.2715
 5165TIP3    H215449   5.276   4.051   0.645 -0.3268 -0.2626 -0.6103
 5166TIP3   OH215450   4.528   1.375   1.384 -0.2045 -0.0836  0.0760
 5166TIP3    H115451   4.519   1.438   1.313  0.7014  0.2894  0.2852
 5166TIP3    H215452   4.442   1.334   1.391  0.1870 -1.3907 -2.4186
 5167TIP3   OH215453   1.702   5.858   3.923  0.2582 -0.3012  0.2899
 5167TIP3    H115454   1.711   5.937   3.976  0.4484  0.3580 -0.7007
 5167TIP3    H215455   1.738   5.787   3.977  0.1750  0.3032  1.1440
 5168TIP3   OH215456   4.956   0.877   0.633  0.2589 -0.3006  0.2675
 5168TIP3    H115457   4.915   0.941   0.691  0.3367  0.8789 -0.9236
 5168TIP3    H215458   4.985   0.806   0.690 -1.1491  0.0503  1.4359
 5169TIP3   OH215459   0.540   6.334   4.196  0.5687  0.0813  0.1444
 5169TIP3    H115460   0.623   6.300   4.229  0.4388  0.5661  0.9990
 5169TIP3    H215461   0.565   6.392   4.124  0.8274 -1.2950 -0.8902
 5170TIP3   OH215462   1.879   1.229   5.226 -0.4232  0.5069 -0.2036
 5170TIP3    H115463   1.805   1.282   5.196 -0.4961 -0.9407 -2.7055
 5170TIP3    H215464   1.844   1.140   5.232  0.2417  0.3482  1.9592
 5171TIP3   OH215465   6.865   5.429   4.001 -0.3529 -0.7982 -0.6683
 5171TIP3    H115466   6.820   5.362   3.950  0.5906 -1.1897 -0.9914
 5171TIP3    H215467   6.880   5.388   4.086 -1.2515 -0.4068 -0.3081
 5172TIP3   OH215468   3.332   0.177   5.252  0.2134 -0.0218  0.1443
 5172TIP3    H115469   3.259   0.220   5.297  0.4368  0.4608  0.0522
 5172TIP3    H215470   3.290   0.113   5.195 -0.1632  0.4670 -0.1379
 5173TIP3   OH215471   0.550   7.317   4.601  0.2024  0.1373  0.3802
 5173TIP3    H115472   0.567   7.225   4.579  0.5898  0.4779 -0.7476
 5173TIP3    H215473   0.623   7.341   4.659  0.6844  0.0450 -0.1867
 5174TIP3   OH215474   1.532   0.443   5.877  0.4492  0.0217  0.0899
 5174TIP3    H115475   1.466   0.499   5.918  1.3711 -0.5091  2.3556
 5174TIP3    H215476   1.483   0.368   5.844 -0.4314  0.9117 -0.6630
 5175TIP3   OH215477   6.140   4.360   0.287  0.5795  0.1132 -0.6575
 5175TIP3    H115478   6.087   4.342   0.210 -0.9533 -0.3175  0.4612
 5175TIP3    H215479   6.218   4.305   0.277  0.1042 -0.3951 -1.5804
 5176TIP3   OH215480   3.116   1.494   2.729 -0.0712  0.0980  0.3884
 5176TIP3    H115481   3.103   1.589   2.734 -0.5723  0.0774 -0.3760
 5176TIP3    H215482   3.118   1.475   2.635  0.5563 -0.5822  0.5352
 5177TIP3   OH215483   5.190   3.095   1.660 -0.1034 -0.0121 -0.0410
 5177TIP3    H115484   5.261   3.159   1.650  0.1284 -0.1890  0.4140
 5177TIP3    H215485   5.123   3.141   1.710  0.5430 -0.4708  1.2849
 5178TIP3   OH215486   2.398   0.691   4.864  0.2966 -0.6294 -0.0018
 5178TIP3    H115487   2.333   0.761   4.867  1.7819  1.0195 -3.2508
 5178TIP3    H215488   2.464   0.716   4.929 -0.3747 -0.2719  0.5387
 5179TIP3   OH215489   3.987   1.812   4.012 -0.0548 -0.3640 -0.0893
 5179TIP3    H115490   4.043   1.881   3.975 -1.1491  0.2863 -0.5606
 5179TIP3    H215491   3.983   1.833   4.106 -0.0362 -0.0369 -0.1606
 5180TIP3   OH215492   2.138   0.333   4.914  0.0313 -0.2994 -0.6467
 5180TIP3    H115493   2.205   0.317   4.848  2.3520  0.2363  1.5122
 5180TIP3    H215494   2.129   0.250   4.960 -2.9301 -1.2247 -2.7507
 5181TIP3   OH215495   4.301   5.103   0.084 -0.5345 -0.3779  0.1066
 5181TIP3    H115496   4.250   5.178   0.054  0.0890 -0.2451 -0.6207
 5181TIP3    H215497   4.347   5.072   0.006  2.3672  0.9839  1.1649
 5182TIP3   OH215498   0.387   5.781   3.496  0.6263 -0.1718 -0.5597
 5182TIP3    H115499   0.471   5.810   3.534  0.1593  1.2950 -0.6106
 5182TIP3    H215500   0.322   5.838   3.537 -0.2808 -0.9233 -0.9610
 5183TIP3   OH215501   6.528   5.039   1.033  0.1369  0.4186  0.4418
 5183TIP3    H115502   6.538   5.082   1.118  1.3518  0.0571  0.4959
 5183TIP3    H215503   6.529   5.111   0.970 -0.3118  0.6555  0.7034
 5184TIP3   OH215504   0.280   7.143   5.078 -0.4330  0.0685  0.4791
 5184TIP3    H115505   0.257   7.051   5.093  1.1968 -0.3303  0.6785
 5184TIP3    H215506   0.210   7.176   5.022 -1.6966 -0.9527  1.4122
 5185TIP3   OH215507   5.635   5.201   0.442 -0.0998  0.6794 -0.5517
 5185TIP3    H115508   5.705   5.264   0.464  1.3417  0.1344 -3.3103
 5185TIP3    H215509   5.558   5.235   0.486  1.7412  1.6898  2.0433
 5186TIP3   OH215510   0.435   6.669   6.415  0.1014 -0.1930 -0.1109
 5186TIP3    H115511   0.492   6.722   6.359  0.1718  0.3168  0.4322
 5186TIP3    H215512   0.380   6.620   6.354  1.2437 -0.8341 -0.6385
 5187TIP3   OH215513   7.550   6.063   4.520 -0.3289  0.4917  0.2236
 5187TIP3    H115514   7.539   6.042   4.427  0.8140 -0.2568  0.2448
 5187TIP3    H215515   7.593   6.148   4.520 -0.5190  0.5894  0.0747
 5188TIP3   OH215516   3.553   1.404   6.102 -0.6116 -0.0313  0.1568
 5188TIP3    H115517   3.636   1.432   6.140  0.6622 -1.9026 -1.1569
 5188TIP3    H215518   3.488   1.427   6.168  0.8673  1.9574  0.9779
 5189TIP3   OH215519   1.486   5.376   3.063 -0.1789 -0.0486  0.5796
 5189TIP3    H115520   1.402   5.335   3.081  0.6186 -1.9856  0.0587
 5189TIP3    H215521   1.464   5.463   3.030 -1.9051  0.1226  2.1098
 5190TIP3   OH215522   7.285   5.044   1.142  0.6511 -0.2870 -0.4312
 5190TIP3    H115523   7.225   5.054   1.068  0.6877 -1.5534 -0.6538
 5190TIP3    H215524   7.277   4.951   1.167  1.2031 -0.0515  0.6616
 5191TIP3   OH215525   5.869   4.699   0.114 -0.1155  0.0765  0.1541
 5191TIP3    H115526   5.896   4.652   0.036  0.1626  1.2146 -0.4348
 5191TIP3    H215527   5.810   4.638   0.159  1.3778 -1.4015  0.1444
 5192TIP3   OH215528   6.456   7.411   6.337 -0.0499  0.4564 -0.3673
 5192TIP3    H115529   6.538   7.423   6.290 -0.9250  0.4710 -1.9199
 5192TIP3    H215530   6.421   7.500   6.348 -1.2354  0.2528 -2.2529
 5193TIP3   OH215531   2.281   1.529   5.225 -0.2607  0.2551  0.1300
 5193TIP3    H115532   2.231   1.449   5.240 -1.8344  0.9676 -1.1535
 5193TIP3    H215533   2.274   1.544   5.131 -1.6540  2.9318  0.6023
 5194TIP3   OH215534   7.105   4.420   0.865 -0.2335 -0.6961  0.3420
 5194TIP3    H115535   7.158   4.378   0.797  0.7630  1.8132 -0.4866
 5194TIP3    H215536   7.168   4.437   0.936 -0.4791  0.0566  0.3748
 5195TIP3   OH215537   6.649   0.697   5.397 -0.4793  0.2074 -0.1369
 5195TIP3    H115538   6.734   0.726   5.365  0.0730 -1.1024  0.1443
 5195TIP3    H215539   6.657   0.603   5.408 -2.0545  0.0212 -0.3666
 5196TIP3   OH215540   0.034   3.747   1.803  0.0350 -0.6874 -0.2113
 5196TIP3    H115541   0.043   3.836   1.836  1.2473 -0.7308 -0.4125
 5196TIP3    H215542  -0.047   3.748   1.751 -0.6120 -0.0232  0.7866
 5197TIP3   OH215543   1.825   1.149   4.351  0.5730 -0.0149 -0.2616
 5197TIP3    H115544   1.872   1.091   4.411  2.2091  0.4730 -1.0362
 5197TIP3    H215545   1.746   1.175   4.399  1.1403 -0.7876  1.1065
 5198TIP3   OH215546   0.944   6.890   5.645  0.2141 -0.7259  0.6988
 5198TIP3    H115547   0.889   6.856   5.574 -0.0172  0.0058  0.5203
 5198TIP3    H215548   0.883   6.904   5.718 -0.1912  1.7545 -0.0585
 5199TIP3   OH215549   4.047   4.847   0.651  0.5501  0.5394 -0.1095
 5199TIP3    H115550   3.972   4.798   0.617  2.1430 -0.5819 -2.1232
 5199TIP3    H215551   4.011   4.934   0.671 -1.2690  0.0698 -1.1701
 5200TIP3   OH215552   6.607   3.702   1.094  0.2837  0.2561 -0.5902
 5200TIP3    H115553   6.542   3.632   1.091  0.6288 -0.1025  0.3586
 5200TIP3    H215554   6.563   3.774   1.139  0.5295  0.0316  0.0060
 5201TIP3   OH215555   5.206   0.166   4.063 -0.1870 -0.0400 -0.4758
 5201TIP3    H115556   5.223   0.133   3.975  0.0508  0.8901 -0.7878
 5201TIP3    H215557   5.260   0.245   4.070 -0.4761  0.0909  0.3736
 5202TIP3   OH215558   1.526   7.216   4.886  0.1777 -0.5457 -0.5317
 5202TIP3    H115559   1.465   7.284   4.860  0.1140 -0.3845  0.0381
 5202TIP3    H215560   1.556   7.178   4.803 -1.9475 -1.7460 -0.7889
 5203TIP3   OH215561   7.703   4.472   0.522 -0.0684  0.2170  0.3268
 5203TIP3    H115562   7.678   4.386   0.555 -3.3512  0.3917 -1.4586
 5203TIP3    H215563   7.766   4.454   0.452  0.3252 -0.6444  0.9039
 5204TIP3   OH215564   3.211   0.402   5.830  0.1754  0.3566 -0.7971
 5204TIP3    H115565   3.138   0.463   5.840  0.4893  0.3610  2.1002
 5204TIP3    H215566   3.169   0.316   5.828  0.0448  0.3739  0.6200
 5205TIP3   OH215567   7.093   7.328   4.767  0.3534 -0.1106  0.6598
 5205TIP3    H115568   7.103   7.273   4.844  0.0129  1.2488  1.6899
 5205TIP3    H215569   7.006   7.306   4.733  0.1879 -0.1560  1.1100
 5206TIP3   OH215570   4.727   2.585   4.378 -0.2902 -0.0265  0.5188
 5206TIP3    H115571   4.727   2.570   4.283 -0.0354 -2.2532  0.8518
 5206TIP3    H215572   4.644   2.548   4.408  0.1276 -0.3239  1.3164
 5207TIP3   OH215573   7.233   4.707   0.978  0.8549  0.1057  0.3364
 5207TIP3    H115574   7.242   4.669   1.065  0.0106 -0.5874  0.1133
 5207TIP3    H215575   7.163   4.772   0.987 -0.3953 -1.1590 -0.2358
 5208TIP3   OH215576   2.761   3.023   3.226  0.1891  0.4220  0.0107
 5208TIP3    H115577   2.812   3.101   3.249  0.9359  0.0815 -0.4849
 5208TIP3    H215578   2.681   3.058   3.186  1.0945  0.9215 -1.4018
 5209TIP3   OH215579   3.042   0.525   4.200 -0.0260 -0.2104 -0.7648
 5209TIP3    H115580   3.081   0.485   4.278  0.4846 -2.1711 -1.9690
 5209TIP3    H215581   3.091   0.487   4.127 -0.0276  2.1268 -2.0293
 5210TIP3   OH215582   3.838   0.588   4.932  0.3456  0.2864  0.6000
 5210TIP3    H115583   3.881   0.674   4.931  0.0438  0.4378  0.9495
 5210TIP3    H215584   3.745   0.607   4.942 -0.0612  0.0534 -2.2760
 5211TIP3   OH215585   7.857   4.195   0.276 -0.0974 -0.1759  0.3439
 5211TIP3    H115586   7.904   4.221   0.355  0.8455  1.2070 -0.6526
 5211TIP3    H215587   7.926   4.173   0.213 -0.8397 -1.3005 -0.0934
 5212TIP3   OH215588   2.251   0.091   4.464  0.2689  0.1247 -0.3426
 5212TIP3    H115589   2.270   0.152   4.392  1.0959  0.9830  0.5836
 5212TIP3    H215590   2.156   0.081   4.461  0.4422 -1.2246 -2.6427
 5213TIP3   OH215591   3.854   0.392   1.472  0.6684  0.3037 -0.8227
 5213TIP3    H115592   3.892   0.409   1.559 -1.7915  0.6136  0.2261
 5213TIP3    H215593   3.811   0.307   1.481  0.4524  0.3122 -1.7744
 5214TIP3   OH215594   3.986   2.426   3.532 -0.2594 -0.0875  0.2207
 5214TIP3    H115595   3.971   2.487   3.604  0.2957  0.4722 -0.1384
 5214TIP3    H215596   4.076   2.397   3.542  0.1332  0.7456 -0.8161
 5215TIP3   OH215597   1.459   6.720   5.669  0.3563 -0.1118  0.7888
 5215TIP3    H115598   1.462   6.815   5.674 -0.2242 -0.1615  2.5164
 5215TIP3    H215599   1.489   6.690   5.755 -1.7160 -1.4140  1.1246
 5216TIP3   OH215600   7.134   2.881   0.045  0.2906  0.3445  0.1348
 5216TIP3    H115601   7.148   2.849  -0.044 -0.6982  1.0302 -0.2825
 5216TIP3    H215602   7.056   2.834   0.075  0.7518 -0.0417  0.7111
 5217TIP3   OH215603   0.400   5.476   5.531  0.5391  0.2650  0.2703
 5217TIP3    H115604   0.381   5.466   5.438  1.9129  1.7850 -0.2072
 5217TIP3    H215605   0.388   5.570   5.548  0.0537 -0.0394  1.6856
 5218TIP3   OH215606   1.065   6.054   5.215  0.2245  0.0712  0.4534
 5218TIP3    H115607   1.083   6.147   5.206  2.5774 -0.3405  0.6622
 5218TIP3    H215608   0.977   6.050   5.254 -0.7467  2.1398 -1.4484
 5219TIP3   OH215609   2.953   0.832   5.030  0.5656  0.3336 -0.4528
 5219TIP3    H115610   2.999   0.880   5.099 -0.5193 -0.4861  0.8619
 5219TIP3    H215611   2.968   0.884   4.951  2.5092  0.8462  0.2337
 5220TIP3   OH215612   4.313   5.657   1.294 -0.0833 -0.3791 -0.1716
 5220TIP3    H115613   4.383   5.656   1.229 -0.3736 -0.4037 -0.4866
 5220TIP3    H215614   4.282   5.747   1.294  0.1489 -0.2971  0.1884
 5221TIP3   OH215615   2.570   4.457   5.613 -0.2000 -0.1522 -0.1527
 5221TIP3    H115616   2.625   4.507   5.672 -0.6468  0.9867 -0.6659
 5221TIP3    H215617   2.497   4.427   5.667  0.5743 -1.0679  0.3710
 5222TIP3   OH215618   4.373   5.573   0.245  0.2062 -0.0822 -0.3852
 5222TIP3    H115619   4.444   5.565   0.181 -0.2575 -0.1320 -0.8970
 5222TIP3    H215620   4.299   5.605   0.194  0.3662  1.7302  0.4787
 5223TIP3   OH215621   3.157   1.788   5.594  0.2845  0.1774 -0.0715
 5223TIP3    H115622   3.133   1.695   5.591 -0.3079  0.3014  0.6764
 5223TIP3    H215623   3.198   1.799   5.680  0.4275  0.5975 -0.1910
 5224TIP3   OH215624   6.989   6.573   6.132 -0.2369 -0.2500 -0.0283
 5224TIP3    H115625   6.978   6.638   6.202  1.1761 -0.2628  0.2185
 5224TIP3    H215626   6.906   6.575   6.084 -1.8772 -1.3993  2.6203
 5225TIP3   OH215627   3.098   2.201   5.418 -0.1364 -0.4506  0.2926
 5225TIP3    H115628   3.063   2.189   5.506 -0.1798 -1.3919  0.1452
 5225TIP3    H215629   3.155   2.125   5.404  0.2801 -0.0391 -0.2946
 5226TIP3   OH215630   4.382   0.512   3.899  0.3586  0.0632  0.1020
 5226TIP3    H115631   4.324   0.585   3.922 -1.4753 -1.1242 -0.5983
 5226TIP3    H215632   4.467   0.553   3.881  0.0371  1.7338  2.1915
 5227TIP3   OH215633   3.338   3.419   5.575  0.6500 -0.0265 -0.1315
 5227TIP3    H115634   3.427   3.436   5.543 -0.1339  2.2882 -1.1685
 5227TIP3    H215635   3.333   3.465   5.658  1.7652 -3.7431  2.1366
 5228TIP3   OH215636   2.243   6.742   5.951 -0.2381  0.0926  0.1797
 5228TIP3    H115637   2.260   6.728   5.858 -1.0776  0.9976 -0.1144
 5228TIP3    H215638   2.148   6.752   5.958 -0.2908 -1.0127  1.2803
 5229TIP3   OH215639   3.295   2.434   5.959 -0.0175  0.1507 -0.1968
 5229TIP3    H115640   3.341   2.352   5.975 -0.6623 -0.4823 -1.5362
 5229TIP3    H215641   3.202   2.409   5.954 -0.1475  0.8223 -1.4092
 5230TIP3   OH215642   4.621   4.330   0.681 -0.1611 -0.0383  0.8174
 5230TIP3    H115643   4.566   4.379   0.620 -2.3257  0.4192  3.0710
 5230TIP3    H215644   4.648   4.395   0.746  1.6268 -0.6566  0.7250
 5231TIP3   OH215645   2.495   3.141   6.261 -0.3118 -0.4360 -0.0765
 5231TIP3    H115646   2.404   3.152   6.232 -0.1166 -1.1732 -0.9993
 5231TIP3    H215647   2.538   3.223   6.237 -0.5153 -0.4449 -0.4715
 5232TIP3   OH215648   2.682   3.380   1.015  0.4095  0.5276  0.2631
 5232TIP3    H115649   2.729   3.457   0.983 -0.5135  0.3787 -1.4974
 5232TIP3    H215650   2.662   3.329   0.937 -2.9873  0.7891  0.8731
 5233TIP3   OH215651   1.114   0.681   4.477  0.2712  0.2970 -0.1280
 5233TIP3    H115652   1.022   0.702   4.487  0.4925  1.9085 -1.2358
 5233TIP3    H215653   1.160   0.758   4.510  1.2348 -0.7479  1.0147
 5234TIP3   OH215654   5.522   2.637   4.486 -0.0707 -0.0038 -0.1013
 5234TIP3    H115655   5.511   2.674   4.399  1.2027 -0.9471 -0.6734
 5234TIP3    H215656   5.591   2.571   4.476  2.1336  1.8289  2.1830
 5235TIP3   OH215657   2.348   2.548   4.471 -0.3363 -0.1644  0.1160
 5235TIP3    H115658   2.348   2.457   4.442  0.4947 -0.3037  0.5198
 5235TIP3    H215659   2.401   2.547   4.551  1.1063  0.9658 -0.8017
 5236TIP3   OH215660   0.204   7.139   6.106  0.3895  0.3737 -0.1922
 5236TIP3    H115661   0.272   7.169   6.046  1.3100 -0.5244  0.3795
 5236TIP3    H215662   0.146   7.085   6.052  1.3446 -0.6225 -0.2516
 5237TIP3   OH215663   5.925   2.442   0.345  0.2087  0.0895  0.3641
 5237TIP3    H115664   5.945   2.383   0.272  0.5975 -0.1189  0.6356
 5237TIP3    H215665   5.832   2.430   0.361  0.0580  0.3574 -0.2945
 5238TIP3   OH215666   5.406   1.965   4.635 -0.1424 -0.2245  0.5052
 5238TIP3    H115667   5.422   2.032   4.701 -0.8313  0.0012  0.4496
 5238TIP3    H215668   5.456   1.889   4.665  1.9968  0.8408 -0.3200
 5239TIP3   OH215669   6.172   3.964   0.262 -0.0252  0.1976  0.3257
 5239TIP3    H115670   6.104   4.016   0.303 -1.6450 -1.5176 -0.1359
 5239TIP3    H215671   6.229   3.937   0.334 -0.7352  0.2796  0.9180
 5240TIP3   OH215672   0.913   6.749   6.239 -0.2737  0.0990 -0.4835
 5240TIP3    H115673   0.853   6.685   6.277 -0.6829  1.3468  1.0340
 5240TIP3    H215674   0.901   6.740   6.144 -1.9384 -0.5249 -0.2258
 5241TIP3   OH215675   5.435   2.017   5.701  0.0118  0.5491  0.3119
 5241TIP3    H115676   5.501   2.000   5.633 -1.0759 -2.9159  0.0493
 5241TIP3    H215677   5.354   2.030   5.653 -0.3463  0.2875  0.8444
 5242TIP3   OH215678   3.620   2.822   5.576  0.5767  0.0368  0.1370
 5242TIP3    H115679   3.675   2.900   5.564  1.1855  0.2687  3.8989
 5242TIP3    H215680   3.531   2.857   5.588  0.9313  0.2118  2.3503
 5243TIP3   OH215681   2.829   0.242   6.202 -0.1518 -0.2300  0.1948
 5243TIP3    H115682   2.768   0.184   6.247 -2.0380  0.5467 -1.2992
 5243TIP3    H215683   2.797   0.330   6.221  1.6135  0.2788  0.9330
 5244TIP3   OH215684   5.784   0.795   4.126  0.7558 -0.0011 -0.5921
 5244TIP3    H115685   5.865   0.755   4.159 -0.6523 -3.3176 -0.9249
 5244TIP3    H215686   5.801   0.811   4.033  1.2333 -0.1384 -0.5300
 5245TIP3   OH215687   0.173   6.682   5.319 -0.3162  0.0580  0.3521
 5245TIP3    H115688   0.097   6.651   5.368 -0.1177 -1.4580 -0.2768
 5245TIP3    H215689   0.234   6.715   5.385 -0.6512 -0.6431  1.0064
 5246TIP3   OH215690   5.775   2.598   4.668  0.2877  0.1270 -0.1700
 5246TIP3    H115691   5.701   2.636   4.715  1.7407  0.0332  2.2347
 5246TIP3    H215692   5.735   2.531   4.613 -1.4260  0.0685  1.0898
 5247TIP3   OH215693   0.416   0.369   4.561 -0.0975 -0.3067 -0.4141
 5247TIP3    H115694   0.410   0.399   4.470  1.5321 -0.1419 -0.4794
 5247TIP3    H215695   0.329   0.384   4.597 -0.3348  1.0446 -1.5192
 5248TIP3   OH215696   5.068   2.123   3.259 -0.3181 -0.0959 -0.2112
 5248TIP3    H115697   4.995   2.152   3.204 -0.1356  0.8522  0.0427
 5248TIP3    H215698   5.027   2.088   3.337 -0.6822 -3.2138 -1.7162
 5249TIP3   OH215699   5.228   1.486   4.792  0.2332 -0.7242  0.2015
 5249TIP3    H115700   5.213   1.391   4.794  2.3471 -1.0665  2.4801
 5249TIP3    H215701   5.204   1.516   4.880 -0.9738  0.9775 -0.6772
 5250TIP3   OH215702   1.822   5.898   0.142  0.7548  0.2498  0.1005
 5250TIP3    H115703   1.778   5.964   0.196 -0.1082 -0.0036 -0.2840
 5250TIP3    H215704   1.913   5.927   0.137  0.4765  1.1538  0.3188
 5251TIP3   OH215705   7.602   2.525   5.221 -0.0072 -0.3333 -0.2333
 5251TIP3    H115706   7.537   2.491   5.283  1.2279 -0.4228  1.0332
 5251TIP3    H215707   7.682   2.533   5.272  0.7019  0.8495 -1.4964
 5252TIP3   OH215708   0.919   1.381   4.380 -0.6802 -0.8405  0.2332
 5252TIP3    H115709   0.864   1.342   4.448  1.1661  1.9374  3.4684
 5252TIP3    H215710   1.009   1.372   4.414  0.4619 -1.0452 -2.7105
 5253TIP3   OH215711   2.704   5.785   4.552  0.0242 -0.4567  0.3592
 5253TIP3    H115712   2.742   5.872   4.553 -2.4147  0.6317  0.7447
 5253TIP3    H215713   2.668   5.772   4.639 -2.1578 -0.6709 -0.5335
 5254TIP3   OH215714   3.940   0.242   4.611 -0.4494  0.3984  0.0532
 5254TIP3    H115715   3.955   0.227   4.705  0.2835 -1.0467 -0.2793
 5254TIP3    H215716   3.864   0.187   4.590 -0.9375  1.1252 -0.0964
 5255TIP3   OH215717   4.291   1.046   3.878 -0.1510 -0.0018  1.1094
 5255TIP3    H115718   4.300   1.055   3.783 -2.8246 -1.0748  0.6923
 5255TIP3    H215719   4.230   1.115   3.904  0.6601  0.3684  2.0733
 5256TIP3   OH215720   4.276   2.406   3.569  0.5597  0.7430  0.3220
 5256TIP3    H115721   4.255   2.439   3.482  0.4137 -0.5708 -0.1454
 5256TIP3    H215722   4.370   2.423   3.579  0.1773  2.8167  0.7721
 5257TIP3   OH215723   5.838   3.538   5.442  0.1990  0.2382 -0.0404
 5257TIP3    H115724   5.871   3.566   5.356 -2.0434  0.9430 -0.7139
 5257TIP3    H215725   5.812   3.447   5.429  0.6770  0.0776  0.1323
 5258TIP3   OH215726   6.757   1.020   3.644  0.4607  0.5143  0.0266
 5258TIP3    H115727   6.681   1.063   3.681  0.7071  0.7557  0.2564
 5258TIP3    H215728   6.744   1.023   3.549 -0.2143 -0.1798  0.0959
 5259TIP3   OH215729   0.614   4.960   0.060  0.2442 -0.0567  0.0500
 5259TIP3    H115730   0.672   4.959  -0.016  0.8516 -1.3687  0.5013
 5259TIP3    H215731   0.668   4.995   0.131 -0.3087  1.1295 -0.1196
 5260TIP3   OH215732   4.993   2.551   4.350  0.1951 -0.5345 -0.1068
 5260TIP3    H115733   5.048   2.579   4.423  0.0295  1.3680 -0.6762
 5260TIP3    H215734   4.908   2.590   4.368  0.5056  1.1113 -1.9597
 5261TIP3   OH215735   5.461   7.409   2.761 -0.5610 -0.4165 -0.4384
 5261TIP3    H115736   5.470   7.315   2.750 -0.2130 -0.4892  0.4308
 5261TIP3    H215737   5.478   7.445   2.674  1.9344 -0.9739 -0.2302
 5262TIP3   OH215738   6.075   1.251   5.588  0.2024  0.3075 -0.4237
 5262TIP3    H115739   6.096   1.317   5.654 -2.5476 -0.3575  1.1824
 5262TIP3    H215740   6.112   1.170   5.623  0.5054  0.3328 -0.6852
 5263TIP3   OH215741   5.841   2.643   4.001  0.4266  0.4079  0.0001
 5263TIP3    H115742   5.793   2.563   4.025 -1.4405  1.3492 -0.5153
 5263TIP3    H215743   5.889   2.667   4.080  2.3530 -2.1498 -0.3321
 5264TIP3   OH215744   3.311   6.884   4.100 -0.1172  0.5238 -0.1044
 5264TIP3    H115745   3.293   6.790   4.111  1.3419  0.1910 -0.5029
 5264TIP3    H215746   3.364   6.907   4.177 -0.0813  0.9162 -0.2458
 5265TIP3   OH215747   4.273   1.700   3.445 -0.4223 -0.0848  0.2117
 5265TIP3    H115748   4.285   1.713   3.539  1.5444 -0.6913  0.0735
 5265TIP3    H215749   4.241   1.609   3.438 -0.9277  0.0837  0.3102
 5266TIP3   OH215750   2.443   1.148   4.409  0.0281 -0.0543  0.3712
 5266TIP3    H115751   2.429   1.219   4.472  0.8489  0.9388 -0.5539
 5266TIP3    H215752   2.502   1.185   4.344 -0.7262 -1.1153 -0.9341
 5267TIP3   OH215753   4.361   1.824   3.739  0.2297  0.7193  0.1049
 5267TIP3    H115754   4.329   1.879   3.810 -0.0117  0.5099  0.1615
 5267TIP3    H215755   4.347   1.875   3.660 -0.1689  0.6653  0.1376
 5268TIP3   OH215756   4.612   1.950   3.786  0.2024 -0.3484 -0.4135
 5268TIP3    H115757   4.547   2.009   3.747 -1.9604 -2.0351  0.5290
 5268TIP3    H215758   4.560   1.880   3.825  2.7267 -3.1730 -1.9488
 5269TIP3   OH215759   6.474   5.262   6.173  0.5258 -0.2425 -0.1046
 5269TIP3    H115760   6.475   5.195   6.104 -1.1774  1.5855 -1.9668
 5269TIP3    H215761   6.384   5.261   6.206  1.1392 -0.5775  1.6208
 5270TIP3   OH215762   1.540   5.849   5.402  0.1338 -0.1625  0.3187
 5270TIP3    H115763   1.614   5.796   5.432  0.0240 -0.5981 -0.1747
 5270TIP3    H215764   1.498   5.879   5.483 -0.9712 -2.4506  0.6238
 5271TIP3   OH215765   5.165   1.948   3.883  0.2493 -0.3145  0.5220
 5271TIP3    H115766   5.094   1.899   3.841  0.4335 -0.6548  0.6078
 5271TIP3    H215767   5.128   1.979   3.965 -0.0315  0.1342  0.2284
 5272TIP3   OH215768   4.848   2.960   4.934 -0.0807 -0.6894  0.2628
 5272TIP3    H115769   4.898   2.879   4.924 -0.6380 -1.1429  1.1078
 5272TIP3    H215770   4.910   3.029   4.910 -0.8152 -1.5381 -4.7078
 5273TIP3   OH215771   5.529   1.665   6.224  0.2052 -0.0182 -0.1368
 5273TIP3    H115772   5.512   1.753   6.258  2.7278  0.4419  0.0007
 5273TIP3    H215773   5.571   1.679   6.140  0.2066 -1.1128 -0.3242
 5274TIP3   OH215774   2.705   6.178   5.412 -0.3934  0.0827 -0.4359
 5274TIP3    H115775   2.730   6.094   5.374  2.1718 -0.4922  2.3043
 5274TIP3    H215776   2.625   6.158   5.462  0.0109 -0.6645 -0.0802
 5275TIP3   OH215777   5.177   2.466   3.015  0.2809  0.0107 -0.0707
 5275TIP3    H115778   5.208   2.530   2.951 -0.5872  0.6962  0.1897
 5275TIP3    H215779   5.163   2.386   2.964  0.7515  0.2118 -0.5131
 5276TIP3   OH215780   7.218   4.198   1.318 -0.4280  0.2129  0.6645
 5276TIP3    H115781   7.270   4.240   1.386  0.4110  0.5249 -0.1647
 5276TIP3    H215782   7.129   4.196   1.354 -0.0242  0.5260  1.6959
 5277TIP3   OH215783   4.494   0.671   5.873  0.2989 -0.7306 -0.0627
 5277TIP3    H115784   4.492   0.680   5.968 -5.3099  0.0171 -0.0588
 5277TIP3    H215785   4.455   0.585   5.856  0.5142 -0.5218 -1.7162
 5278TIP3   OH215786   7.717   3.349   3.812  0.1855  0.1318  0.6505
 5278TIP3    H115787   7.670   3.365   3.895  0.5800 -0.8587  1.0673
 5278TIP3    H215788   7.797   3.303   3.838 -0.8149 -2.3450 -0.4893
 5279TIP3   OH215789   2.611   5.680   0.378 -0.2926  0.2254 -0.4522
 5279TIP3    H115790   2.518   5.657   0.367 -0.0668 -0.7032 -0.4270
 5279TIP3    H215791   2.635   5.725   0.297 -0.4347 -0.6226 -0.9680
 5280TIP3   OH215792   5.953   3.689   4.156  0.3085 -0.4355 -0.5775
 5280TIP3    H115793   5.874   3.708   4.106  0.5563 -0.7534 -1.0933
 5280TIP3    H215794   5.931   3.712   4.246  0.7082  2.7049 -1.2116
 5281TIP3   OH215795   5.170   1.729   4.180 -0.0483 -1.1883 -0.3295
 5281TIP3    H115796   5.120   1.667   4.233 -0.8816 -0.4168 -0.2042
 5281TIP3    H215797   5.238   1.761   4.238 -1.6997  0.5798  0.7074
 5282TIP3   OH215798   5.303   2.528   5.302  0.7731  0.4272 -1.0830
 5282TIP3    H115799   5.226   2.584   5.312  0.9878  1.3691 -4.3050
 5282TIP3    H215800   5.370   2.570   5.356 -0.2048  1.0032 -0.2897
 5283TIP3   OH215801   4.496   3.586   2.966  0.7903 -0.3511  0.7820
 5283TIP3    H115802   4.482   3.515   2.903  0.8775 -0.0030  0.3658
 5283TIP3    H215803   4.457   3.663   2.925  2.2657  0.2278  0.4219
 5284TIP3   OH215804   3.270   2.022   4.362  0.3323  0.4226  0.0170
 5284TIP3    H115805   3.324   2.099   4.347  0.0872  0.7522  0.7801
 5284TIP3    H215806   3.184   2.047   4.329  1.0175 -0.6903 -2.7279
 5285TIP3   OH215807   4.394   2.124   6.418 -0.0825 -0.9901 -0.4322
 5285TIP3    H115808   4.479   2.150   6.383  0.6125 -1.7681  0.6425
 5285TIP3    H215809   4.406   2.124   6.513 -0.8790 -2.4304 -0.3165
 5286TIP3   OH215810   5.035   2.197   5.195 -0.1001  0.1244  0.0887
 5286TIP3    H115811   5.117   2.147   5.201 -0.4409 -0.5373 -0.5981
 5286TIP3    H215812   5.062   2.284   5.165  0.4059  0.0735  0.3856
 5287TIP3   OH215813   3.044   6.764   4.786  0.0079  0.3320  0.1207
 5287TIP3    H115814   3.078   6.700   4.849 -2.1871 -0.9659  0.0299
 5287TIP3    H215815   3.038   6.846   4.836  1.3991  0.1396  0.6547
 5288TIP3   OH215816   4.574   2.581   0.869  0.1585  0.0194  0.0419
 5288TIP3    H115817   4.611   2.500   0.833  1.8704 -0.4823  2.7813
 5288TIP3    H215818   4.536   2.625   0.793  3.5253 -1.0285 -2.4080
 5289TIP3   OH215819   2.300   6.662   2.465 -0.1122  0.2457  0.1508
 5289TIP3    H115820   2.268   6.735   2.412 -0.6725  0.4871  0.8142
 5289TIP3    H215821   2.258   6.673   2.550 -1.4532 -1.7530 -0.2254
 5290TIP3   OH215822   6.228   0.059   4.060  0.3692 -0.5595 -0.1962
 5290TIP3    H115823   6.220   0.154   4.071 -0.4032 -0.6054 -0.2826
 5290TIP3    H215824   6.219   0.045   3.966  2.3267 -0.5653 -0.4011
 5291TIP3   OH215825   0.445   7.332   0.442  0.5778  0.6347 -0.5622
 5291TIP3    H115826   0.390   7.348   0.519  1.1698 -0.9228  0.1976
 5291TIP3    H215827   0.504   7.408   0.439  2.0648 -0.3598  1.8739
 5292TIP3   OH215828   4.707   6.716   4.035  0.5033 -0.7600 -0.2533
 5292TIP3    H115829   4.654   6.669   4.099 -1.4099  0.8550 -0.5952
 5292TIP3    H215830   4.709   6.659   3.959  0.4941 -1.4881  0.2857
 5293TIP3   OH215831   3.736   0.247   5.455 -0.7337 -0.2452 -0.3292
 5293TIP3    H115832   3.656   0.259   5.403 -0.5329  0.1674 -0.5450
 5293TIP3    H215833   3.795   0.315   5.423  0.1693 -1.3607 -1.0673
 5294TIP3   OH215834   0.058   3.467   0.676 -0.0601  0.0647  0.4941
 5294TIP3    H115835   0.041   3.539   0.738  1.0835  2.2379 -1.6388
 5294TIP3    H215836   0.143   3.432   0.703  0.9483  1.7164 -0.4751
 5295TIP3   OH215837   5.170   1.296   1.164 -0.5289  0.1229 -0.5558
 5295TIP3    H115838   5.160   1.381   1.121 -1.1391 -0.3538 -1.3824
 5295TIP3    H215839   5.101   1.295   1.231 -0.3096  0.4136 -0.3265
 5296TIP3   OH215840   6.492   0.655   3.339  0.8148 -0.3676  0.4906
 5296TIP3    H115841   6.503   0.569   3.381  0.2137 -0.8887 -0.4048
 5296TIP3    H215842   6.515   0.640   3.248  0.3501  0.3515  0.2552
 5297TIP3   OH215843   0.408   7.251   5.960  0.1745 -0.1412  0.3489
 5297TIP3    H115844   0.479   7.310   5.934  0.1712  1.2970  3.4352
 5297TIP3    H215845   0.450   7.165   5.964  1.1766  0.3065 -0.1312
 5298TIP3   OH215846   4.972   1.379   3.774 -0.0842  0.2351 -0.2784
 5298TIP3    H115847   4.997   1.362   3.684  0.7723  0.6418 -0.1264
 5298TIP3    H215848   4.988   1.296   3.819 -1.9020 -0.4021 -0.7839
 5299TIP3   OH215849   3.532   0.720   4.686 -0.1005  0.4287  0.5180
 5299TIP3    H115850   3.522   0.743   4.779 -0.9289 -0.2589  0.6096
 5299TIP3    H215851   3.503   0.629   4.681 -0.4914  0.6045 -0.4881
 5300TIP3   OH215852   6.360   0.483   2.978  0.2305 -0.3290 -0.4368
 5300TIP3    H115853   6.348   0.391   3.003 -2.8207  0.2987  0.5405
 5300TIP3    H215854   6.276   0.509   2.941  0.7601  2.3492  0.1752
 5301TIP3   OH215855   5.283   3.017   4.470 -0.7160  0.4788 -0.3761
 5301TIP3    H115856   5.203   3.070   4.472 -3.4440 -3.4936  0.2697
 5301TIP3    H215857   5.316   3.028   4.380 -2.9999  0.7495 -1.2196
 5302TIP3   OH215858   4.587   1.189   5.950  0.3929  0.0633  0.0114
 5302TIP3    H115859   4.537   1.240   5.886 -1.0332 -0.3625  0.7906
 5302TIP3    H215860   4.549   1.101   5.946 -0.1469  0.2090  1.9444
 5303TIP3   OH215861   6.153   2.148   4.988 -0.0653  0.0573  0.3853
 5303TIP3    H115862   6.222   2.122   5.049  1.6343  0.7388 -1.2229
 5303TIP3    H215863   6.161   2.244   4.982 -1.5040  0.2055  0.5896
 5304TIP3   OH215864   6.344   2.561   4.396 -0.3079  0.1874 -0.3553
 5304TIP3    H115865   6.416   2.532   4.341 -0.3814  0.1068 -0.4079
 5304TIP3    H215866   6.285   2.486   4.400  0.1215 -0.1043  0.5512
 5305TIP3   OH215867   4.057   1.110   4.881  0.2442  0.2678  0.2913
 5305TIP3    H115868   4.125   1.177   4.887 -1.7837  2.3277  0.6220
 5305TIP3    H215869   4.034   1.107   4.788 -0.0876  0.4235  0.3715
 5306TIP3   OH215870   1.778   6.996   4.238  0.3248  0.0846 -0.0247
 5306TIP3    H115871   1.746   7.035   4.157  1.9722  1.3154 -0.1132
 5306TIP3    H215872   1.868   6.971   4.218  0.4348 -0.4704  1.1391
 5307TIP3   OH215873   4.149   6.477   3.996 -0.0073 -0.0495 -0.4311
 5307TIP3    H115874   4.239   6.454   4.020  0.5288  2.7206  0.4113
 5307TIP3    H215875   4.102   6.481   4.080 -0.2472  1.2097 -0.6237
 5308TIP3   OH215876   0.086   1.021   2.024  0.1642  0.6172  0.3109
 5308TIP3    H115877   0.095   0.926   2.025 -0.0409  0.5986  0.4731
 5308TIP3    H215878   0.175   1.054   2.039  0.4564  0.4686 -1.0481
 5309TIP3   OH215879   3.084   2.910   4.948  0.3270  0.6177 -0.3715
 5309TIP3    H115880   3.044   2.830   4.915 -0.6676  1.4262 -1.1499
 5309TIP3    H215881   3.123   2.951   4.871  2.2702  0.0874  0.2945
 5310TIP3   OH215882   6.435   0.934   3.358  0.0092 -0.1662  0.3007
 5310TIP3    H115883   6.430   0.840   3.369 -0.7995 -0.1410  0.2301
 5310TIP3    H215884   6.525   0.957   3.378  0.4176 -1.0629 -0.5027
 5311TIP3   OH215885   5.936   2.870   0.109  0.2986 -0.3501  0.1062
 5311TIP3    H115886   5.855   2.897   0.066  0.0816 -0.4358  0.4565
 5311TIP3    H215887   5.972   2.950   0.147 -0.9385 -0.7238  2.1294
 5312TIP3   OH215888   5.260   0.949   4.045  0.1784  0.3837 -0.5620
 5312TIP3    H115889   5.279   1.018   4.109  0.6737  2.3479 -2.7400
 5312TIP3    H215890   5.172   0.919   4.067  0.5506  0.6655  1.3577
 5313TIP3   OH215891   5.401   2.926   4.894  0.7260  0.1981 -0.1587
 5313TIP3    H115892   5.430   2.835   4.905  1.7143  0.3105 -1.7006
 5313TIP3    H215893   5.351   2.926   4.812 -0.3265  0.8099  0.4668
 5314TIP3   OH215894   5.697   2.394   4.495 -0.4956 -0.1959 -0.0763
 5314TIP3    H115895   5.720   2.311   4.537  0.2554 -0.5126 -1.0759
 5314TIP3    H215896   5.625   2.372   4.436 -0.5414 -0.0621 -0.0710
 5315TIP3   OH215897   7.795   1.997   5.487 -0.2815  0.0192  0.2563
 5315TIP3    H115898   7.763   2.009   5.397 -0.2030  0.4844  0.2906
 5315TIP3    H215899   7.865   1.931   5.478 -0.2725  0.0635 -0.0252
 5316TIP3   OH215900   3.916   2.742   3.001  0.3917 -0.1458 -0.5524
 5316TIP3    H115901   3.938   2.669   2.942 -0.9424  0.2654 -1.5705
 5316TIP3    H215902   3.826   2.764   2.979  0.3145  0.8771  0.7620
 5317TIP3   OH215903   0.301   6.854   6.170  0.4194 -0.2728 -0.2674
 5317TIP3    H115904   0.283   6.931   6.224 -2.3479 -0.2161 -1.1954
 5317TIP3    H215905   0.247   6.785   6.209 -0.7605 -0.5159 -2.2574
 5318TIP3   OH215906   6.330   2.131   5.226 -0.4075  0.2728 -0.6436
 5318TIP3    H115907   6.416   2.162   5.197  0.7605 -0.5169  1.8288
 5318TIP3    H215908   6.319   2.168   5.313 -0.8256 -2.7911  0.6808
 5319TIP3   OH215909   4.065   1.580   4.197  0.2775  0.2665  0.0236
 5319TIP3    H115910   4.040   1.589   4.105  0.3682  0.7141  0.0408
 5319TIP3    H215911   4.144   1.635   4.205  1.3634 -1.2589 -0.0766
 5320TIP3   OH215912   6.506   2.452   5.102  0.1618 -0.2622  0.4214
 5320TIP3    H115913   6.553   2.370   5.112  1.5851  0.2246 -1.8284
 5320TIP3    H215914   6.574   2.519   5.094 -0.9589  1.0056  1.0910
 5321TIP3   OH215915   5.499   1.141   4.591  0.2151  0.3329 -0.2045
 5321TIP3    H115916   5.505   1.210   4.657 -1.3420  0.2315  0.0595
 5321TIP3    H215917   5.553   1.070   4.625  2.5509  1.7101 -0.8838
 5322TIP3   OH215918   5.447   2.139   4.845  0.0766  0.4765 -0.5890
 5322TIP3    H115919   5.413   2.225   4.821  0.3843 -0.2533 -3.8760
 5322TIP3    H215920   5.533   2.156   4.882  0.3996  1.5325 -1.8037
 5323TIP3   OH215921   5.432   1.912   3.824 -0.2853 -0.0253  0.5762
 5323TIP3    H115922   5.340   1.907   3.850  0.3355 -0.1851  2.8524
 5323TIP3    H215923   5.476   1.847   3.879  1.4828  1.3958  0.8659
 5324TIP3   OH215924   6.870   1.549   4.595  0.2640 -0.2619 -0.0923
 5324TIP3    H115925   6.891   1.521   4.506 -0.7718 -0.6579 -0.2237
 5324TIP3    H215926   6.781   1.515   4.610  0.2771  0.1481  0.9409
 5325TIP3   OH215927   7.432   0.703   4.042 -0.4647 -0.1666  0.1141
 5325TIP3    H115928   7.436   0.609   4.059  2.2860 -0.0936  0.0130
 5325TIP3    H215929   7.365   0.712   3.973 -1.6369 -1.8870  0.9953
 5326TIP3   OH215930   5.769   2.729   6.033  0.1914  0.0302 -0.2262
 5326TIP3    H115931   5.699   2.732   5.967 -0.8533 -2.0102  0.7600
 5326TIP3    H215932   5.850   2.721   5.982 -0.3256  1.5035 -1.3421
 5327TIP3   OH215933   6.086   1.812   5.863  0.2508 -0.4889  0.2907
 5327TIP3    H115934   6.015   1.811   5.799  1.0709  0.0466 -0.6349
 5327TIP3    H215935   6.112   1.720   5.871 -0.5753 -0.6904  0.6645
 5328TIP3   OH215936   5.125   1.770   1.151 -0.4733 -0.5700  0.3912
 5328TIP3    H115937   5.119   1.865   1.137 -2.4132 -0.4276  1.9600
 5328TIP3    H215938   5.210   1.758   1.193 -0.4876  0.5352  0.7615
 5329TIP3   OH215939   2.544   7.303   5.068  0.1018 -0.3184  0.0780
 5329TIP3    H115940   2.491   7.375   5.103  0.5350 -0.4575  1.0144
 5329TIP3    H215941   2.591   7.268   5.143 -1.0117 -2.3675 -0.1333
 5330TIP3   OH215942   3.418   0.458   4.723  0.3922  0.1841  0.2016
 5330TIP3    H115943   3.326   0.439   4.737  0.4505  0.6387  1.2309
 5330TIP3    H215944   3.455   0.377   4.688 -0.6676  0.4261 -1.5167
 5331TIP3   OH215945   6.099   2.154   3.866  0.1511  0.4036  0.0944
 5331TIP3    H115946   6.133   2.064   3.871 -0.4024  0.2086  0.3758
 5331TIP3    H215947   6.011   2.145   3.830 -0.5916  0.6571  1.7866
 5332TIP3   OH215948   4.714   1.459   4.470  0.0430  0.8819 -0.0965
 5332TIP3    H115949   4.716   1.520   4.397 -0.9415  0.4448 -0.4905
 5332TIP3    H215950   4.632   1.477   4.516  0.2016  0.5126  0.3456
 5333TIP3   OH215951   3.743   1.680   3.905 -0.2728  0.1429 -0.2957
 5333TIP3    H115952   3.801   1.708   3.977  0.5130 -0.4947 -0.6765
 5333TIP3    H215953   3.666   1.645   3.949  0.3959 -0.6630  0.2658
 5334TIP3   OH215954   4.412   1.507   1.619  0.3692  0.6006 -0.4844
 5334TIP3    H115955   4.450   1.474   1.538  1.6929 -0.0337  0.3797
 5334TIP3    H215956   4.486   1.542   1.668  0.1142 -1.9292  1.8394
 5335TIP3   OH215957   7.155   1.329   5.847  0.3217  0.2315  0.3217
 5335TIP3    H115958   7.164   1.410   5.898  0.4334  0.6786 -0.4047
 5335TIP3    H215959   7.100   1.353   5.773  1.0913 -0.1333 -0.3778
 5336TIP3   OH215960   2.072   6.868   4.455 -0.1173  0.5956 -0.7580
 5336TIP3    H115961   1.978   6.853   4.464  0.0999  0.1473  1.1024
 5336TIP3    H215962   2.107   6.782   4.433  0.1065  0.2141  0.9766
 5337TIP3   OH215963   4.474   2.511   2.333  0.0861 -0.2367 -0.0666
 5337TIP3    H115964   4.521   2.498   2.250 -0.4595 -0.4370 -0.3496
 5337TIP3    H215965   4.530   2.471   2.399  1.3547  1.4092 -0.0887
 5338TIP3   OH215966   3.157   1.496   5.556  0.0972  0.7757  0.3236
 5338TIP3    H115967   3.159   1.489   5.460  0.9098  0.2395  0.3717
 5338TIP3    H215968   3.243   1.462   5.584 -0.7131 -0.5061  1.3166
 5339TIP3   OH215969   4.736   0.957   4.756 -0.1976 -0.9136  0.0881
 5339TIP3    H115970   4.766   1.004   4.834 -1.7328 -1.1657  0.8478
 5339TIP3    H215971   4.747   1.020   4.685 -1.4456  0.3370  0.9648
 5340TIP3   OH215972   2.363   0.969   5.586 -0.1834  0.4271  0.0832
 5340TIP3    H115973   2.291   0.917   5.622 -1.4304  1.2705 -1.1562
 5340TIP3    H215974   2.360   1.052   5.635 -0.7285  0.8757 -0.7169
 5341TIP3   OH215975   3.856   1.552   5.512 -0.0753 -0.6176  0.4223
 5341TIP3    H115976   3.936   1.521   5.471  0.3329 -0.1791  0.8903
 5341TIP3    H215977   3.786   1.526   5.451  0.5739  0.4831 -0.8084
 5342TIP3   OH215978   6.714   4.799   1.750  0.4208  0.2184 -0.2873
 5342TIP3    H115979   6.671   4.764   1.672  1.5692 -0.3042 -0.6939
 5342TIP3    H215980   6.720   4.893   1.733 -1.4815  0.4694  0.2363
 5343TIP3   OH215981   5.393   2.034   4.162 -0.2157  0.2647 -0.0548
 5343TIP3    H115982   5.435   1.961   4.117 -0.8074 -0.6166  0.7937
 5343TIP3    H215983   5.367   2.093   4.092  0.3140 -0.3142 -0.7527
 5344TIP3   OH215984   6.260   3.031   4.142 -0.1195  0.1146 -0.3395
 5344TIP3    H115985   6.324   3.101   4.159  1.2984 -1.0938 -0.5977
 5344TIP3    H215986   6.264   2.976   4.220  1.6576 -1.8453 -1.7600
 5345TIP3   OH215987   6.255   3.048   3.744 -0.7771 -0.2301  0.2210
 5345TIP3    H115988   6.341   3.007   3.738 -0.7754 -0.0453 -1.2097
 5345TIP3    H215989   6.267   3.120   3.805  0.0925 -0.1814 -0.0032
 5346TIP3   OH215990   3.852   1.488   5.161  0.0990 -0.6763  0.4329
 5346TIP3    H115991   3.916   1.477   5.231  0.2149 -0.0534  0.4288
 5346TIP3    H215992   3.814   1.401   5.149 -0.0100 -0.7589  1.3524
 5347TIP3   OH215993   4.933   0.471   4.709  0.3226 -0.1033  0.0842
 5347TIP3    H115994   4.939   0.564   4.730 -0.1929 -0.1977  0.6810
 5347TIP3    H215995   4.921   0.468   4.614  0.4804  0.4328  0.0482
 5348TIP3   OH215996   4.766   2.845   6.330 -0.8038 -0.2013 -0.3521
 5348TIP3    H115997   4.801   2.830   6.242 -0.0718  1.0504 -0.2753
 5348TIP3    H215998   4.697   2.779   6.339 -1.6523  0.4012 -2.2884
 5349TIP3   OH215999   4.459   7.181   4.616 -0.2217 -0.0331  0.3258
 5349TIP3    H116000   4.437   7.170   4.708 -0.3559  2.3199  0.5870
 5349TIP3    H216001   4.374   7.177   4.571 -0.2468 -0.2242  0.3875
 5350TIP3   OH216002   6.352   0.702   4.109 -0.1448 -0.6226 -0.0616
 5350TIP3    H116003   6.443   0.674   4.123 -0.6813 -2.5892 -0.3899
 5350TIP3    H216004   6.312   0.699   4.196  0.3972  1.4878  0.3094
 5351TIP3   OH216005   5.518   0.655   6.273  0.2815 -0.0540 -0.0719
 5351TIP3    H116006   5.471   0.725   6.318 -0.2210  0.5242 -1.4680
 5351TIP3    H216007   5.610   0.669   6.297 -0.1521 -0.9224  2.3046
 5352TIP3   OH216008   5.145   0.754   4.403 -0.0255 -0.1248 -0.3487
 5352TIP3    H116009   5.172   0.815   4.472  1.4234 -1.2023  0.0646
 5352TIP3    H216010   5.078   0.801   4.355  1.8392  2.2769 -0.7320
 5353TIP3   OH216011   7.498   4.120   0.042  0.2397  0.0221 -0.2858
 5353TIP3    H116012   7.577   4.076   0.074  1.5144  2.0259 -0.5964
 5353TIP3    H216013   7.446   4.137   0.120  0.6436 -0.2652  0.0467
 5354TIP3   OH216014   3.694   0.366   4.427  0.3212 -0.1309 -0.6072
 5354TIP3    H116015   3.721   0.433   4.489 -3.0274 -1.5671  2.6050
 5354TIP3    H216016   3.727   0.284   4.464 -1.2960 -0.9624 -0.9339
 5355TIP3   OH216017   6.057   1.633   4.510 -0.0471 -0.1043  0.6465
 5355TIP3    H116018   6.001   1.698   4.468 -0.3081 -0.1900  0.8618
 5355TIP3    H216019   6.145   1.671   4.506  0.4888 -1.5377 -2.9330
 5356TIP3   OH216020   3.906   6.268   3.529 -0.3097  0.2328  0.1406
 5356TIP3    H116021   3.898   6.282   3.623 -0.2116  2.7411 -0.1919
 5356TIP3    H216022   3.988   6.220   3.519  0.3956  1.1901  1.2303
 5357TIP3   OH216023   1.528   6.147   0.712 -0.0702 -0.0375  0.3415
 5357TIP3    H116024   1.584   6.210   0.668 -0.1255 -0.1264  0.1398
 5357TIP3    H216025   1.576   6.064   0.705  0.4131  0.1489  1.3755
 5358TIP3   OH216026   3.166   0.957   4.564 -0.1705  0.3203 -0.0656
 5358TIP3    H116027   3.219   1.029   4.531  0.5319 -0.6819 -1.1256
 5358TIP3    H216028   3.196   0.880   4.516  0.9082 -1.1939  2.8777
 5359TIP3   OH216029   5.706   4.530   0.277  0.0682 -0.2508  0.7594
 5359TIP3    H116030   5.777   4.566   0.330  0.2794  0.6161 -0.1013
 5359TIP3    H216031   5.705   4.437   0.298  1.3080 -0.2306  0.9431
 5360TIP3   OH216032   7.441   1.315   5.924 -0.1058  0.0432  0.1990
 5360TIP3    H116033   7.471   1.396   5.883  3.2636 -0.7921  0.8457
 5360TIP3    H216034   7.350   1.307   5.896  0.4369  2.3555 -2.5603
 5361TIP3   OH216035   5.653   1.015   6.178  0.3423 -0.1896  0.1780
 5361TIP3    H116036   5.651   1.013   6.274 -0.9330 -2.3718  0.1253
 5361TIP3    H216037   5.697   0.933   6.153  1.7313  0.9103 -1.0924
 5362TIP3   OH216038   4.547   1.728   3.405 -0.3978  0.1169 -0.8429
 5362TIP3    H116039   4.538   1.655   3.344 -1.2041  1.3599 -2.2584
 5362TIP3    H216040   4.458   1.762   3.415  0.1457  1.7132 -1.2424
 5363TIP3   OH216041   1.840   7.260   4.863 -0.2380 -0.4651 -0.0473
 5363TIP3    H116042   1.915   7.213   4.825 -1.1500 -2.9725  1.1691
 5363TIP3    H216043   1.782   7.191   4.894 -2.4410  1.4754  0.2620
 5364TIP3   OH216044   3.556   0.327   5.272 -0.3465 -0.2024  0.3607
 5364TIP3    H116045   3.476   0.277   5.255 -0.7189  0.6122 -0.2941
 5364TIP3    H216046   3.573   0.375   5.191  0.6704 -0.1722  0.5764
 5365TIP3   OH216047   3.901   7.169   5.308 -0.1504 -0.8935  0.4441
 5365TIP3    H116048   3.901   7.078   5.339  1.2271 -0.5517  1.4695
 5365TIP3    H216049   3.935   7.220   5.382  0.6938  0.2547 -0.7161
 5366TIP3   OH216050   2.751   1.562   4.410 -0.2541  0.7312 -0.2508
 5366TIP3    H116051   2.681   1.518   4.361  0.7902 -1.3342  0.0623
 5366TIP3    H216052   2.711   1.583   4.495  0.0405 -2.2404  0.6817
 5367TIP3   OH216053   3.227   2.042   5.126 -0.6900 -0.1475 -0.1487
 5367TIP3    H116054   3.198   2.005   5.209  1.2395 -0.6898  0.3087
 5367TIP3    H216055   3.282   2.116   5.150  0.5621 -0.8103 -0.8888
 5368TIP3   OH216056   6.592   0.316   4.079 -0.1789  0.3668  0.1284
 5368TIP3    H116057   6.569   0.349   3.992  0.1474  1.3972  0.4194
 5368TIP3    H216058   6.542   0.235   4.089  1.1496 -0.7152 -1.7306
 5369TIP3   OH216059   5.965   1.689   5.098  0.1200 -0.2403  0.1894
 5369TIP3    H116060   5.973   1.719   5.008  3.8261 -0.9283  0.2059
 5369TIP3    H216061   5.948   1.595   5.091 -1.8094  0.0946  0.2141
 5370TIP3   OH216062   7.229   2.199   6.001  0.4127 -0.2124  0.2479
 5370TIP3    H116063   7.198   2.284   6.030 -0.1988  0.0295 -1.0613
 5370TIP3    H216064   7.152   2.142   6.007  1.0652 -0.9595  2.1164
 5371TIP3   OH216065   4.591   0.606   5.478 -0.1047 -0.0517 -0.2440
 5371TIP3    H116066   4.595   0.696   5.509  0.9389  0.5532 -2.0872
 5371TIP3    H216067   4.531   0.609   5.403 -0.4184 -0.9740 -0.0401
 5372TIP3   OH216068   4.307   1.707   4.262 -0.2978 -0.2327  0.3877
 5372TIP3    H116069   4.360   1.671   4.190 -0.1870  0.4374  0.1324
 5372TIP3    H216070   4.364   1.772   4.303 -0.1801 -0.9634  1.3974
 5373TIP3   OH216071   5.791   2.400   5.202  0.9053  0.6399 -0.4242
 5373TIP3    H116072   5.885   2.388   5.212  0.6571 -0.9533  0.1489
 5373TIP3    H216073   5.768   2.464   5.270  1.8544  2.4685 -1.8044
 5374TIP3   OH216074   7.915   2.321   5.465  0.8400  0.2850  0.4915
 5374TIP3    H116075   7.861   2.400   5.478  0.2610 -0.2906  1.6339
 5374TIP3    H216076   7.918   2.310   5.370 -1.8900 -0.2162  0.4251
 5375TIP3   OH216077   6.974   1.493   4.332  0.3519  0.0655 -0.0007
 5375TIP3    H116078   7.033   1.568   4.340 -0.2493  0.9275 -2.9104
 5375TIP3    H216079   6.947   1.494   4.240 -1.5048 -2.3501  0.4719
 5376TIP3   OH216080   1.772   6.564   5.399 -0.2247 -0.2695  0.2829
 5376TIP3    H116081   1.730   6.575   5.485 -0.7371 -0.2369  0.0295
 5376TIP3    H216082   1.846   6.506   5.416 -0.7050 -0.7785  0.6272
 5377TIP3   OH216083   5.145   1.377   3.530 -0.1002  0.0011 -0.9028
 5377TIP3    H116084   5.115   1.387   3.439  1.6765 -0.8362 -1.6173
 5377TIP3    H216085   5.214   1.311   3.524 -0.0140 -0.0928  1.0837
 5378TIP3   OH216086   0.756   6.251   5.031 -0.4407 -0.1077 -0.2795
 5378TIP3    H116087   0.724   6.295   5.110  2.2682  1.2768  0.0939
 5378TIP3    H216088   0.808   6.318   4.986  0.2598 -1.6858 -1.8431
 5379TIP3   OH216089   7.731   3.982   0.151  0.1128  0.4315 -0.0748
 5379TIP3    H116090   7.788   4.044   0.197 -0.9522  0.9281  0.5959
 5379TIP3    H216091   7.785   3.950   0.078  1.2934  0.7781  0.6245
 5380TIP3   OH216092   5.746   0.499   4.979  0.1196  0.0657 -0.4567
 5380TIP3    H116093   5.705   0.473   5.062  1.5938 -0.7182  0.0510
 5380TIP3    H216094   5.677   0.545   4.931 -0.6577  0.8406  1.3508
 5381TIP3   OH216095   2.071   7.437   3.841  0.0334  0.8736  0.0166
 5381TIP3    H116096   2.090   7.437   3.935 -1.0338 -1.2734  0.2544
 5381TIP3    H216097   2.052   7.346   3.820 -0.1089  1.3914 -2.2229
 5382TIP3   OH216098   4.598   7.421   4.520  0.1978 -0.2184 -0.3049
 5382TIP3    H116099   4.688   7.424   4.490  0.3102 -2.6588 -0.2937
 5382TIP3    H216100   4.590   7.337   4.565 -1.5747  0.7902  1.3357
 5383TIP3   OH216101   7.772   0.810   4.208 -0.0984 -0.1616 -0.2690
 5383TIP3    H116102   7.706   0.769   4.265 -0.0716  0.6184  0.3331
 5383TIP3    H216103   7.822   0.737   4.173  2.0561 -0.5082  3.3402
 5384TIP3   OH216104   6.202   3.420   0.984  0.2111  0.0648 -0.0878
 5384TIP3    H116105   6.110   3.393   0.985  0.1118  0.4114  0.2432
 5384TIP3    H216106   6.202   3.506   1.026  0.8018 -0.2775  0.6167
 5385TIP3   OH216107   5.261   0.132   6.430 -0.8855 -0.2716 -0.6739
 5385TIP3    H116108   5.237   0.168   6.344 -0.1485 -1.1644 -1.2585
 5385TIP3    H216109   5.345   0.088   6.415  0.2144  1.2418  0.9541
 5386TIP3   OH216110   4.661   3.323   3.170 -0.5066 -0.1788 -0.5834
 5386TIP3    H116111   4.748   3.283   3.174 -0.1157  0.9145  5.2063
 5386TIP3    H216112   4.675   3.407   3.125  1.5532  0.2011  0.7138
 5387TIP3   OH216113   0.013   5.004   5.635  0.3272  0.0634  0.9240
 5387TIP3    H116114   0.033   4.947   5.561  1.2762 -1.8358  2.6022
 5387TIP3    H216115   0.022   5.093   5.599 -1.5315 -0.7921 -1.8156
 5388TIP3   OH216116   6.706   0.820   6.108  0.6713  0.6269  0.2091
 5388TIP3    H116117   6.640   0.888   6.120  0.2246  0.3384 -0.5694
 5388TIP3    H216118   6.698   0.794   6.016  1.0300 -0.2740  0.4213
 5389TIP3   OH216119   4.275   1.606   5.200 -0.1812 -0.2489  0.0029
 5389TIP3    H116120   4.370   1.595   5.194  0.0277 -0.4266  3.0954
 5389TIP3    H216121   4.260   1.698   5.176  0.7552 -0.2215 -0.5080
 5390TIP3   OH216122   5.972   1.848   4.835 -0.1267 -0.4651  0.2754
 5390TIP3    H116123   5.952   1.838   4.742  0.6389 -2.9878  0.3192
 5390TIP3    H216124   5.905   1.908   4.869  0.4220  1.5726 -2.1546
 5391TIP3   OH216125   6.541   3.651   5.951 -0.5151  0.2191  0.5464
 5391TIP3    H116126   6.509   3.567   5.982  0.7278  0.5176  2.7819
 5391TIP3    H216127   6.465   3.709   5.953 -0.6179  0.0463  2.4754
 5392TIP3   OH216128   5.430   3.541   4.800 -0.2304 -0.0738  0.0226
 5392TIP3    H116129   5.356   3.499   4.755  1.3191 -0.6595 -2.0453
 5392TIP3    H216130   5.414   3.524   4.893 -2.2197 -0.9778 -0.4601
 5393TIP3   OH216131   0.524   6.639   0.023  0.3228 -0.6605  0.3080
 5393TIP3    H116132   0.512   6.554   0.065  0.4478 -1.3185 -0.9815
 5393TIP3    H216133   0.585   6.622  -0.049  3.0200  1.1590  2.0787
 5394TIP3   OH216134   7.159   1.768   3.543  0.1395 -0.2737  0.6000
 5394TIP3    H116135   7.118   1.808   3.467 -0.7396  0.7629  1.6042
 5394TIP3    H216136   7.150   1.674   3.528  2.1916 -0.1384 -1.7582
 5395TIP3   OH216137   7.189   2.392   3.515  0.1556 -0.0889  0.0918
 5395TIP3    H116138   7.216   2.318   3.568  0.0235  1.0630  1.7897
 5395TIP3    H216139   7.097   2.407   3.537 -0.3087 -0.4411 -1.4815
 5396TIP3   OH216140   0.058   6.411   0.971 -0.8113 -0.2469 -0.6063
 5396TIP3    H116141   0.140   6.412   0.923  0.9990 -0.2167  2.3812
 5396TIP3    H216142   0.040   6.503   0.991 -0.7880 -0.3750  0.0195
 5397TIP3   OH216143   3.526   0.487   4.970 -0.1022 -0.2339 -0.3739
 5397TIP3    H116144   3.500   0.487   4.878 -0.5327 -0.1888 -0.2520
 5397TIP3    H216145   3.473   0.555   5.010  1.7664  1.3885 -0.5572
 5398TIP3   OH216146   0.229   7.160   4.355  0.4595 -0.4179  0.2610
 5398TIP3    H116147   0.232   7.169   4.259 -1.7088 -0.6656  0.1366
 5398TIP3    H216148   0.198   7.071   4.370 -0.8766  0.1703  1.1471
 5399TIP3   OH216149   4.171   2.234   3.916  0.3722  0.1434 -0.3505
 5399TIP3    H116150   4.153   2.271   4.003  0.8222  1.0920 -0.6462
 5399TIP3    H216151   4.138   2.300   3.855 -1.9703 -1.4963 -0.9499
 5400TIP3   OH216152   3.419   1.886   4.574  0.4678 -0.1237 -0.2977
 5400TIP3    H116153   3.358   1.943   4.527 -1.5691 -0.5296  1.7927
 5400TIP3    H216154   3.372   1.803   4.583  1.8923 -0.9008  0.1029
 5401TIP3   OH216155   5.544   1.566   3.297  0.1570  0.4820  0.5304
 5401TIP3    H116156   5.521   1.635   3.360  0.1250  1.2403 -0.3148
 5401TIP3    H216157   5.608   1.511   3.344 -1.2238 -0.0202  1.8902
 5402TIP3   OH216158   6.570   6.368  -0.000 -0.4257  0.2003  0.4777
 5402TIP3    H116159   6.492   6.383   0.054 -0.1558  1.8768  0.4340
 5402TIP3    H216160   6.641   6.408   0.050  0.7960 -3.0684  1.4787
 5403TIP3   OH216161   5.537   0.156   6.209  0.1105 -0.2912  0.3939
 5403TIP3    H116162   5.485   0.131   6.132 -0.9906 -2.2109  1.7070
 5403TIP3    H216163   5.509   0.246   6.228 -2.3107 -1.0492  0.6760
 5404TIP3   OH216164   0.584   1.122   2.338  0.1711 -0.0293 -0.4290
 5404TIP3    H116165   0.596   1.055   2.405  0.3020  0.6986  0.2893
 5404TIP3    H216166   0.535   1.079   2.268  0.6318 -0.9859 -0.1635
 5405TIP3   OH216167   6.143   7.067   4.667 -0.3604  0.1132  0.0962
 5405TIP3    H116168   6.222   7.038   4.713  0.9470  2.0048 -0.8942
 5405TIP3    H216169   6.136   7.008   4.591  0.0483 -0.1035  0.2279
 5406TIP3   OH216170   5.450   1.798   5.216 -0.0135 -0.2522  0.1365
 5406TIP3    H116171   5.371   1.788   5.163 -1.4731  2.8766  1.6140
 5406TIP3    H216172   5.507   1.855   5.164 -0.4405  0.8094  0.8042
 5407TIP3   OH216173   6.960   0.658   3.010 -0.0161  0.1403 -0.0242
 5407TIP3    H116174   7.011   0.624   3.083 -0.1982 -0.7651 -0.3204
 5407TIP3    H216175   6.907   0.584   2.980  0.4783  0.3538 -1.4514
 5408TIP3   OH216176   5.926   4.570   4.926 -0.0095  0.1691  0.0670
 5408TIP3    H116177   5.837   4.605   4.934 -1.5773 -3.7459  1.0766
 5408TIP3    H216178   5.948   4.541   5.014  1.5439 -0.5831 -0.5599
 5409TIP3   OH216179   0.916   0.026   2.816 -0.4165 -0.0747 -0.3991
 5409TIP3    H116180   0.893  -0.065   2.838  0.5902  0.2146  1.9998
 5409TIP3    H216181   0.881   0.078   2.889 -0.3300  1.3897 -1.3850
 5410TIP3   OH216182   5.038   6.795   4.554  0.2074  0.5839 -0.5353
 5410TIP3    H116183   5.088   6.806   4.472  0.9061  0.7856 -0.0843
 5410TIP3    H216184   5.104   6.803   4.623 -0.0256 -1.6494 -0.0143
 5411TIP3   OH216185   2.913   5.545   3.002 -0.1223 -0.2800 -0.1177
 5411TIP3    H116186   2.996   5.508   3.031 -0.4226  0.4354  1.6960
 5411TIP3    H216187   2.933   5.635   2.978 -0.5572  0.1999  1.2853
 5412TIP3   OH216188   4.613   6.738   4.587 -0.4009  0.3434  0.5135
 5412TIP3    H116189   4.570   6.761   4.505 -0.3602  0.8356  0.6316
 5412TIP3    H216190   4.590   6.646   4.600  0.6754 -0.1320 -0.7261
 5413TIP3   OH216191   0.001   1.486   5.967 -0.3022 -0.0532  0.1792
 5413TIP3    H116192  -0.052   1.561   5.995 -0.7286 -0.4778  0.5114
 5413TIP3    H216193   0.067   1.475   6.035 -0.7645 -0.5057  0.5587
 5414TIP3   OH216194   3.312   0.105   4.018 -0.2126 -0.6591 -0.2180
 5414TIP3    H116195   3.346   0.045   4.084 -0.1487 -0.4899 -0.0947
 5414TIP3    H216196   3.217   0.090   4.018 -0.1049 -1.3285 -0.7634
 5415TIP3   OH216197   7.475   0.207   4.022 -0.0763  0.3187 -0.0447
 5415TIP3    H116198   7.551   0.222   3.967  1.3667  0.6545  2.0039
 5415TIP3    H216199   7.417   0.282   4.005  1.0666  1.2304  0.0480
 5416TIP3   OH216200   4.367   5.141   4.887  0.1363 -0.1856 -0.3401
 5416TIP3    H116201   4.313   5.219   4.899  1.2464  0.3279  1.5740
 5416TIP3    H216202   4.443   5.173   4.837 -0.1711 -0.4028 -0.9561
 5417TIP3   OH216203   2.904   6.713   4.028 -0.1281 -0.9187 -0.0263
 5417TIP3    H116204   2.929   6.797   4.067 -0.8686 -1.2308  1.1657
 5417TIP3    H216205   2.820   6.693   4.069 -2.3219  0.0631 -3.8030
 5418TIP3   OH216206   6.572   3.236   3.555 -0.1022 -0.2443  0.0124
 5418TIP3    H116207   6.522   3.307   3.594  0.3302 -0.3165  0.6923
 5418TIP3    H216208   6.509   3.191   3.498 -0.3513  0.7256 -0.4858
 5419TIP3   OH216209   5.643   1.046   5.369  0.3374 -0.3912 -0.2820
 5419TIP3    H116210   5.564   1.008   5.407 -0.2011 -0.2408 -1.2284
 5419TIP3    H216211   5.686   1.091   5.441 -2.0369  2.1900 -0.4022
 5420TIP3   OH216212   7.130   1.262   2.887  0.4369 -0.3469  0.4177
 5420TIP3    H116213   7.103   1.232   2.801  1.2818 -1.2025  0.4448
 5420TIP3    H216214   7.125   1.358   2.881 -0.8331 -0.4335 -0.1311
 5421TIP3   OH216215   6.555   0.859   2.580  0.0849  0.2628 -0.5183
 5421TIP3    H116216   6.627   0.817   2.626 -0.5783  0.0631  0.3606
 5421TIP3    H216217   6.476   0.824   2.623 -0.5230  0.5465 -1.3964
 5422TIP3   OH216218   4.069   7.201   4.777 -0.0250  0.2785  0.2121
 5422TIP3    H116219   4.055   7.189   4.871 -0.6131 -0.2507  0.0628
 5422TIP3    H216220   3.981   7.214   4.741  0.1933  0.4297 -0.2750
 5423TIP3   OH216221   7.081   0.199   4.430 -0.3421 -0.2711 -0.4341
 5423TIP3    H116222   7.116   0.116   4.462 -3.7555 -1.4432  0.5531
 5423TIP3    H216223   7.030   0.233   4.504 -1.3821  1.2577 -1.8136
 5424TIP3   OH216224   0.282   1.203   4.767 -0.0650 -0.5920 -0.2914
 5424TIP3    H116225   0.195   1.195   4.807 -0.7074  0.3965 -1.4219
 5424TIP3    H216226   0.263   1.224   4.675  1.3774 -0.5735 -0.5897
 5425TIP3   OH216227   0.181   0.936   2.433 -0.1079  0.1410 -0.1531
 5425TIP3    H116228   0.233   0.932   2.514 -0.2056  2.4149  0.0669
 5425TIP3    H216229   0.090   0.931   2.462 -0.0829 -3.6969 -0.5282
 5426TIP3   OH216230   6.544   1.440   2.093 -0.2903  0.7159 -0.0866
 5426TIP3    H116231   6.528   1.380   2.166  0.4735  0.5726 -0.0276
 5426TIP3    H216232   6.489   1.516   2.111 -0.0345  0.7192  0.6922
 5427TIP3   OH216233   0.636   1.596   2.859  0.4911 -0.3635 -0.1756
 5427TIP3    H116234   0.700   1.565   2.923  0.0767 -0.4174  0.2139
 5427TIP3    H216235   0.614   1.518   2.808 -0.6091 -0.7467  0.8550
 5428TIP3   OH216236   0.072   2.041   3.150 -0.2239  0.2007  0.0822
 5428TIP3    H116237   0.100   2.052   3.059 -0.5667  1.0567  0.0692
 5428TIP3    H216238  -0.021   2.065   3.149 -0.5839 -1.1302  0.4037
 5429TIP3   OH216239   5.615   6.809   1.829  0.3709 -0.8602 -0.6478
 5429TIP3    H116240   5.591   6.747   1.898  0.3313 -0.4121 -0.2571
 5429TIP3    H216241   5.708   6.795   1.814  0.1805 -1.6153 -1.1695
 5430TIP3   OH216242   0.203   0.678   4.847  0.3663 -0.6054  0.2190
 5430TIP3    H116243   0.248   0.762   4.843  1.0372 -1.0193 -1.0372
 5430TIP3    H216244   0.167   0.675   4.936  2.1712  0.0745  1.0104
 5431TIP3   OH216245   6.101   0.886   4.535  0.5279 -0.0037  0.4382
 5431TIP3    H116246   6.006   0.876   4.532  0.2748  2.4426 -2.2875
 5431TIP3    H216247   6.133   0.834   4.461  1.2363 -0.1870  0.8646
 5432TIP3   OH216248   6.936   1.237   5.651  0.4639 -0.0898 -0.1521
 5432TIP3    H116249   6.964   1.152   5.618 -0.9459  0.0813 -1.8666
 5432TIP3    H216250   6.917   1.288   5.572 -1.9846  0.6765  0.8930
 5433TIP3   OH216251   6.099   0.528   3.232  0.7399 -0.2158 -0.5695
 5433TIP3    H116252   6.132   0.611   3.197  2.9706 -0.6109  0.5307
 5433TIP3    H216253   6.177   0.481   3.259 -0.6152 -2.0996  0.1384
 5434TIP3   OH216254   5.770   2.604   3.263 -0.2023  0.1901  0.0900
 5434TIP3    H116255   5.682   2.566   3.265 -0.2442  0.2088 -1.0710
 5434TIP3    H216256   5.809   2.570   3.183  0.8982  0.0854  0.6679
 5435TIP3   OH216257   3.192   5.954   2.880  0.1107  0.3821  0.3545
 5435TIP3    H116258   3.162   5.952   2.971  1.4572 -0.2393  0.7932
 5435TIP3    H216259   3.260   5.886   2.875  2.3111  2.5614 -0.3020
 5436TIP3   OH216260   3.753   6.386   2.387 -0.0539  0.3006 -0.1025
 5436TIP3    H116261   3.816   6.438   2.337  2.3551 -0.7246  1.7625
 5436TIP3    H216262   3.683   6.448   2.408  0.4618  1.5626 -1.9331
 5437TIP3   OH216263   7.543   1.969   5.907  0.1409 -0.4268 -0.7865
 5437TIP3    H116264   7.512   1.883   5.934 -1.1659  0.6568  1.3075
 5437TIP3    H216265   7.615   1.989   5.967 -0.3404  0.4180 -0.4778
 5438TIP3   OH216266   6.982   1.139   3.379  0.4435  0.9791  0.5280
 5438TIP3    H116267   7.060   1.157   3.431 -0.6095 -0.1118  2.5374
 5438TIP3    H216268   6.971   1.044   3.385  0.9332  0.6523 -2.6499
 5439TIP3   OH216269   0.132   0.356   5.989  0.1989  0.0115  0.0971
 5439TIP3    H116270   0.181   0.435   6.013  1.2616 -0.1138 -1.5754
 5439TIP3    H216271   0.069   0.387   5.923  0.7581 -0.5570 -0.7148
 5440TIP3   OH216272   6.220   0.269   6.429  0.1766 -0.3916  0.1329
 5440TIP3    H116273   6.272   0.347   6.411  1.6140 -1.4453 -0.3369
 5440TIP3    H216274   6.159   0.263   6.356  0.3681  0.0478 -0.0621
 5441TIP3   OH216275   7.008   3.115   1.202  0.8369 -0.0261  0.0772
 5441TIP3    H116276   6.924   3.106   1.158  0.8349 -1.6657  0.4038
 5441TIP3    H216277   7.072   3.081   1.139  1.0434 -0.5847  0.5862
 5442TIP3   OH216278   6.851   2.556   3.527  0.3090 -0.5412 -0.3106
 5442TIP3    H116279   6.926   2.616   3.523  0.5314 -0.8857 -1.2987
 5442TIP3    H216280   6.886   2.478   3.571 -0.3383  0.5597  2.2527
 5443TIP3   OH216281   5.418   2.406   5.048  0.7159 -0.0501 -0.6076
 5443TIP3    H116282   5.506   2.443   5.053  0.5565  0.2078  0.2537
 5443TIP3    H216283   5.378   2.425   5.132  0.9667 -2.9996  0.2428
 5444TIP3   OH216284   0.550   0.261   4.806  0.2406  0.2406  0.2628
 5444TIP3    H116285   0.514   0.308   4.731  2.5285  1.0733 -0.3538
 5444TIP3    H216286   0.637   0.233   4.778  0.6526 -0.4984  2.1727
 5445TIP3   OH216287   7.284   0.172   4.782 -0.5407 -0.0784 -0.1780
 5445TIP3    H116288   7.328   0.103   4.830 -0.4592  0.2331  0.1943
 5445TIP3    H216289   7.271   0.136   4.694  2.7806  0.7474 -1.0993
 5446TIP3   OH216290   0.117   0.654   3.373  0.9436 -0.2505 -0.2606
 5446TIP3    H116291   0.058   0.711   3.323 -1.2213 -0.7613  1.6196
 5446TIP3    H216292   0.119   0.572   3.325  0.5769 -0.0355 -0.6401
 5447TIP3   OH216293   5.441   0.503   3.289 -0.1047 -0.3028  0.0438
 5447TIP3    H116294   5.463   0.427   3.234  1.2079  0.2983 -0.2922
 5447TIP3    H216295   5.518   0.558   3.284 -0.5364  0.4325  1.3784
 5448TIP3   OH216296   7.297   1.484   3.055  0.1450  0.0483  0.1532
 5448TIP3    H116297   7.370   1.423   3.046 -0.6111 -0.7368 -0.8659
 5448TIP3    H216298   7.251   1.478   2.971 -1.6449 -0.2202  1.1218
 5449TIP3   OH216299   0.810   2.359   4.829  0.6305  0.2546  0.7328
 5449TIP3    H116300   0.736   2.325   4.879  1.4720  0.1235  1.9109
 5449TIP3    H216301   0.886   2.342   4.884  1.4360  1.2092 -0.0646
 5450TIP3   OH216302   3.668   7.336   4.280 -0.3093 -0.2843  0.2757
 5450TIP3    H116303   3.651   7.256   4.231  0.7222 -1.3946  1.7067
 5450TIP3    H216304   3.638   7.406   4.222 -0.6508 -1.6572 -1.2396
 5451TIP3   OH216305   7.017   0.383   6.053 -0.4998  0.1645 -0.9994
 5451TIP3    H116306   6.957   0.453   6.078  0.1470  0.7570 -1.0888
 5451TIP3    H216307   6.998   0.312   6.114  1.6717  1.9019  1.8580
 5452TIP3   OH216308   0.436   0.611   2.284  0.4779  0.0787  0.3081
 5452TIP3    H116309   0.392   0.674   2.229 -1.7785 -1.1309  0.6816
 5452TIP3    H216310   0.440   0.653   2.370  0.1627  0.2357  0.2458
 5453TIP3   OH216311   6.733   0.229   5.212 -0.2169 -0.3345 -0.2124
 5453TIP3    H116312   6.722   0.144   5.254 -1.5746 -0.4776 -0.8516
 5453TIP3    H216313   6.670   0.286   5.255 -1.5856 -0.4683 -1.9804
 5454TIP3   OH216314   7.747   0.380   4.133  0.3839 -0.0689  0.4630
 5454TIP3    H116315   7.805   0.443   4.176  1.9381  0.3366 -2.0969
 5454TIP3    H216316   7.697   0.434   4.070 -1.3450 -0.7429  1.2183
 5455TIP3   OH216317   7.518   0.996   2.783  0.0713 -0.3346  0.3922
 5455TIP3    H116318   7.484   1.085   2.775 -2.1625 -1.1802  0.0685
 5455TIP3    H216319   7.502   0.956   2.697  0.1336 -1.3583  0.8436
 5456TIP3   OH216320   3.114   6.219   0.115  0.2616 -0.0090 -0.0592
 5456TIP3    H116321   3.129   6.233   0.209 -1.5149  0.3177  0.1915
 5456TIP3    H216322   3.028   6.257   0.099 -0.4142 -2.0239 -1.3805
 5457TIP3   OH216323   7.193   1.851   3.936  0.2898  0.0758  0.2579
 5457TIP3    H116324   7.263   1.854   3.871 -1.0840  1.7660 -1.1989
 5457TIP3    H216325   7.207   1.928   3.990 -0.9488  0.9173 -0.5982
 5458TIP3   OH216326   6.309   1.601   3.408  0.0093 -0.1293  0.0015
 5458TIP3    H116327   6.279   1.529   3.352  0.0211 -0.3946  0.3316
 5458TIP3    H216328   6.233   1.659   3.416 -0.1169 -0.2996  0.0436
 5459TIP3   OH216329   4.244   7.342   1.929 -0.1041  0.0732  0.3165
 5459TIP3    H116330   4.173   7.277   1.925 -1.0674  1.0178  1.5524
 5459TIP3    H216331   4.215   7.404   1.996  1.9734  0.3996  0.9289
 5460TIP3   OH216332   3.585   7.301   4.989 -0.3767  0.8146  0.7406
 5460TIP3    H116333   3.631   7.339   4.914  1.7290 -0.3525  1.3992
 5460TIP3    H216334   3.615   7.351   5.064 -0.8636  0.5972  1.0819
 5461TIP3   OH216335   0.113   0.656   2.847 -0.0534 -0.2885  0.1785
 5461TIP3    H116336   0.176   0.615   2.906  0.0855 -0.5023 -0.1212
 5461TIP3    H216337   0.036   0.672   2.901 -0.2594 -1.3203  0.1869
 5462TIP3   OH216338   7.314   2.313   5.128  0.1262  0.0891  0.3667
 5462TIP3    H116339   7.401   2.321   5.089  0.5023 -0.4570  1.0647
 5462TIP3    H216340   7.258   2.284   5.057  0.5074  0.5275 -0.1091
 5463TIP3   OH216341   5.315   0.932   4.559  0.3404 -0.7570 -0.5467
 5463TIP3    H116342   5.368   0.982   4.497 -0.3324  1.1443  0.3826
 5463TIP3    H216343   5.352   0.953   4.645  0.5477 -2.4919 -0.1819
 5464TIP3   OH216344   5.941   0.105   1.435 -0.0696  0.2033 -0.1654
 5464TIP3    H116345   5.912   0.180   1.382 -0.8692 -1.1090 -1.6327
 5464TIP3    H216346   5.863   0.078   1.482  0.5270  1.0594  1.3401
 5465TIP3   OH216347   3.508   1.778   4.910 -0.3783 -0.1091 -0.1964
 5465TIP3    H116348   3.597   1.742   4.905  0.0673  0.7104  1.5508
 5465TIP3    H216349   3.521   1.870   4.935 -1.7803 -0.5050  2.1109
 5466TIP3   OH216350   7.618   2.878   4.554  0.0356 -0.0937  0.2665
 5466TIP3    H116351   7.639   2.957   4.602  2.2243 -0.0831 -0.6433
 5466TIP3    H216352   7.525   2.862   4.572  0.4688  0.6086  3.4165
 5467TIP3   OH216353   4.869   6.596   4.498 -0.2777 -0.2214  1.0592
 5467TIP3    H116354   4.931   6.663   4.525  0.3249 -1.3482  2.5157
 5467TIP3    H216355   4.838   6.557   4.579 -0.3649 -1.9419  0.2268
 5468TIP3   OH216356   7.332   0.961   2.271 -0.0021 -0.5639 -0.2178
 5468TIP3    H116357   7.320   1.041   2.323  0.5071 -0.5511 -0.1232
 5468TIP3    H216358   7.338   0.992   2.181 -0.7875 -0.5773 -0.2766
 5469TIP3   OH216359   1.392   4.711   0.247  0.2641  0.4102  0.2946
 5469TIP3    H116360   1.334   4.695   0.321  1.4297 -1.1647  0.9042
 5469TIP3    H216361   1.405   4.624   0.208  0.7547  1.0196 -0.9155
 5470TIP3   OH216362   7.260   0.438   3.592  0.5151 -0.3453  0.1779
 5470TIP3    H116363   7.190   0.380   3.621 -0.1577 -0.2609 -1.2623
 5470TIP3    H216364   7.340   0.398   3.628 -0.1626 -0.9716  1.0120
 5471TIP3   OH216365   1.233   2.030   2.879  0.4856 -0.0538 -0.0194
 5471TIP3    H116366   1.229   2.109   2.825  1.0196 -0.3280 -0.4727
 5471TIP3    H216367   1.151   2.030   2.929  0.4232  0.7068 -0.1257
 5472TIP3   OH216368   6.716   1.778   1.256  0.0556  0.3496 -0.0996
 5472TIP3    H116369   6.629   1.761   1.218 -0.4904 -0.6366  1.5466
 5472TIP3    H216370   6.738   1.697   1.302  2.2138  0.3214 -1.1599
 5473TIP3   OH216371   6.735   0.036   4.213  0.2793  0.4820 -0.5279
 5473TIP3    H116372   6.659   0.047   4.156 -0.4807 -1.1420  0.1440
 5473TIP3    H216373   6.790  -0.027   4.168  0.1339 -0.0824  0.0765
 5474TIP3   OH216374   0.661   2.231   2.025 -0.1323 -0.4905 -0.7543
 5474TIP3    H116375   0.724   2.272   1.966 -0.1382  0.5541 -0.0400
 5474TIP3    H216376   0.695   2.249   2.113 -2.3242  1.5986 -0.2900
 5475TIP3   OH216377   5.011   0.853   5.061  0.5670 -0.5241  0.1959
 5475TIP3    H116378   4.923   0.890   5.056  0.3808 -1.0016 -0.1659
 5475TIP3    H216379   5.030   0.826   4.971  1.0770 -0.4395  0.2767
 5476TIP3   OH216380   5.415   0.255   2.813 -0.1435  0.1548  0.7345
 5476TIP3    H116381   5.507   0.266   2.836 -0.5530  2.1516  1.5481
 5476TIP3    H216382   5.414   0.186   2.747  2.0394  0.8383 -0.0401
 5477TIP3   OH216383   3.954   7.297   5.567  0.1099  0.2396  0.3760
 5477TIP3    H116384   4.013   7.314   5.641  0.6752 -0.4291  0.0871
 5477TIP3    H216385   3.884   7.244   5.603 -0.5615  1.4118  0.8230
 5478TIP3   OH216386   6.029   1.989   5.327  0.2668  0.0747  0.7840
 5478TIP3    H116387   5.957   2.021   5.272  0.7231 -1.3386 -0.6667
 5478TIP3    H216388   6.103   2.046   5.304  0.1402  0.2492  0.8074
 5479TIP3   OH216389   6.702   1.361   2.652 -0.2359  0.0285  0.8673
 5479TIP3    H116390   6.753   1.424   2.600  0.4714 -0.8503  0.4798
 5479TIP3    H216391   6.736   1.370   2.741  1.2635 -1.2123  0.4402
 5480TIP3   OH216392   1.744   0.437   4.196 -0.1601  0.0882  0.3793
 5480TIP3    H116393   1.665   0.413   4.244 -0.8598  2.2192  0.3550
 5480TIP3    H216394   1.748   0.532   4.203 -0.6154  0.5775 -4.2924
 5481TIP3   OH216395   3.961   7.371   1.709 -0.0408 -0.7332  0.0554
 5481TIP3    H116396   4.044   7.411   1.687 -0.0081 -1.5052 -1.2577
 5481TIP3    H216397   3.952   7.385   1.803  1.6319 -0.7743  0.2342
 5482TIP3   OH216398   7.649   1.124   5.452  1.0489 -0.0103  1.3147
 5482TIP3    H116399   7.647   1.217   5.476  0.8503  0.4525 -0.4800
 5482TIP3    H216400   7.702   1.120   5.373 -0.8764 -1.1138  0.0385
 5483TIP3   OH216401   3.584   5.021   4.561 -0.1690  0.3638 -0.1511
 5483TIP3    H116402   3.546   5.103   4.593 -0.4554 -0.0308  0.5484
 5483TIP3    H216403   3.639   5.047   4.488 -1.9184  0.9390 -1.2937
 5484TIP3   OH216404   6.440   0.573   3.708  0.5643  0.2878  0.5080
 5484TIP3    H116405   6.427   0.539   3.619 -0.2260  1.4739  0.1553
 5484TIP3    H216406   6.533   0.594   3.712  0.6617 -0.0411  0.0488
 5485TIP3   OH216407   7.048   1.594   5.547  0.6437 -0.0860  0.3714
 5485TIP3    H116408   7.116   1.657   5.527  1.3202 -0.0849  2.5167
 5485TIP3    H216409   7.027   1.553   5.463  1.2748  1.8823 -0.7826
 5486TIP3   OH216410   6.407   2.840   5.128  0.2425  0.1191 -0.4268
 5486TIP3    H116411   6.437   2.916   5.178 -1.3891  1.2531 -1.1105
 5486TIP3    H216412   6.327   2.870   5.086  0.1229 -1.6868 -1.5217
 5487TIP3   OH216413   1.386   1.366   5.317  0.1751 -0.3655 -0.5630
 5487TIP3    H116414   1.415   1.275   5.322  0.9164 -0.2063 -1.8436
 5487TIP3    H216415   1.311   1.363   5.258 -1.5363 -0.5458  1.5540
 5488TIP3   OH216416   6.199   1.329   2.558 -0.1617  0.0364  0.8002
 5488TIP3    H116417   6.196   1.256   2.621 -0.4590 -0.0028  0.7384
 5488TIP3    H216418   6.278   1.377   2.582  1.8764 -2.1546 -1.1922
 5489TIP3   OH216419   6.804   3.075   5.426  0.6495  0.2030  0.1137
 5489TIP3    H116420   6.725   3.120   5.397  0.9720  0.6434 -0.0885
 5489TIP3    H216421   6.794   2.985   5.395 -0.4860 -0.1455  1.4269
 5490TIP3   OH216422   7.544   2.101   2.859 -0.1132 -0.4772 -0.0925
 5490TIP3    H116423   7.636   2.130   2.859  0.2075 -1.4838  0.3484
 5490TIP3    H216424   7.542   2.025   2.802 -0.4547 -1.1371  0.7929
 5491TIP3   OH216425   7.121   2.438   2.775  0.9254 -0.8756 -0.1976
 5491TIP3    H116426   7.074   2.502   2.829  0.4663 -2.0267  0.8069
 5491TIP3    H216427   7.202   2.421   2.824  1.6910 -0.0198 -1.1642
 5492TIP3   OH216428   6.759   1.753   2.429 -0.3241  0.5743  0.3086
 5492TIP3    H116429   6.826   1.819   2.442  1.2304 -0.4469 -2.0410
 5492TIP3    H216430   6.802   1.670   2.450 -1.1758  0.0042 -0.1150
 5493TIP3   OH216431   4.340   6.124   4.103  0.2186  0.1295 -0.0893
 5493TIP3    H116432   4.405   6.095   4.167  0.7433  2.2695  0.3983
 5493TIP3    H216433   4.256   6.118   4.150  0.2173 -1.3054 -0.2586
 5494TIP3   OH216434   7.852   1.700   3.792  0.3115 -0.2188  0.2807
 5494TIP3    H116435   7.814   1.782   3.759  2.1061  0.0063 -1.3240
 5494TIP3    H216436   7.881   1.654   3.714 -0.8555 -2.5247  1.1663
 5495TIP3   OH216437   4.186   1.183   5.697  0.0262 -0.0242 -0.4543
 5495TIP3    H116438   4.135   1.196   5.617  1.0444  0.1428 -1.0881
 5495TIP3    H216439   4.156   1.099   5.732  1.0316 -1.1250 -2.1456
 5496TIP3   OH216440   0.531   0.982   4.612 -0.2741  0.0245  0.1569
 5496TIP3    H116441   0.567   1.050   4.669  0.1945 -0.3617  0.3285
 5496TIP3    H216442   0.527   1.022   4.526 -2.7648  1.2617  0.7968
 5497TIP3   OH216443   5.955   7.168   2.353 -0.5056  0.0203  0.4023
 5497TIP3    H116444   6.007   7.171   2.273  1.1586 -1.1180  1.4005
 5497TIP3    H216445   5.996   7.100   2.405 -2.0749  0.1819  1.8856
 5498TIP3   OH216446   7.227   1.320   4.765  0.1376  0.0383 -0.1706
 5498TIP3    H116447   7.152   1.361   4.808 -0.0393  0.6383 -1.0348
 5498TIP3    H216448   7.303   1.368   4.798  0.0490  0.1447 -0.1204
 5499TIP3   OH216449   4.245   7.246   3.102 -0.5316  0.5428  0.1327
 5499TIP3    H116450   4.178   7.223   3.166 -0.2036  2.3076  1.1193
 5499TIP3    H216451   4.314   7.181   3.115 -0.9332  0.2540  0.8273
 5500TIP3   OH216452   0.768   2.058   5.167 -0.0754  0.3942 -0.1389
 5500TIP3    H116453   0.787   2.052   5.261 -1.0942 -0.9503 -0.0138
 5500TIP3    H216454   0.845   2.020   5.125  1.4589  3.1590  0.0360
 5501TIP3   OH216455   6.211   1.436   2.935 -0.3181 -0.7689 -0.7389
 5501TIP3    H116456   6.143   1.502   2.943  0.2688 -0.2157 -0.2819
 5501TIP3    H216457   6.244   1.445   2.846 -1.3821 -1.5703 -1.2189
 5502TIP3   OH216458   6.450   0.331   3.840  0.6225 -0.3390 -0.0590
 5502TIP3    H116459   6.371   0.285   3.815  0.4434 -0.2294  0.2897
 5502TIP3    H216460   6.438   0.420   3.806  0.3978 -0.2016  0.3723
 5503TIP3   OH216461   7.679   3.048   2.726 -0.3370  0.4877 -0.2782
 5503TIP3    H116462   7.597   3.097   2.728 -0.4317  0.3387 -0.5753
 5503TIP3    H216463   7.745   3.114   2.702 -0.3380  0.6452  0.1336
 5504TIP3   OH216464   5.309   3.373   2.791  0.2267 -0.3088 -0.6287
 5504TIP3    H116465   5.369   3.363   2.865  0.7165 -0.2292 -1.0231
 5504TIP3    H216466   5.364   3.367   2.713 -0.1300  0.7064 -0.9709
 5505TIP3   OH216467   0.702   7.024   0.219  0.2527 -0.1898  0.3228
 5505TIP3    H116468   0.704   6.951   0.158 -0.6777  0.7740 -0.8872
 5505TIP3    H216469   0.759   7.090   0.179 -0.3738  0.4560  0.4802
 5506TIP3   OH216470   6.355   3.152   4.609 -0.1421 -0.4965  0.0612
 5506TIP3    H116471   6.429   3.130   4.552  1.0597  1.3656  0.8818
 5506TIP3    H216472   6.286   3.182   4.549  0.4786 -0.2902 -0.5477
 5507TIP3   OH216473   7.213   1.632   1.882  0.2596 -0.4355  0.2261
 5507TIP3    H116474   7.183   1.643   1.791  3.4576  0.3960 -0.8104
 5507TIP3    H216475   7.239   1.720   1.909 -0.5490 -0.6994  1.9347
 5508TIP3   OH216476   0.403   4.018   5.498 -0.2845 -0.2439  0.6310
 5508TIP3    H116477   0.412   4.025   5.593  1.2638 -0.6510  0.5248
 5508TIP3    H216478   0.458   3.943   5.474 -2.8185 -1.8873 -0.2775
 5509TIP3   OH216479   7.099   0.512   3.898  0.2874 -0.2016  0.8695
 5509TIP3    H116480   7.029   0.533   3.836  0.0662 -1.7365  0.5789
 5509TIP3    H216481   7.053   0.494   3.980  0.4018 -0.4776  0.8722
 5510TIP3   OH216482   4.509   0.529   4.432  0.1198  0.0002 -0.0078
 5510TIP3    H116483   4.423   0.518   4.472 -1.4866 -1.7373 -3.6423
 5510TIP3    H216484   4.496   0.600   4.368  0.7684 -1.6328 -2.0101
 5511TIP3   OH216485   2.497   6.024   3.701  0.4556  0.0910 -0.1408
 5511TIP3    H116486   2.578   6.055   3.741  0.2287 -0.9131  1.1491
 5511TIP3    H216487   2.429   6.080   3.739  0.4574  0.4187 -0.6209
 5512TIP3   OH216488   1.131   0.476   3.397 -0.3116 -0.3168 -0.0742
 5512TIP3    H116489   1.134   0.565   3.431 -0.3948 -0.1333 -0.5444
 5512TIP3    H216490   1.223   0.448   3.394 -0.3598 -0.5740  0.9332
 5513TIP3   OH216491  -0.019   1.056   1.633 -0.3622 -0.3784 -0.0817
 5513TIP3    H116492   0.025   1.107   1.565 -2.4228  0.4469 -0.8306
 5513TIP3    H216493   0.017   0.968   1.623  1.1616  0.2698 -0.6142
 5514TIP3   OH216494   0.422   3.998   4.472  0.0165  0.3793  0.2226
 5514TIP3    H116495   0.417   3.940   4.548  1.3625  0.2098  0.1801
 5514TIP3    H216496   0.411   3.939   4.397 -1.8999  0.6195  0.2758
 5515TIP3   OH216497   4.822   2.277   5.409  0.2425  0.4277 -0.1159
 5515TIP3    H116498   4.874   2.222   5.350  1.7091  0.2590  1.3273
 5515TIP3    H216499   4.842   2.366   5.381 -1.0839  0.3011 -1.5608
 5516TIP3   OH216500   7.338   0.060   2.008  0.1056 -0.2256  0.1331
 5516TIP3    H116501   7.295   0.067   2.093  1.8273 -2.4046  1.2428
 5516TIP3    H216502   7.352  -0.034   1.996  5.9194  0.3553  0.5974
 5517TIP3   OH216503   2.433   6.097   4.908 -0.4759  0.5975 -0.0853
 5517TIP3    H116504   2.402   6.007   4.910 -0.8651  0.7299 -0.1463
 5517TIP3    H216505   2.429   6.126   4.999  0.4643  0.2780  0.0627
 5518TIP3   OH216506   0.977   1.746   2.622  0.1594 -0.0391 -0.1571
 5518TIP3    H116507   1.013   1.671   2.573  0.1717  1.0940 -1.9496
 5518TIP3    H216508   1.047   1.812   2.619 -0.5569  0.7226 -0.2242
 5519TIP3   OH216509   0.513   2.308   5.680 -0.6164 -0.4878  0.3459
 5519TIP3    H116510   0.582   2.243   5.670 -1.7834 -1.6774 -0.1049
 5519TIP3    H216511   0.486   2.301   5.772 -0.7707 -0.6722  0.2867
 5520TIP3   OH216512   5.969   1.885   5.578  0.2037 -0.3905  0.4546
 5520TIP3    H116513   5.879   1.855   5.574 -0.1605  0.6149  0.9059
 5520TIP3    H216514   5.984   1.928   5.494  0.3987 -0.9268  0.2134
 5521TIP3   OH216515   7.066   0.016   3.796  0.6782  0.0503  0.2101
 5521TIP3    H116516   6.998   0.076   3.827  1.5080  0.6237  0.9227
 5521TIP3    H216517   7.122   0.069   3.740  1.1135 -0.1812  0.4220
 5522TIP3   OH216518   7.450   1.454   4.078 -0.6416 -0.0583  0.0154
 5522TIP3    H116519   7.451   1.367   4.039 -0.3805 -0.6110  1.2326
 5522TIP3    H216520   7.359   1.482   4.074 -0.4511  0.3735 -2.0045
 5523TIP3   OH216521   7.087   2.098   1.760  0.2109  0.1777 -0.2671
 5523TIP3    H116522   7.030   2.131   1.690 -0.1597  0.3286  0.1019
 5523TIP3    H216523   7.175   2.121   1.731  0.0369  0.5179 -0.5376
 5524TIP3   OH216524   2.443   6.048   0.197  0.2739  0.4625  0.0811
 5524TIP3    H116525   2.417   5.956   0.185  0.9175  0.1490  1.0145
 5524TIP3    H216526   2.448   6.058   0.292  1.2443  1.1789 -0.0471
 5525TIP3   OH216527   7.370   3.108   4.087  0.3667  0.1476  0.3584
 5525TIP3    H116528   7.407   3.022   4.068  0.9488  0.6389 -0.7921
 5525TIP3    H216529   7.291   3.089   4.137 -0.0611 -1.1196 -0.7588
 5526TIP3   OH216530   5.742   7.117   5.673  0.6766 -0.0636  0.3081
 5526TIP3    H116531   5.751   7.022   5.666 -1.9864 -0.3219 -0.3007
 5526TIP3    H216532   5.677   7.130   5.742 -0.3359  1.2169 -0.8370
 5527TIP3   OH216533   6.902   0.555   3.713 -0.2603  0.6439  0.2169
 5527TIP3    H116534   6.900   0.577   3.620 -0.4754  1.2540  0.3657
 5527TIP3    H216535   6.845   0.620   3.755 -1.9376 -0.9880  0.4995
 5528TIP3   OH216536   7.794   0.984   3.469 -0.1114  0.2865 -0.2123
 5528TIP3    H116537   7.804   0.907   3.413  0.1518  0.9230 -1.0492
 5528TIP3    H216538   7.803   0.950   3.558  1.2317 -0.4582 -0.6208
 5529TIP3   OH216539   6.423   1.648   4.221  0.4471 -0.0103  0.6214
 5529TIP3    H116540   6.334   1.663   4.189  0.2554  0.0803  1.1992
 5529TIP3    H216541   6.461   1.735   4.231  1.3525 -0.1014 -1.7172
 5530TIP3   OH216542   0.305   6.137   1.465 -0.4691 -0.0319 -0.2661
 5530TIP3    H116543   0.258   6.084   1.400 -0.4268  1.2082 -1.3349
 5530TIP3    H216544   0.248   6.212   1.479  0.5618  0.8095 -0.5454
 5531TIP3   OH216545   7.373   2.330   2.920  0.1261  0.1898  0.1641
 5531TIP3    H116546   7.427   2.372   2.986 -0.4947 -0.4556  1.0850
 5531TIP3    H216547   7.417   2.247   2.902 -0.1416  0.0042  0.3601
 5532TIP3   OH216548   1.594   3.330   3.585 -0.5222  0.7757  0.0874
 5532TIP3    H116549   1.538   3.259   3.616 -2.2287  2.1666  0.2364
 5532TIP3    H216550   1.558   3.353   3.499  0.6556  0.7797 -0.4114
 5533TIP3   OH216551   2.029   2.710   4.234 -0.2805  0.4929  0.3784
 5533TIP3    H116552   2.016   2.799   4.203 -0.1603  0.1953 -0.5352
 5533TIP3    H216553   2.055   2.720   4.326  2.0823  1.5224 -0.3638
 5534TIP3   OH216554   6.478   1.676   3.803  0.1794  0.0548  0.0925
 5534TIP3    H116555   6.507   1.741   3.739 -0.5800  0.1915 -0.1234
 5534TIP3    H216556   6.390   1.704   3.828  0.1460 -0.4588  0.5786
 5535TIP3   OH216557   7.848   1.898   2.453  0.3685 -0.0171 -0.2363
 5535TIP3    H116558   7.887   1.810   2.447  3.2903  1.2897 -1.0605
 5535TIP3    H216559   7.895   1.941   2.524  0.0467  1.3942 -0.8575
 5536TIP3   OH216560   6.097   2.450   4.363 -0.7653  0.0752  0.2779
 5536TIP3    H116561   6.061   2.521   4.415 -0.3717  1.7322 -1.6312
 5536TIP3    H216562   6.034   2.437   4.292  0.8949  1.0130 -1.4185
 5537TIP3   OH216563   3.796   6.685   4.307 -0.1564  0.4198  0.1569
 5537TIP3    H116564   3.828   6.638   4.384  0.7489 -0.4274 -0.7235
 5537TIP3    H216565   3.830   6.773   4.317 -0.7010  0.5233  1.1244
 5538TIP3   OH216566   3.462   6.573   4.342  0.3324 -0.0158  0.1973
 5538TIP3    H116567   3.402   6.613   4.279 -0.2478 -0.8398  0.2341
 5538TIP3    H216568   3.546   6.571   4.296 -0.2533 -1.2862 -0.8231
 5539TIP3   OH216569   1.303   2.700   4.374 -0.0183  0.3089 -0.6287
 5539TIP3    H116570   1.209   2.684   4.377  0.0397 -0.1164 -1.0331
 5539TIP3    H216571   1.342   2.614   4.392  0.3049  0.0334 -2.5702
 5540TIP3   OH216572   5.857   2.883   4.268  0.2691  0.3315 -0.1849
 5540TIP3    H116573   5.776   2.928   4.246  0.6169  1.8145  1.4555
 5540TIP3    H216574   5.914   2.896   4.192 -1.8614 -2.8863 -2.4271
 5541TIP3   OH216575   2.200   6.353   3.893  1.0730 -0.4861  0.1798
 5541TIP3    H116576   2.281   6.303   3.905  0.8008 -1.3049 -1.2328
 5541TIP3    H216577   2.211   6.396   3.808  0.5666  0.4589  0.5819
 5542TIP3   OH216578   7.849   1.788   5.009  0.1104 -0.1098  0.3387
 5542TIP3    H116579   7.848   1.733   5.088 -0.0404  0.3865  0.6825
 5542TIP3    H216580   7.814   1.731   4.940 -1.2717 -0.0351  0.9628
 5543TIP3   OH216581   7.172   1.152   3.570  0.5442 -0.2218 -0.4458
 5543TIP3    H116582   7.266   1.148   3.587  0.4268  0.6766  0.4150
 5543TIP3    H216583   7.131   1.130   3.654 -0.0286 -2.0614 -1.1675
 5544TIP3   OH216584   4.170   2.665   4.542 -0.1500 -0.1003 -0.6642
 5544TIP3    H116585   4.147   2.721   4.617  1.7857 -1.1084  0.7424
 5544TIP3    H216586   4.223   2.721   4.485  1.2412 -0.2763  0.4238
 5545TIP3   OH216587   4.683   0.712   4.907  0.1836 -0.3514 -0.4367
 5545TIP3    H116588   4.609   0.757   4.949  0.6635 -0.7545  0.8499
 5545TIP3    H216589   4.712   0.774   4.840 -0.4603  0.4028 -0.0400
 5546TIP3   OH216590   6.187   1.146   4.399  0.2772 -0.0811  0.1969
 5546TIP3    H116591   6.173   1.069   4.454 -0.3456 -0.5248 -0.5625
 5546TIP3    H216592   6.248   1.117   4.331  0.1771  0.1334  0.0111
 5547TIP3   OH216593   7.531   1.515   4.434 -0.0433  0.2866 -0.2509
 5547TIP3    H116594   7.585   1.450   4.390  1.1639  2.5872 -2.2795
 5547TIP3    H216595   7.451   1.468   4.458  0.7358 -1.8812 -1.7930
 5548TIP3   OH216596   2.776   5.304   0.265 -0.1387  0.3770 -0.4457
 5548TIP3    H116597   2.722   5.225   0.269 -1.4736  1.3204  1.2399
 5548TIP3    H216598   2.816   5.302   0.178 -0.6565 -1.8110 -0.6618
 5549TIP3   OH216599   5.957   3.138   6.464  0.7979  0.1199  0.1573
 5549TIP3    H116600   6.024   3.099   6.409  0.8888  1.2264 -0.5340
 5549TIP3    H216601   5.878   3.088   6.444  1.1425 -0.3836  0.0509
 5550TIP3   OH216602   5.911   2.481   3.779 -0.6186  0.1943  0.5482
 5550TIP3    H116603   5.897   2.563   3.826  0.4216  1.4940 -1.3594
 5550TIP3    H216604   5.902   2.504   3.687  0.4457 -1.6841 -0.0505
 5551TIP3   OH216605   5.826   0.503   4.682 -0.1796 -0.0502  0.1702
 5551TIP3    H116606   5.831   0.448   4.603 -0.6824 -1.1916  0.9163
 5551TIP3    H216607   5.890   0.572   4.667  0.6444 -0.9830 -0.6898
 5552TIP3   OH216608   4.887   2.605   3.630  0.5488  0.1598  0.3527
 5552TIP3    H116609   4.893   2.517   3.594  0.2351 -1.6023  4.4741
 5552TIP3    H216610   4.977   2.638   3.630  0.9720 -1.0116  0.9295
 5553TIP3   OH216611   5.096   4.317   4.353 -0.4667 -0.3515  0.2205
 5553TIP3    H116612   5.045   4.301   4.273 -1.3586  1.0086  0.5071
 5553TIP3    H216613   5.145   4.397   4.335  1.7478 -1.7310 -0.1174
 5554TIP3   OH216614   6.967   1.811   1.725  0.1347 -0.0756 -0.3908
 5554TIP3    H116615   7.024   1.749   1.680  0.6082  1.0154 -1.3217
 5554TIP3    H216616   7.004   1.897   1.705 -1.2299  0.5899 -0.1610
 5555TIP3   OH216617   7.425   3.081   3.465  0.0952  0.3111 -0.5860
 5555TIP3    H116618   7.506   3.115   3.503 -0.9826 -0.1827  2.2786
 5555TIP3    H216619   7.424   2.988   3.489 -0.3343 -0.1818 -2.3992
 5556TIP3   OH216620   0.127   0.702   5.125  0.5569  0.6219  0.7325
 5556TIP3    H116621   0.064   0.685   5.195  1.0609  0.8548  1.2414
 5556TIP3    H216622   0.163   0.788   5.145  1.5134  0.2018  0.7978
 5557TIP3   OH216623   6.998   0.860   3.392 -0.1120  0.3026  0.1749
 5557TIP3    H116624   6.996   0.767   3.417 -2.0152 -0.1545 -1.5174
 5557TIP3    H216625   7.090   0.877   3.370  0.5744 -0.7040  2.2023
 5558TIP3   OH216626   7.167   1.053   3.927  0.8053 -0.5941 -0.1731
 5558TIP3    H116627   7.072   1.054   3.941  0.9527 -0.1945  0.8045
 5558TIP3    H216628   7.183   0.972   3.879 -0.3851  0.7274 -2.9134
 5559TIP3   OH216629   5.077   6.339   4.118  0.1130 -0.7080 -0.0357
 5559TIP3    H116630   5.004   6.392   4.151  0.7063  0.0758  0.0306
 5559TIP3    H216631   5.117   6.392   4.049 -0.0835 -1.6275 -0.8681
 5560TIP3   OH216632   2.909   6.427   0.666  0.1807  0.1100  0.3408
 5560TIP3    H116633   2.888   6.367   0.737 -2.5903 -1.2385 -1.5187
 5560TIP3    H216634   2.854   6.504   0.683  0.2329  0.1856  0.1702
 5561TIP3   OH216635   3.436   3.301   5.995 -0.1879  0.4036  0.5493
 5561TIP3    H116636   3.361   3.249   5.968  0.0893  1.1317 -1.7302
 5561TIP3    H216637   3.398   3.374   6.044 -0.6905 -0.9779  2.2989
 5562TIP3   OH216638   3.613   6.534   0.257 -0.4315 -0.4051 -0.9662
 5562TIP3    H116639   3.672   6.605   0.281  0.0235 -0.9542 -0.4685
 5562TIP3    H216640   3.526   6.567   0.278 -0.3019  0.3734 -1.6271
 5563TIP3   OH216641   0.126   1.205   4.273  0.5604  0.3898 -0.1222
 5563TIP3    H116642   0.215   1.208   4.238  0.2431 -0.4463 -1.0308
 5563TIP3    H216643   0.072   1.175   4.199 -0.2363 -0.6146  0.8403
 5564TIP3   OH216644   1.380   4.851   0.583 -0.2714  0.1604 -0.6447
 5564TIP3    H116645   1.329   4.903   0.521 -2.2450 -1.6718 -0.6407
 5564TIP3    H216646   1.316   4.826   0.650  1.5092  0.9262  1.3872
 5565TIP3   OH216647   1.838   0.019   6.316 -1.0291 -0.1921  0.1432
 5565TIP3    H116648   1.830   0.021   6.412 -0.9171  1.6799  0.1240
 5565TIP3    H216649   1.770   0.078   6.285 -1.0889 -0.8264 -0.9366
 5566TIP3   OH216650   0.525   1.557   6.257 -0.9071  0.2195 -0.0536
 5566TIP3    H116651   0.620   1.545   6.266 -0.3503  4.3815  1.1394
 5566TIP3    H216652   0.488   1.470   6.264  2.8208 -1.4445 -0.0539
 5567TIP3   OH216653   4.424   6.256   0.237  0.1474  0.1106 -0.0469
 5567TIP3    H116654   4.375   6.318   0.291  0.6512 -0.2545  0.8429
 5567TIP3    H216655   4.509   6.299   0.223  1.1660 -1.1317  2.0839
 5568TIP3   OH216656   5.114   3.282   4.812 -0.1044 -0.8088  0.3586
 5568TIP3    H116657   5.132   3.210   4.872 -1.0205 -0.6003  0.8923
 5568TIP3    H216658   5.145   3.360   4.857 -1.5822 -0.5479  0.9385
 5569TIP3   OH216659   1.419   1.307   5.917  0.1043 -0.6495  0.4288
 5569TIP3    H116660   1.409   1.355   5.836  0.3226  0.4640  1.0531
 5569TIP3    H216661   1.489   1.243   5.899  1.6429  1.0126  0.3713
 5570TIP3   OH216662   3.867   1.617   4.687  0.1675  0.4761 -0.0327
 5570TIP3    H116663   3.823   1.688   4.640  0.9222 -0.4121 -2.1439
 5570TIP3    H216664   3.952   1.609   4.644  0.2371 -1.4565  0.4141
 5571TIP3   OH216665   6.801   7.313   3.886 -0.2638  0.1006  0.0538
 5571TIP3    H116666   6.783   7.328   3.793 -0.5599 -0.4644  0.0169
 5571TIP3    H216667   6.889   7.348   3.899  1.1211 -2.6627 -1.1929
 5572TIP3   OH216668   5.569   7.414   4.912 -0.0460  0.2451  0.0553
 5572TIP3    H116669   5.563   7.447   4.822  0.3357  0.6736  0.1863
 5572TIP3    H216670   5.656   7.375   4.917 -1.2094 -2.6319 -0.7103
 5573TIP3   OH216671   1.893   0.941   4.771  0.4758  0.3968  0.2238
 5573TIP3    H116672   1.871   0.906   4.685 -0.4127 -1.2262  1.0880
 5573TIP3    H216673   1.849   0.883   4.833 -1.0654  3.0459  1.7316
 5574TIP3   OH216674   2.780   1.199   6.073  0.2896  0.2669  0.2318
 5574TIP3    H116675   2.728   1.129   6.033 -0.5119  1.1538 -0.2769
 5574TIP3    H216676   2.807   1.163   6.158 -0.7939 -0.3649  0.3202
 5575TIP3   OH216677   2.810   3.538   1.952 -0.1872 -0.0570 -0.2102
 5575TIP3    H116678   2.731   3.591   1.963  0.1059  0.3382  0.0348
 5575TIP3    H216679   2.778   3.449   1.939 -0.6535 -0.0229  0.6687
 5576TIP3   OH216680   7.122   3.041   5.804  0.7673  0.1297 -0.6643
 5576TIP3    H116681   7.125   3.033   5.709  0.2456  0.6026 -0.7252
 5576TIP3    H216682   7.179   2.971   5.836  0.9300 -0.0425 -1.3216
 5577TIP3   OH216683   4.879   5.314   2.823 -0.1993 -0.0674 -0.0700
 5577TIP3    H116684   4.887   5.238   2.764  0.7807  0.4224 -0.5896
 5577TIP3    H216685   4.961   5.362   2.810 -0.1503  0.2615  1.4116
 5578TIP3   OH216686   3.012   4.582   0.520 -0.1879 -0.3742 -0.0637
 5578TIP3    H116687   3.085   4.572   0.581 -0.8498 -0.5046  0.7323
 5578TIP3    H216688   2.974   4.494   0.514  2.6166 -1.4074 -4.2487
 5579TIP3   OH216689   7.807   2.169   6.263 -0.0849 -0.0641  0.6500
 5579TIP3    H116690   7.797   2.106   6.192 -0.0170 -0.5515  1.0703
 5579TIP3    H216691   7.865   2.126   6.326 -1.2187 -0.1859  1.6337
 5580TIP3   OH216692   0.826   1.799   3.242 -0.1755 -0.2866 -0.5328
 5580TIP3    H116693   0.808   1.880   3.291 -0.7531 -0.1971 -0.8822
 5580TIP3    H216694   0.864   1.740   3.306  0.1349  0.2247 -0.2444
 5581TIP3   OH216695   4.963   6.745   1.410 -0.5323  0.2212  0.0838
 5581TIP3    H116696   4.885   6.737   1.464 -0.6823 -2.2397 -0.4319
 5581TIP3    H216697   5.035   6.759   1.472 -1.0881  0.3760  0.6934
 5582TIP3   OH216698   2.995   1.234   5.489  0.5065 -0.3299 -0.1472
 5582TIP3    H116699   2.998   1.266   5.579  1.2774 -0.1907 -0.2128
 5582TIP3    H216700   2.912   1.188   5.482  0.5466 -0.5425  0.7071
 5583TIP3   OH216701   0.283   3.033   6.207  0.1735 -0.0563  0.2869
 5583TIP3    H116702   0.251   3.122   6.224  0.7724  0.4156 -0.9914
 5583TIP3    H216703   0.205   2.978   6.212 -0.5601  0.8388 -1.0944
 5584TIP3   OH216704   6.354   6.371   0.224 -0.5977  0.2353  0.1367
 5584TIP3    H116705   6.294   6.328   0.163  0.3021  0.6466 -1.0644
 5584TIP3    H216706   6.307   6.448   0.255 -1.9269 -1.1714  1.7163
 5585TIP3   OH216707   4.003   6.820   0.128 -0.1851 -0.3560 -0.1801
 5585TIP3    H116708   4.080   6.765   0.141  0.1834  1.0427  4.4259
 5585TIP3    H216709   4.037   6.909   0.131 -1.3342  0.2410 -3.4515
 5586TIP3   OH216710   7.563   1.469   5.715  0.0068  0.3843  0.5276
 5586TIP3    H116711   7.599   1.430   5.635 -0.6662 -0.5878  0.6848
 5586TIP3    H216712   7.565   1.563   5.698  0.7036  0.2393 -0.2778
 5587TIP3   OH216713   3.902   2.373   3.128  0.6709 -0.1066 -0.0069
 5587TIP3    H116714   3.927   2.462   3.156 -0.2055  1.0294 -2.6514
 5587TIP3    H216715   3.969   2.317   3.167  1.9036  1.8475  0.8157
 5588TIP3   OH216716   0.103   2.251   6.441  0.2493  0.1260  0.0353
 5588TIP3    H116717   0.121   2.303   6.363  0.8528  0.6916  0.5425
 5588TIP3    H216718   0.085   2.316   6.509  0.4534 -0.3415  0.5395
 5589TIP3   OH216719   3.132   5.948   1.510 -0.0532 -0.6033  0.0427
 5589TIP3    H116720   3.132   5.858   1.478  1.1520 -0.8711  0.7557
 5589TIP3    H216721   3.041   5.976   1.504 -0.5207 -2.0379  0.3179
 5590TIP3   OH216722   4.585   5.180   0.154  0.3110  0.1786  0.1259
 5590TIP3    H116723   4.514   5.135   0.108 -0.6269  0.2175  1.5103
 5590TIP3    H216724   4.663   5.127   0.136 -1.0005 -2.8040  2.8288
 5591TIP3   OH216725   6.650   4.303   0.499  0.2461  0.2224  0.4624
 5591TIP3    H116726   6.674   4.220   0.540 -0.2198  0.0490  0.3899
 5591TIP3    H216727   6.703   4.307   0.419 -2.1687 -1.6222 -1.3162
 5592TIP3   OH216728   3.402   5.956   0.569 -0.1630  0.4308 -0.0130
 5592TIP3    H116729   3.429   6.047   0.577 -0.1195  0.3978  0.2039
 5592TIP3    H216730   3.311   5.960   0.542 -0.8895  0.5324  2.3914
 5593TIP3   OH216731   0.776   2.707   5.790  0.0836 -0.3600  0.6278
 5593TIP3    H116732   0.816   2.742   5.870  0.7515 -1.0832  0.6108
 5593TIP3    H216733   0.690   2.676   5.819  0.9899 -2.1941  1.4383
 5594TIP3   OH216734   2.227   6.568   0.091  0.3083 -0.1885  0.3315
 5594TIP3    H116735   2.313   6.589   0.126 -0.5024  0.9764  1.6800
 5594TIP3    H216736   2.166   6.600   0.157 -1.1957 -0.0132 -1.1070
 5595TIP3   OH216737   4.077   3.749   0.460  0.0704 -0.8414 -0.1437
 5595TIP3    H116738   4.097   3.834   0.419 -0.5651  0.1034  1.4514
 5595TIP3    H216739   4.038   3.697   0.390 -1.8154  1.0440 -0.5364
 5596TIP3   OH216740   3.945   5.770   0.141 -0.3090  0.2210 -0.0866
 5596TIP3    H116741   3.943   5.844   0.080 -0.3282  1.3359  1.2466
 5596TIP3    H216742   3.857   5.767   0.178 -0.3011 -0.4696 -0.1107
 5597TIP3   OH216743   3.459   4.277   1.010  0.0245 -0.3915  0.1921
 5597TIP3    H116744   3.407   4.276   0.929 -0.1607 -0.6233  0.3131
 5597TIP3    H216745   3.539   4.228   0.988 -0.3187 -1.0265  0.3409
 5598TIP3   OH216746   1.383   3.518   6.356 -0.3845  0.0631  0.3082
 5598TIP3    H116747   1.363   3.553   6.442 -0.7587 -0.6812  0.5306
 5598TIP3    H216748   1.297   3.498   6.317 -0.2692  1.4032 -0.6630
 5599TIP3   OH216749   1.651   6.010   0.422 -0.2069 -0.2854  0.0609
 5599TIP3    H116750   1.721   5.969   0.472  0.9932  0.5854 -0.8706
 5599TIP3    H216751   1.696   6.074   0.366 -1.5943 -0.6929 -1.5507
 5600TIP3   OH216752   1.840   0.185   4.082 -0.0975  1.0108  0.0845
 5600TIP3    H116753   1.843   0.274   4.116  1.4416  0.8928  0.2872
 5600TIP3    H216754   1.756   0.150   4.114  0.4047  1.5628  2.1102
 5601TIP3   OH216755   7.850   2.507   4.877 -0.3052  0.6922  0.5473
 5601TIP3    H116756   7.793   2.506   4.801  0.7175  2.4070 -0.2888
 5601TIP3    H216757   7.909   2.433   4.865 -1.3350 -0.1502  0.6317
 5602TIP3   OH216758   0.224   2.388   5.938  0.3266  0.5275 -0.3122
 5602TIP3    H116759   0.312   2.351   5.942 -0.0193 -0.1206  2.0113
 5602TIP3    H216760   0.169   2.316   5.906  0.2686  0.2038  0.5088
 5603TIP3   OH216761   4.029   1.019   1.952 -0.2501  0.2470 -0.0446
 5603TIP3    H116762   4.070   1.021   1.866  0.9826  0.4845  0.5355
 5603TIP3    H216763   3.975   1.098   1.954  0.1581  0.5413 -0.3971
 5604TIP3   OH216764   4.360   3.468   0.220 -0.1874  0.4090  0.3229
 5604TIP3    H116765   4.333   3.384   0.256 -0.8140  0.3790 -0.2141
 5604TIP3    H216766   4.306   3.480   0.142  0.3008  1.0413  0.0727
 5605TIP3   OH216767   2.134   6.367   5.166 -0.3940  0.0696  0.2728
 5605TIP3    H116768   2.181   6.286   5.145 -1.8616 -1.4427  2.5562
 5605TIP3    H216769   2.071   6.377   5.096  0.0723 -0.5441 -0.2462
 5606TIP3   OH216770   5.882   6.562   1.109  0.5582  0.3015 -0.5085
 5606TIP3    H116771   5.889   6.502   1.184  1.5677  0.6193 -0.3383
 5606TIP3    H216772   5.795   6.545   1.072 -0.6233  1.3133  1.7278
 5607TIP3   OH216773   3.775   7.006   0.304  0.1773 -0.3511  0.2326
 5607TIP3    H116774   3.809   6.919   0.329 -0.2915 -0.6876 -0.2998
 5607TIP3    H216775   3.799   7.015   0.212  0.9871  0.4580  0.5118
 5608TIP3   OH216776   0.929   1.991   4.313 -0.3286  0.9234  0.1029
 5608TIP3    H116777   0.901   2.039   4.392 -1.3350  0.2346  0.1713
 5608TIP3    H216778   0.960   1.907   4.346  1.2564  1.4447 -0.0405
 5609TIP3   OH216779   3.444   4.532   0.275  0.6812 -0.1819  0.3977
 5609TIP3    H116780   3.510   4.489   0.329 -0.0935 -1.1298  0.6012
 5609TIP3    H216781   3.420   4.466   0.210  0.0632  0.2272  0.2044
 5610TIP3   OH216782   3.077   1.571   4.162 -0.2815 -0.3968  0.3633
 5610TIP3    H116783   3.169   1.548   4.150 -0.1384 -0.1278  0.9579
 5610TIP3    H216784   3.031   1.519   4.097  0.5519  1.3928 -1.7491
 5611TIP3   OH216785   3.447   4.715   6.341 -0.0947 -0.4920 -0.6885
 5611TIP3    H116786   3.508   4.758   6.400  0.5115 -0.5230 -1.2890
 5611TIP3    H216787   3.361   4.729   6.381  0.3787 -1.1636  0.5870
 5612TIP3   OH216788   2.776   4.365   0.691 -0.1746 -0.4169  0.0951
 5612TIP3    H116789   2.781   4.272   0.669  1.3059 -0.5247  0.8346
 5612TIP3    H216790   2.867   4.393   0.700 -0.6119  1.0538  0.0961
 5613TIP3   OH216791   5.580   6.558   5.899 -0.1290 -0.0491  0.3563
 5613TIP3    H116792   5.642   6.551   5.971  1.5425  0.8117 -0.9716
 5613TIP3    H216793   5.629   6.602   5.829 -1.9397 -0.2084 -1.0455
 5614TIP3   OH216794   1.161   1.277   4.190  0.2448 -0.4658 -0.3289
 5614TIP3    H116795   1.083   1.272   4.136  0.2846  1.3946 -0.5914
 5614TIP3    H216796   1.222   1.214   4.151 -0.0452  0.2243 -1.9325
 5615TIP3   OH216797   1.488   1.864   6.055 -0.0243  0.2538 -0.0250
 5615TIP3    H116798   1.422   1.860   5.986 -1.6124 -0.5727  1.4935
 5615TIP3    H216799   1.516   1.773   6.066 -1.1691  0.0875  1.6988
 5616TIP3   OH216800   3.582   4.172   6.164  0.0795  0.0376  0.5140
 5616TIP3    H116801   3.539   4.243   6.117  0.3885 -0.3127 -0.3063
 5616TIP3    H216802   3.665   4.158   6.117 -1.2262 -2.7655 -1.1097
 5617TIP3   OH216803   7.698   1.396   4.189  0.0584  0.6157 -0.1105
 5617TIP3    H116804   7.750   1.417   4.112 -0.2236  0.7582 -0.2623
 5617TIP3    H216805   7.607   1.414   4.163 -0.5797 -3.8462 -1.3207
 5618TIP3   OH216806   0.577   1.465   3.568 -0.0384  0.0286  0.2935
 5618TIP3    H116807   0.656   1.411   3.571  0.3615  0.4917 -1.7274
 5618TIP3    H216808   0.610   1.555   3.569 -0.5408  0.2192 -0.7531
 5619TIP3   OH216809   6.760   6.732   3.897  0.4992 -0.5081 -0.5945
 5619TIP3    H116810   6.850   6.764   3.896 -0.1999  1.5620  0.5793
 5619TIP3    H216811   6.725   6.755   3.811  0.6233  0.0661 -0.4916
 5620TIP3   OH216812   2.676   2.040   5.221  0.1512 -0.0514 -0.0230
 5620TIP3    H116813   2.749   1.979   5.227  0.1503 -0.1261 -0.6703
 5620TIP3    H216814   2.627   2.027   5.302 -0.9584 -2.3727 -1.0125
 5621TIP3   OH216815   4.580   5.086   1.651  0.2639  0.2764  0.0655
 5621TIP3    H116816   4.651   5.070   1.589 -0.5034  2.0025 -1.3183
 5621TIP3    H216817   4.581   5.180   1.664 -1.2596  0.2195  0.6480
 5622TIP3   OH216818   1.189   1.830   3.894 -0.3263 -0.1887 -0.0501
 5622TIP3    H116819   1.163   1.760   3.835 -2.2016  0.3820  0.0767
 5622TIP3    H216820   1.161   1.800   3.981 -0.2812  0.2988  0.1341
 5623TIP3   OH216821   6.196   3.063   6.312  0.0893 -0.0696 -0.6411
 5623TIP3    H116822   6.274   3.075   6.366 -0.1838 -0.5530 -0.1228
 5623TIP3    H216823   6.180   3.148   6.273  0.3791  0.2536 -0.0671
 5624TIP3   OH216824   0.844   2.552   4.633  0.1240 -0.4606 -0.0946
 5624TIP3    H116825   0.837   2.520   4.723  0.6636  1.2559  0.5805
 5624TIP3    H216826   0.905   2.492   4.590  0.9409 -0.4833  1.0736
 5625TIP3   OH216827   1.463   3.348   4.076  0.1290  0.2424 -0.0881
 5625TIP3    H116828   1.531   3.375   4.015 -0.5079 -0.2625 -1.0446
 5625TIP3    H216829   1.383   3.344   4.022 -0.4357 -0.2085  0.7757
 5626TIP3   OH216830   7.527   1.831   6.456 -0.2684 -0.7650 -0.2075
 5626TIP3    H116831   7.459   1.862   6.396 -0.5420 -0.8075  0.0852
 5626TIP3    H216832   7.489   1.753   6.497  0.1901 -1.1533 -0.5015
 5627TIP3   OH216833   1.703   2.548   4.691 -0.4795  0.0964  0.7162
 5627TIP3    H116834   1.700   2.455   4.667 -0.4165  0.9215 -2.7892
 5627TIP3    H216835   1.612   2.576   4.689 -0.4094  0.3298  0.7498
 5628TIP3   OH216836   7.409   1.711   6.066  0.1314  0.4385  0.3789
 5628TIP3    H116837   7.348   1.784   6.077  0.1320  0.8560 -2.1296
 5628TIP3    H216838   7.352   1.634   6.058  0.0799  0.3382  1.6494
 5629TIP3   OH216839   1.660   0.918   3.454 -0.1209 -0.1269 -0.3422
 5629TIP3    H116840   1.582   0.951   3.409 -0.5702  1.4662  1.5449
 5629TIP3    H216841   1.729   0.981   3.432 -0.1077  0.1271  0.4056
 5630TIP3   OH216842   0.837   1.552   3.373  0.4449 -0.1209 -0.6271
 5630TIP3    H116843   0.856   1.526   3.463 -1.7569  0.0131 -0.0836
 5630TIP3    H216844   0.913   1.524   3.323  1.8402  0.0988  1.3326
 5631TIP3   OH216845   2.429   4.783   5.543  0.2104 -0.0072  0.1245
 5631TIP3    H116846   2.360   4.766   5.607 -0.8826 -0.9164 -1.2516
 5631TIP3    H216847   2.393   4.851   5.486  1.2688  0.9657  0.6006
 5632TIP3   OH216848   3.589   5.816   0.729 -0.1794 -0.2894  0.0600
 5632TIP3    H116849   3.625   5.742   0.682 -2.5150 -0.3881 -1.6907
 5632TIP3    H216850   3.524   5.854   0.668 -1.8867  0.7477  2.4345
 5633TIP3   OH216851   1.436   0.963   5.721  0.0024 -0.6609 -0.3966
 5633TIP3    H116852   1.436   0.916   5.804 -0.8135  0.7290  0.3972
 5633TIP3    H216853   1.527   0.990   5.708  0.2257 -1.3129 -0.2271
 5634TIP3   OH216854   2.016   0.911   5.071  0.2860 -0.5459 -0.0598
 5634TIP3    H116855   2.104   0.905   5.108 -0.1185 -0.5819  0.9064
 5634TIP3    H216856   2.025   0.880   4.981  1.4295  0.2781 -0.2313
 5635TIP3   OH216857   0.257   0.859   4.001 -0.2358 -0.4089  0.1175
 5635TIP3    H116858   0.274   0.776   3.956 -0.4749  0.1843 -1.0940
 5635TIP3    H216859   0.247   0.923   3.930 -2.3792  0.2157  0.9303
 5636TIP3   OH216860   2.920   5.350   1.093  0.5701 -0.5176 -0.9331
 5636TIP3    H116861   2.850   5.286   1.097 -1.1748  1.4407  1.5425
 5636TIP3    H216862   2.883   5.424   1.044  0.0591  1.4159  2.2361
 5637TIP3   OH216863   3.718   3.829   6.445  0.0146 -0.3058 -1.0732
 5637TIP3    H116864   3.768   3.823   6.364  2.0834  0.6790  0.0869
 5637TIP3    H216865   3.668   3.910   6.437  0.9125  0.2601 -0.9989
 5638TIP3   OH216866   1.132   1.975   5.648 -0.1797  0.4864  0.5245
 5638TIP3    H116867   1.050   2.020   5.631 -0.5994 -0.2168  0.6628
 5638TIP3    H216868   1.199   2.031   5.608 -0.9123  0.0663 -1.3591
 5639TIP3   OH216869   2.688   4.635   0.207  0.1972  0.1526  0.5006
 5639TIP3    H116870   2.672   4.619   0.299  1.9310 -0.7015  0.6845
 5639TIP3    H216871   2.761   4.577   0.185  0.1982  0.7782 -1.2538
 5640TIP3   OH216872   1.811   2.012   5.749  0.2573  0.2429 -0.0726
 5640TIP3    H116873   1.749   1.941   5.731 -1.3779  1.5088  0.5206
 5640TIP3    H216874   1.799   2.073   5.676  0.7009  0.5696  0.1271
 5641TIP3   OH216875   3.328   6.962   0.191 -0.5318 -0.4294 -0.2819
 5641TIP3    H116876   3.260   6.996   0.133 -0.6619 -0.5560 -0.2042
 5641TIP3    H216877   3.357   6.881   0.149  0.0346 -0.0361 -0.6568
 5642TIP3   OH216878   0.775   1.610   4.284  0.0724  0.4301  0.2990
 5642TIP3    H116879   0.799   1.526   4.325  0.7594  0.3517 -0.2408
 5642TIP3    H216880   0.729   1.658   4.352 -0.7630 -0.5810  0.4715
 5643TIP3   OH216881   0.615   2.857   6.375 -0.1521 -0.1729 -0.1589
 5643TIP3    H116882   0.644   2.766   6.374 -1.0205 -0.4583 -0.3575
 5643TIP3    H216883   0.529   2.854   6.418 -0.9570  0.2970 -1.7013
 5644TIP3   OH216884   7.735   7.397   6.256  0.6941 -0.2788  0.0197
 5644TIP3    H116885   7.644   7.379   6.281  0.6145  0.4743  0.2898
 5644TIP3    H216886   7.748   7.349   6.175 -0.4861  0.9738 -0.9304
 5645TIP3   OH216887   6.819   6.179   0.276  0.1158 -0.4769 -0.2838
 5645TIP3    H116888   6.828   6.175   0.371  0.0251 -0.1217 -0.2598
 5645TIP3    H216889   6.776   6.263   0.259 -0.7838 -0.9843 -0.5688
 5646TIP3   OH216890   6.010   7.233   3.838  0.7828  0.0604 -0.0777
 5646TIP3    H116891   5.960   7.258   3.760  0.6652  0.7758  0.2238
 5646TIP3    H216892   5.976   7.289   3.907  0.2218 -1.2375  0.7095
 5647TIP3   OH216893   2.172   3.597   5.618  0.2217 -0.3020  0.6100
 5647TIP3    H116894   2.196   3.620   5.528  1.9911  0.5983  1.2790
 5647TIP3    H216895   2.078   3.579   5.615  0.3653 -0.7536 -1.5050
 5648TIP3   OH216896   1.023   3.743   4.207 -0.8953  0.4248 -0.0036
 5648TIP3    H116897   0.984   3.784   4.284 -2.2656  1.7265 -1.3512
 5648TIP3    H216898   1.117   3.751   4.220 -1.0709 -0.7361  2.2412
 5649TIP3   OH216899   1.814   1.435   3.644 -0.7486  0.0262  0.1258
 5649TIP3    H116900   1.739   1.468   3.595 -1.2719  1.4190  1.8004
 5649TIP3    H216901   1.887   1.440   3.582 -1.7663 -0.0367 -1.0883
 5650TIP3   OH216902   4.141   6.748   1.131  0.1287 -0.5228 -0.3385
 5650TIP3    H116903   4.226   6.709   1.113 -0.4475 -1.3469 -1.3229
 5650TIP3    H216904   4.119   6.795   1.051  0.2330  0.7821  0.3742
 5651TIP3   OH216905   6.456   3.008   5.769  0.4162 -0.5244  0.0502
 5651TIP3    H116906   6.476   3.071   5.699 -0.4857 -1.1553 -0.7878
 5651TIP3    H216907   6.508   3.038   5.844  1.2629  0.2565 -0.8385
 5652TIP3   OH216908   7.749   0.119   4.892  0.1242  0.2211 -0.1277
 5652TIP3    H116909   7.717   0.139   4.804 -0.4551 -0.2706 -0.0283
 5652TIP3    H216910   7.670   0.111   4.945  0.5003  1.2133  0.5919
 5653TIP3   OH216911   2.390   2.247   5.937 -0.4281 -0.3644  0.2223
 5653TIP3    H116912   2.432   2.334   5.937  0.7376 -0.9186 -0.4797
 5653TIP3    H216913   2.446   2.194   5.995 -0.5608 -0.9174 -0.1563
 5654TIP3   OH216914   6.846   2.156   6.449  0.0821  0.2309  0.4910
 5654TIP3    H116915   6.865   2.193   6.363 -0.1902 -1.8161 -0.4866
 5654TIP3    H216916   6.931   2.129   6.483 -0.0313 -0.8178 -0.0348
 5655TIP3   OH216917   5.658   7.291   0.204  0.9704 -0.0534  0.6570
 5655TIP3    H116918   5.698   7.233   0.139 -0.2772  0.2638 -0.4335
 5655TIP3    H216919   5.676   7.250   0.288  0.9956 -1.4738 -0.0291
 5656TIP3   OH216920   3.393   1.394   5.316  0.1674 -0.7561  0.4670
 5656TIP3    H116921   3.488   1.401   5.316  0.0302  1.4333 -0.2435
 5656TIP3    H216922   3.368   1.398   5.223 -0.6696 -0.3400  0.7002
 5657TIP3   OH216923   3.673   5.809   0.228 -0.3778 -0.1551 -0.7313
 5657TIP3    H116924   3.582   5.786   0.213 -0.9161  1.2009  0.3304
 5657TIP3    H216925   3.671   5.901   0.255  1.3823  0.1378 -1.4913
 5658TIP3   OH216926   4.651   4.269   6.264  0.0423 -0.0553  0.4941
 5658TIP3    H116927   4.565   4.231   6.281  0.4970 -1.0476  0.5726
 5658TIP3    H216928   4.688   4.285   6.351  0.6173 -1.1742  0.4615
 5659TIP3   OH216929   0.842   0.736   6.170 -0.0704 -0.2854  0.5042
 5659TIP3    H116930   0.831   0.680   6.094  1.7026 -0.8179  0.6275
 5659TIP3    H216931   0.818   0.680   6.244 -0.2229 -0.2620  0.4730
 5660TIP3   OH216932   3.186   4.251   1.610 -0.2898  0.3473  0.2814
 5660TIP3    H116933   3.125   4.266   1.538  0.5536 -0.3334 -0.5735
 5660TIP3    H216934   3.140   4.189   1.667 -1.3065  1.5435  0.7775
 5661TIP3   OH216935   0.660   0.920   4.256  0.2436  0.4580 -0.2940
 5661TIP3    H116936   0.580   0.951   4.300 -0.9622 -0.2685 -1.9400
 5661TIP3    H216937   0.696   0.854   4.316 -0.4873  0.6512  0.3696
 5662TIP3   OH216938   0.358   4.229   5.019 -0.1548  0.4017  0.6391
 5662TIP3    H116939   0.344   4.306   5.074 -1.3193  1.8747 -1.6873
 5662TIP3    H216940   0.410   4.261   4.945  0.7170 -1.4035  0.4329
 5663TIP3   OH216941   0.167   2.030   3.665 -0.1132  0.2546 -0.7757
 5663TIP3    H116942   0.177   2.090   3.592  0.5171 -0.4207 -1.2446
 5663TIP3    H216943   0.190   1.944   3.630 -2.2722 -0.4833 -0.4567
 5664TIP3   OH216944   2.528   1.922   6.369  0.0329  0.1100 -0.6425
 5664TIP3    H116945   2.574   1.856   6.318  1.8207  1.4615 -0.7950
 5664TIP3    H216946   2.596   1.981   6.401 -1.2866  0.5959  1.4167
 5665TIP3   OH216947   1.256   0.872   4.257  0.0300 -1.0145  0.6487
 5665TIP3    H116948   1.193   0.925   4.208  0.5257 -2.1635 -1.2808
 5665TIP3    H216949   1.203   0.806   4.302 -0.6399  1.2641  3.3994
 5666TIP3   OH216950   1.469   1.201   5.078 -0.0073  1.0235  0.0001
 5666TIP3    H116951   1.484   1.134   5.012 -2.0002  1.1115 -0.5947
 5666TIP3    H216952   1.490   1.158   5.161 -0.4646 -0.0895 -0.4438
 5667TIP3   OH216953   4.053   4.142   5.636 -0.3802  0.2164  0.0565
 5667TIP3    H116954   4.145   4.116   5.630  0.0845  1.9045 -0.6345
 5667TIP3    H216955   4.020   4.136   5.546 -0.5950  0.7849  0.0918
 5668TIP3   OH216956   0.616   0.638   5.432 -0.7096 -0.2705 -0.3013
 5668TIP3    H116957   0.677   0.573   5.398 -0.9419 -0.1125 -1.0275
 5668TIP3    H216958   0.540   0.632   5.374 -1.4635 -0.5895  0.6986
 5669TIP3   OH216959   2.855   5.842   1.185 -0.3058  0.6182 -0.2075
 5669TIP3    H116960   2.860   5.896   1.106 -1.9917 -2.4939 -2.5439
 5669TIP3    H216961   2.821   5.901   1.252 -1.2281  2.6787 -2.4135
 5670TIP3   OH216962   0.415   2.257   6.384  0.0467  0.3859  0.6137
 5670TIP3    H116963   0.331   2.253   6.429  0.5926  0.4951  1.6645
 5670TIP3    H216964   0.447   2.346   6.401 -0.2066  0.7622 -0.8492
 5671TIP3   OH216965   7.846   0.891   4.927 -0.2315  0.5927  0.1775
 5671TIP3    H116966   7.783   0.844   4.980  0.5878 -1.4626 -0.6376
 5671TIP3    H216967   7.869   0.831   4.856  0.7802  2.2291 -0.9484
 5672TIP3   OH216968   0.750   4.606   5.095 -0.2731 -0.2086  0.1841
 5672TIP3    H116969   0.683   4.630   5.031 -0.9060  0.0314  0.9188
 5672TIP3    H216970   0.773   4.689   5.137  0.7629 -0.2370 -0.3261
 5673TIP3   OH216971   1.037   1.770   5.987  0.2621  0.6322 -0.9597
 5673TIP3    H116972   1.029   1.787   6.081  0.1033  1.8545 -1.1831
 5673TIP3    H216973   1.098   1.697   5.981 -2.7286 -2.1124  0.2948
 5674TIP3   OH216974   0.248   2.587   6.452 -0.0926  0.1718  0.6302
 5674TIP3    H116975   0.173   2.581   6.511 -0.1880 -1.1441  0.4091
 5674TIP3    H216976   0.218   2.544   6.372  0.9247 -0.4507  0.5749
 5675TIP3   OH216977   0.193   0.480   6.432 -0.3896  0.6282  0.0048
 5675TIP3    H116978   0.187   0.400   6.380 -0.4461  0.6683 -0.0515
 5675TIP3    H216979   0.268   0.466   6.489  1.5717  1.7942 -2.1902
 5676TIP3   OH216980   0.828   1.871   5.841 -0.0730  0.2094  0.2921
 5676TIP3    H116981   0.888   1.852   5.914 -1.0427 -1.7763  0.6319
 5676TIP3    H216982   0.840   1.964   5.824  3.7930 -0.2772 -0.2824
 5677TIP3   OH216983   7.082   7.382   3.894  0.1510 -0.0066 -0.5076
 5677TIP3    H116984   7.105   7.322   3.965 -0.5154 -0.0019 -0.2892
 5677TIP3    H216985   7.109   7.468   3.927  0.0458 -0.0320 -0.3528
 5678TIP3   OH216986   3.658   4.301   0.563 -0.2277  0.4363 -0.7960
 5678TIP3    H116987   3.685   4.357   0.490 -0.5010 -0.7519 -1.8087
 5678TIP3    H216988   3.657   4.213   0.527 -0.7094 -0.1215  0.5548
 5679TIP3   OH216989   2.760   6.142   0.399  0.1788  0.7040 -0.1843
 5679TIP3    H116990   2.851   6.118   0.383 -0.0754 -0.3911 -0.0467
 5679TIP3    H216991   2.720   6.063   0.436 -1.0044  0.9423 -0.9227
 5680TIP3   OH216992   2.293   3.661   5.359  0.2312  0.1865  0.0031
 5680TIP3    H116993   2.351   3.591   5.331  0.2702 -0.8883  2.5862
 5680TIP3    H216994   2.347   3.740   5.359  0.4980  0.0142 -1.8018
 5681TIP3   OH216995   5.929   5.433   0.769  0.6595 -0.1236  0.5466
 5681TIP3    H116996   5.962   5.516   0.736  3.2328 -1.0576  0.7011
 5681TIP3    H216997   5.943   5.437   0.863  0.1369 -0.4535  0.6413
 5682TIP3   OH216998   4.597   5.407   1.360  0.0875  0.1756 -0.4591
 5682TIP3    H116999   4.545   5.487   1.360 -1.3218 -0.7267 -0.9452
 5682TIP3    H217000   4.631   5.400   1.450 -2.0081 -0.0879  0.3354
 5683TIP3   OH217001   2.276   4.230   0.090  0.2069 -0.0715  0.5135
 5683TIP3    H117002   2.365   4.265   0.097 -0.1840  1.4029 -1.3545
 5683TIP3    H217003   2.257   4.231  -0.004 -0.8025 -2.9472  0.6470
 5684TIP3   OH217004   1.098   2.970   5.716  0.1764  0.1907  0.8628
 5684TIP3    H117005   1.028   2.935   5.661  1.4683  0.5143 -1.0259
 5684TIP3    H217006   1.053   3.012   5.789 -1.6029  0.3688 -0.3147
 5685TIP3   OH217007   1.490   2.354   5.925 -0.7386  0.7260  0.0777
 5685TIP3    H117008   1.446   2.312   5.999 -0.4779  0.4105  0.0524
 5685TIP3    H217009   1.567   2.299   5.908  0.2086  1.8230  0.7480
 5686TIP3   OH217010   3.662   4.100   0.880 -0.1221  0.7545  0.3068
 5686TIP3    H117011   3.709   4.020   0.857 -0.1427  0.6841  0.5049
 5686TIP3    H217012   3.720   4.171   0.854 -1.1555  0.7244 -2.1609
 5687TIP3   OH217013   1.827   4.083   5.854 -0.5114 -0.5473  0.0045
 5687TIP3    H117014   1.882   4.029   5.796  0.2854  0.3617 -0.1004
 5687TIP3    H217015   1.778   4.140   5.794 -1.0927 -0.9052  0.1345
 5688TIP3   OH217016   1.129   2.246   6.220 -0.4024 -0.0247 -0.1528
 5688TIP3    H117017   1.169   2.328   6.248 -0.3117 -0.5843  1.3950
 5688TIP3    H217018   1.174   2.224   6.138  0.4282  0.8373  0.0645
 5689TIP3   OH217019   0.384   2.018   5.785  0.1435 -0.2760 -0.4264
 5689TIP3    H117020   0.369   1.930   5.817  2.0303 -0.4930 -0.0900
 5689TIP3    H217021   0.299   2.060   5.789 -0.8715 -2.2316 -1.0517
 5690TIP3   OH217022   0.374   1.812   6.356 -0.1990 -0.1471  0.0183
 5690TIP3    H117023   0.293   1.771   6.384  0.3016 -0.1591  1.5007
 5690TIP3    H217024   0.440   1.743   6.363 -0.0819 -0.1940 -1.3655
 5691TIP3   OH217025   2.196   4.156   5.011  0.1702 -0.0461  0.1199
 5691TIP3    H117026   2.279   4.182   5.050 -0.1576 -0.2009  0.9220
 5691TIP3    H217027   2.142   4.127   5.084  0.0285 -1.6559 -0.5830
 5692TIP3   OH217028   1.461   3.502   4.982  0.6122 -0.5862 -0.1040
 5692TIP3    H117029   1.506   3.422   4.956  0.1281 -0.8940  0.0116
 5692TIP3    H217030   1.416   3.531   4.903  0.7971 -0.4173 -0.1491
 5693TIP3   OH217031   0.991   3.120   5.915 -0.6005 -0.2560  0.5377
 5693TIP3    H117032   0.988   3.215   5.930  2.7395 -0.0870  0.4221
 5693TIP3    H217033   1.017   3.084   6.000 -1.5000 -1.0413  0.4762
 5694TIP3   OH217034   5.883   2.720   5.753 -0.1628  0.3629  0.4324
 5694TIP3    H117035   5.947   2.686   5.815  0.9996  0.1696 -0.8395
 5694TIP3    H217036   5.931   2.785   5.703 -2.1662  3.4047  2.3382
 5695TIP3   OH217037   6.238   6.931   6.423  0.0607 -0.6559 -0.2495
 5695TIP3    H117038   6.249   6.920   6.518 -0.1044 -2.5119 -0.4285
 5695TIP3    H217039   6.242   6.842   6.388 -3.0468 -0.2972 -1.6494
 5696TIP3   OH217040   1.845   3.035   5.565  0.1231  0.2131  0.2853
 5696TIP3    H117041   1.786   3.100   5.527  0.4101  1.5911  2.1300
 5696TIP3    H217042   1.933   3.073   5.555  0.3426 -0.1450  0.8195
 5697TIP3   OH217043   5.266   6.760   1.364  0.2067  0.0764  0.0661
 5697TIP3    H117044   5.308   6.799   1.440 -2.7933  0.4905  1.6145
 5697TIP3    H217045   5.234   6.675   1.396 -0.6878  0.0573 -0.8409
 5698TIP3   OH217046   0.169   0.332   0.873 -0.1641 -0.1942 -0.0057
 5698TIP3    H117047   0.146   0.336   0.780 -1.0791 -0.4301  0.2069
 5698TIP3    H217048   0.111   0.266   0.909 -0.7397  0.8414  1.0021
 5699TIP3   OH217049   7.103   1.255   4.370  0.1085 -0.2205 -0.2400
 5699TIP3    H117050   7.087   1.198   4.445 -0.5955  1.0775  0.6053
 5699TIP3    H217051   7.034   1.321   4.374  0.1812 -0.0153 -1.9121
 5700TIP3   OH217052   0.879   1.699   5.625 -0.6810 -0.1971  0.6064
 5700TIP3    H117053   0.848   1.743   5.704 -0.4373 -1.7092  1.5593
 5700TIP3    H217054   0.973   1.686   5.641 -0.1999  1.3415 -0.8225
 5701TIP3   OH217055   5.868   0.480   0.375 -0.1888  0.0909  0.1896
 5701TIP3    H117056   5.826   0.422   0.311 -0.9988 -0.5018  1.2411
 5701TIP3    H217057   5.877   0.563   0.329  0.3755 -0.6776 -1.1146
 5702TIP3   OH217058   3.682   4.849   0.586 -0.0474 -0.2610  0.5544
 5702TIP3    H117059   3.700   4.942   0.600 -0.8344  0.2634 -1.6270
 5702TIP3    H217060   3.672   4.841   0.491 -0.2795 -2.5239  0.7426
 5703TIP3   OH217061   5.535   4.562   0.057  0.5069  0.1386  0.7752
 5703TIP3    H117062   5.586   4.513   0.122 -0.3326 -0.0748  1.2808
 5703TIP3    H217063   5.478   4.497   0.016  1.2505  0.2174 -0.4019
 5704TIP3   OH217064   3.791   3.862   0.805  0.5124 -0.3434 -0.1683
 5704TIP3    H117065   3.775   3.905   0.721  0.2914 -0.1939 -0.0503
 5704TIP3    H217066   3.859   3.797   0.786  1.0142  0.2113 -0.3028
 5705TIP3   OH217067   2.020   2.637   5.970 -0.6813  0.2742 -0.3965
 5705TIP3    H117068   2.036   2.543   5.980 -0.0561  0.5322  1.2405
 5705TIP3    H217069   1.938   2.652   6.016 -0.4199  0.6498 -0.0561
 5706TIP3   OH217070   7.682   0.733   5.867  0.0626  0.2635 -0.3151
 5706TIP3    H117071   7.617   0.687   5.814  2.1138 -2.5052 -0.4991
 5706TIP3    H217072   7.699   0.814   5.818 -0.9491 -0.4363 -1.8717
 5707TIP3   OH217073   1.512   1.513   3.612  0.3544  0.0628 -0.2625
 5707TIP3    H117074   1.542   1.556   3.532 -0.5367 -0.9702 -1.1643
 5707TIP3    H217075   1.421   1.541   3.621 -0.2591 -1.6781 -0.8996
 5708TIP3   OH217076   0.738   2.041   3.656  0.0645  0.7041  0.6436
 5708TIP3    H117077   0.822   2.066   3.694  0.2075  1.1272  0.0561
 5708TIP3    H217078   0.720   2.109   3.591 -0.3705  0.2064  0.2440
 5709TIP3   OH217079   0.536   3.453   5.384 -0.3223 -0.5340 -0.4612
 5709TIP3    H117080   0.542   3.358   5.371 -1.5098 -0.8326  1.0560
 5709TIP3    H217081   0.456   3.466   5.434  0.6078  1.1474  0.6686
 5710TIP3   OH217082   3.590   2.912   6.262 -0.1334 -0.2366  0.3171
 5710TIP3    H117083   3.606   2.821   6.237 -1.1189 -0.1573 -0.6456
 5710TIP3    H217084   3.515   2.909   6.320 -0.4169 -0.0005 -0.0327
 5711TIP3   OH217085   1.579   4.068   6.008 -0.3392  0.4851 -0.3809
 5711TIP3    H117086   1.592   4.070   6.103 -1.2518  0.9152 -0.2609
 5711TIP3    H217087   1.665   4.088   5.972  0.1295 -0.1753  0.3472
 5712TIP3   OH217088   1.759   4.243   5.190  0.5243 -0.0889  0.1677
 5712TIP3    H117089   1.734   4.320   5.241 -0.1410 -0.8288  0.9645
 5712TIP3    H217090   1.724   4.169   5.239  1.3497 -0.9216 -0.4776
 5713TIP3   OH217091   2.794   6.239   0.828  0.3327  0.2294  1.0754
 5713TIP3    H117092   2.732   6.231   0.901 -0.0767  0.7362  0.7922
 5713TIP3    H217093   2.746   6.290   0.762  1.2597  1.1358  1.0884
 5714TIP3   OH217094   2.648   3.383   5.461 -0.5045 -0.3666 -0.4758
 5714TIP3    H117095   2.577   3.338   5.507 -0.0936  0.2180  0.7530
 5714TIP3    H217096   2.685   3.442   5.527 -0.3975  1.0453 -1.7793
 5715TIP3   OH217097   2.454   2.943   5.291  0.1851  0.1789 -0.7236
 5715TIP3    H117098   2.436   2.849   5.292  0.6339  0.1000  0.4702
 5715TIP3    H217099   2.547   2.951   5.311  0.0892  0.9004 -0.5354
 5716TIP3   OH217100   0.618   2.992   4.784 -0.4316 -0.2646  0.1398
 5716TIP3    H117101   0.626   2.931   4.711 -1.6339 -1.2829  0.8434
 5716TIP3    H217102   0.551   2.954   4.841 -2.3689  2.5054 -0.1971
 5717TIP3   OH217103   4.601   6.416   0.938  0.0994  0.2411 -0.3619
 5717TIP3    H117104   4.670   6.349   0.943 -0.6569 -0.6062 -1.3033
 5717TIP3    H217105   4.625   6.479   1.007 -1.1471 -2.8201  3.0401
 5718TIP3   OH217106   2.402   3.058   3.680  0.2901 -0.1439 -0.4882
 5718TIP3    H117107   2.320   3.027   3.641 -0.4678  0.4739  0.5960
 5718TIP3    H217108   2.386   3.054   3.774  1.4020  0.2883 -0.2810
 5719TIP3   OH217109   3.960   3.138   3.238 -0.3299  0.0041  0.0627
 5719TIP3    H117110   3.902   3.143   3.314  0.0956  1.6868  0.2765
 5719TIP3    H217111   3.906   3.096   3.171 -1.0843 -0.4365  0.9223
 5720TIP3   OH217112   0.852   1.291   6.161 -0.2015  0.2574  0.0491
 5720TIP3    H117113   0.939   1.310   6.126  1.4371 -1.1669  3.2271
 5720TIP3    H217114   0.834   1.363   6.222 -2.3747  1.8784 -2.3672
 5721TIP3   OH217115   0.351   1.613   4.374  0.2149  1.0291  0.6238
 5721TIP3    H117116   0.343   1.570   4.289 -2.3241  0.6396  1.0149
 5721TIP3    H217117   0.443   1.604   4.397  0.2032 -2.1937 -0.3514
 5722TIP3   OH217118   0.193   1.789   4.853  0.1710  0.0939  0.1558
 5722TIP3    H117119   0.165   1.774   4.762 -1.0766  0.5454  0.4538
 5722TIP3    H217120   0.111   1.793   4.903  0.8781 -0.8556  1.4201
 5723TIP3   OH217121   2.026   6.479   5.410 -0.4339  0.0651  0.0971
 5723TIP3    H117122   2.078   6.554   5.382  1.8973 -1.4885  0.1515
 5723TIP3    H217123   2.037   6.415   5.340 -1.3295 -0.7376  0.6728
 5724TIP3   OH217124   3.599   0.259   3.206 -0.6674 -0.4226 -0.5036
 5724TIP3    H117125   3.589   0.172   3.168 -1.4299 -0.2261 -0.7631
 5724TIP3    H217126   3.533   0.313   3.162  1.4892  0.9382 -2.2335
 5725TIP3   OH217127   1.608   1.742   3.823  0.4748  0.0450 -0.0283
 5725TIP3    H117128   1.584   1.651   3.806 -0.8635  0.3615  0.1455
 5725TIP3    H217129   1.622   1.746   3.917  1.2370 -0.1287 -0.1237
 5726TIP3   OH217130   1.987   4.020   5.165 -0.6682  0.3854  0.0918
 5726TIP3    H117131   2.011   3.948   5.105 -0.9642  1.4024 -1.2782
 5726TIP3    H217132   1.913   4.062   5.122 -0.6290  1.3795  0.9935
 5727TIP3   OH217133   1.511   1.542   6.135 -0.3771  0.0581  0.0831
 5727TIP3    H117134   1.456   1.465   6.151  1.1161 -0.8378  0.9665
 5727TIP3    H217135   1.596   1.507   6.109  0.0023  1.4298 -0.5975
 5728TIP3   OH217136   3.609   1.747   6.352 -0.0810  0.3499  0.0622
 5728TIP3    H117137   3.644   1.659   6.340 -2.2059 -0.6907  1.2673
 5728TIP3    H217138   3.589   1.777   6.264 -0.2164 -0.7360 -0.2789
 5729TIP3   OH217139   2.371   3.069   5.765 -0.6514  0.7937 -0.0807
 5729TIP3    H117140   2.312   3.056   5.839  1.1440  1.3421  1.4852
 5729TIP3    H217141   2.383   2.982   5.727 -2.6006  0.7068 -0.5565
 5730TIP3   OH217142   0.128   0.938   5.878 -0.0454  0.0255  0.2992
 5730TIP3    H117143   0.174   0.877   5.936 -0.5541  0.1919  0.8796
 5730TIP3    H217144   0.173   0.930   5.794  0.6517 -0.2695  0.6984
 5731TIP3   OH217145   1.416   2.089   4.914 -0.3710 -0.3234 -0.0808
 5731TIP3    H117146   1.422   2.154   4.984  1.4184 -0.7757  0.2203
 5731TIP3    H217147   1.326   2.056   4.919 -0.9471  1.2708  0.5133
 5732TIP3   OH217148   1.232   4.200   2.138 -0.2436 -0.1477  0.0958
 5732TIP3    H117149   1.256   4.213   2.047 -0.6603  0.8638  0.1285
 5732TIP3    H217150   1.146   4.240   2.147 -0.6647 -1.1531  0.6855
 5733TIP3   OH217151   3.935   4.519   6.130  0.5453  0.6943 -0.2590
 5733TIP3    H117152   3.849   4.502   6.170  0.7305 -0.1534 -0.2173
 5733TIP3    H217153   3.988   4.443   6.154  1.7573  1.8976  0.9735
 5734TIP3   OH217154   7.482   3.113   5.520 -0.4694  0.5377 -0.1579
 5734TIP3    H117155   7.409   3.050   5.528 -0.6549  0.8861  0.9707
 5734TIP3    H217156   7.485   3.157   5.605 -0.7547  2.5209 -1.1436
 5735TIP3   OH217157   3.940   5.806   0.461 -0.4046 -0.0563 -0.5701
 5735TIP3    H117158   3.888   5.734   0.425 -0.3892 -1.8247  2.7702
 5735TIP3    H217159   4.030   5.784   0.440 -0.4860 -0.4985 -0.4610
 5736TIP3   OH217160   3.476   6.606   2.067  0.2778  0.4046  0.2700
 5736TIP3    H117161   3.442   6.609   1.977 -0.6202  1.2884  0.6359
 5736TIP3    H217162   3.566   6.575   2.057  0.1708  0.4560 -0.9364
 5737TIP3   OH217163   2.508   3.810   5.364 -0.1741 -0.0802  0.1158
 5737TIP3    H117164   2.592   3.804   5.318  0.0905 -0.3521  0.6317
 5737TIP3    H217165   2.525   3.867   5.439 -0.0445 -1.4166  1.1132
 5738TIP3   OH217166   6.601   6.732   1.296 -0.6078 -0.2063  0.5123
 5738TIP3    H117167   6.547   6.660   1.328 -0.6516 -0.4435 -0.0751
 5738TIP3    H217168   6.539   6.793   1.256 -0.5465  0.0398  0.7922
 5739TIP3   OH217169   0.534   1.505   5.634 -0.5752 -0.5868 -0.0579
 5739TIP3    H117170   0.595   1.561   5.682  0.3640  0.3449 -2.2751
 5739TIP3    H217171   0.578   1.419   5.633 -0.5603 -0.5960  0.6376
 5740TIP3   OH217172   3.754   5.670   1.557 -0.2789  1.3346 -0.7457
 5740TIP3    H117173   3.754   5.584   1.600  1.8781  0.0346 -3.2161
 5740TIP3    H217174   3.847   5.690   1.545 -0.8006  2.9260 -2.3074
 5741TIP3   OH217175   1.714   6.931   0.507 -0.2355  0.2320  0.3261
 5741TIP3    H117176   1.672   6.845   0.511 -0.4596  0.3833  1.3476
 5741TIP3    H217177   1.705   6.966   0.595  0.7902  0.8667  0.1846
 5742TIP3   OH217178   0.119   2.979   5.934  0.2477 -0.5181  0.0574
 5742TIP3    H117179   0.211   2.995   5.955  0.1174  2.6968 -1.4171
 5742TIP3    H217180   0.071   3.003   6.013  0.6432 -2.1325  0.8042
 5743TIP3   OH217181   5.741   6.111   1.011 -0.4405  0.1591 -0.4720
 5743TIP3    H117182   5.700   6.027   1.034  1.4954 -0.7238 -0.2028
 5743TIP3    H217183   5.793   6.135   1.087 -0.5101  1.3154 -0.7818
 5744TIP3   OH217184   0.569   3.139   6.357  0.1346 -0.5224 -0.2594
 5744TIP3    H117185   0.563   3.046   6.333  2.5507 -1.1162  1.2660
 5744TIP3    H217186   0.508   3.148   6.430  0.1164 -0.9920 -0.2098
 5745TIP3   OH217187   0.903   3.286   6.405  0.2288 -0.4545 -0.3480
 5745TIP3    H117188   0.865   3.207   6.444 -0.6268 -0.1087 -0.4652
 5745TIP3    H217189   0.829   3.329   6.362  0.3888  1.1979  0.9899
 5746TIP3   OH217190   5.293   6.300   0.524  0.4399 -0.3848 -0.3748
 5746TIP3    H117191   5.337   6.269   0.445 -0.4456 -0.4190 -0.8620
 5746TIP3    H217192   5.232   6.230   0.546 -1.4047  0.8682 -1.3402
 5747TIP3   OH217193   1.121   1.134   5.432 -0.0149  0.5290  0.5503
 5747TIP3    H117194   1.055   1.114   5.364  0.6865  0.9868 -0.2789
 5747TIP3    H217195   1.198   1.082   5.406 -0.1727 -0.3305  1.7496
 5748TIP3   OH217196   1.413   2.212   3.349 -0.0337 -0.4460  0.1481
 5748TIP3    H117197   1.456   2.184   3.430  1.2594 -0.5254 -0.5558
 5748TIP3    H217198   1.420   2.137   3.291 -1.7575 -0.7129  0.2397
 5749TIP3   OH217199   4.694   1.044   5.552  0.2322  0.2138 -0.1160
 5749TIP3    H117200   4.724   0.953   5.556  0.0027 -0.0318 -2.9214
 5749TIP3    H217201   4.601   1.040   5.574  0.4110 -0.1245  0.5760
 5750TIP3   OH217202   1.927   2.528   5.735  0.6878  0.2123  0.3510
 5750TIP3    H117203   1.851   2.548   5.790  0.2547  0.5830 -0.3638
 5750TIP3    H217204   1.999   2.514   5.797 -0.0024 -0.3234  1.0408
 5751TIP3   OH217205   1.188   2.230   4.849 -0.3416 -0.2348  0.6196
 5751TIP3    H117206   1.124   2.281   4.899 -0.1896 -0.6599  1.2574
 5751TIP3    H217207   1.266   2.228   4.904 -0.2437 -0.8854  0.4660
 5752TIP3   OH217208   4.396   0.607   0.164  0.2566 -0.0493 -0.1519
 5752TIP3    H117209   4.450   0.637   0.238  1.2415  0.6886 -1.1408
 5752TIP3    H217210   4.410   0.513   0.161 -0.8646 -0.2838  1.4302
 5753TIP3   OH217211   2.786   2.267   4.751  0.7819 -0.2209 -0.2374
 5753TIP3    H117212   2.846   2.322   4.802 -0.5634 -0.5107  1.7139
 5753TIP3    H217213   2.770   2.191   4.806 -0.5786 -0.6389 -1.1777
 5754TIP3   OH217214   6.072   6.192   0.487  0.2782  0.0657 -0.1911
 5754TIP3    H117215   6.063   6.283   0.516  1.5098  0.4140 -0.8518
 5754TIP3    H217216   6.004   6.181   0.421  0.5538  0.7140 -0.5847
 5755TIP3   OH217217   4.459   7.070   1.318 -0.5808  0.3479  0.2871
 5755TIP3    H117218   4.372   7.047   1.287 -0.4878  2.0947 -1.3411
 5755TIP3    H217219   4.447   7.095   1.410 -1.5541 -0.7918  0.4698
 5756TIP3   OH217220   6.906   2.900   5.146 -0.2501  0.0998  0.0531
 5756TIP3    H117221   6.848   2.858   5.209  1.0953 -1.1967  0.4305
 5756TIP3    H217222   6.969   2.833   5.121  0.3076  1.1080 -1.3462
 5757TIP3   OH217223   1.946   2.504   0.280 -0.5454  0.1622 -0.0444
 5757TIP3    H117224   1.904   2.455   0.210  0.7710 -0.1034 -0.6689
 5757TIP3    H217225   2.027   2.456   0.298  0.0126  1.2400  0.3915
 5758TIP3   OH217226   7.391   1.490   4.919  0.1166  0.2692 -0.6760
 5758TIP3    H117227   7.406   1.571   4.870  0.7821  0.8175  0.4236
 5758TIP3    H217228   7.476   1.446   4.919 -0.2576 -0.4641 -1.3198
 5759TIP3   OH217229   3.775   3.525   6.159  0.1790 -0.1707 -0.1176
 5759TIP3    H117230   3.721   3.507   6.236 -0.2873 -1.0656 -0.6416
 5759TIP3    H217231   3.742   3.464   6.092  1.1172  0.0328 -0.7734
 5760TIP3   OH217232   1.426   2.266   6.434  0.7458 -0.4085  0.0209
 5760TIP3    H117233   1.437   2.194   6.371  0.1737 -0.6406  0.1828
 5760TIP3    H217234   1.515   2.288   6.460  0.9069 -1.3130  0.2514
 5761TIP3   OH217235   3.076   3.025   3.512 -0.3736  0.5306  0.4776
 5761TIP3    H117236   2.993   3.071   3.501  0.0085  1.3588  1.0609
 5761TIP3    H217237   3.066   2.975   3.593 -0.6762 -0.1995  0.0024
 5762TIP3   OH217238   3.409   1.252   3.842  0.1585 -0.1053 -0.3210
 5762TIP3    H117239   3.335   1.199   3.813 -1.3407  1.5084  0.4068
 5762TIP3    H217240   3.484   1.194   3.838 -1.5365 -2.4687  1.0375
 5763TIP3   OH217241   1.243   4.217   5.535  0.9381  0.1571 -0.3604
 5763TIP3    H117242   1.178   4.191   5.470  0.2256  3.1541 -0.8902
 5763TIP3    H217243   1.203   4.194   5.619 -0.2504  0.7918 -0.7431
 5764TIP3   OH217244   2.731   2.807   3.435  0.1097  0.4652 -0.1309
 5764TIP3    H117245   2.746   2.894   3.397 -0.1093  0.5336 -0.0600
 5764TIP3    H217246   2.687   2.758   3.365 -2.3230  1.2621  0.7669
 5765TIP3   OH217247   5.499   6.511   0.511 -0.1556 -0.2227 -0.3204
 5765TIP3    H117248   5.521   6.527   0.603  0.2798 -2.3607 -0.0167
 5765TIP3    H217249   5.428   6.447   0.515  0.4004 -0.9264 -1.4804
 5766TIP3   OH217250   7.634   1.400   3.250 -0.0767 -0.1108 -0.1014
 5766TIP3    H117251   7.715   1.365   3.287 -0.0951  0.3035  0.3379
 5766TIP3    H217252   7.565   1.346   3.289  0.1455 -2.3057 -2.6230
 5767TIP3   OH217253   2.391   1.982   4.249 -0.6455  0.5728  0.2399
 5767TIP3    H117254   2.429   2.018   4.169 -2.1582  3.6665  0.8530
 5767TIP3    H217255   2.297   1.977   4.231 -1.1756  2.5695  2.2500
 5768TIP3   OH217256   0.077   3.107   5.422  0.1693  0.0722 -0.3620
 5768TIP3    H117257   0.024   3.049   5.367 -0.5754 -0.3694  0.7789
 5768TIP3    H217258   0.046   3.089   5.511  0.4493  1.7027  0.0748
 5769TIP3   OH217259   1.930   3.153   5.190 -0.6959  0.2461  0.3130
 5769TIP3    H117260   2.021   3.129   5.171  0.3169  2.6875  1.8892
 5769TIP3    H217261   1.888   3.070   5.214  1.5942 -0.6445  1.3727
 5770TIP3   OH217262   4.368   1.114   4.800  0.0930 -0.3179  0.1820
 5770TIP3    H117263   4.396   1.034   4.755 -0.5719 -0.2899 -0.2843
 5770TIP3    H217264   4.352   1.177   4.730  0.7714  0.2802  0.5592
 5771TIP3   OH217265   1.322   0.207   4.945 -0.2267  0.2649  0.1251
 5771TIP3    H117266   1.310   0.285   5.000 -1.7380 -0.6214  1.0701
 5771TIP3    H217267   1.417   0.191   4.948 -0.1596  0.8230  1.6595
 5772TIP3   OH217268   4.167   3.016   0.049  0.2327  0.6201 -0.1458
 5772TIP3    H117269   4.122   2.993  -0.032  1.1242  1.9773 -1.0395
 5772TIP3    H217270   4.112   2.979   0.118 -0.3721 -0.8159 -1.3713
 5773TIP3   OH217271   3.457   0.850   4.455  0.3026  0.4438 -0.2206
 5773TIP3    H117272   3.386   0.786   4.447  1.8386 -1.3320 -0.0406
 5773TIP3    H217273   3.489   0.839   4.545  1.1618  0.8341 -0.4757
 5774TIP3   OH217274   3.998   6.147   1.194  0.5498  0.0040 -0.3760
 5774TIP3    H117275   4.050   6.069   1.214 -0.0364  0.1377  1.7388
 5774TIP3    H217276   3.943   6.121   1.121  0.7965 -1.3816 -0.0785
 5775TIP3   OH217277   2.106   3.706   3.890 -0.2571 -0.3927  0.7872
 5775TIP3    H117278   2.062   3.753   3.960 -1.5159 -0.6107  0.1657
 5775TIP3    H217279   2.181   3.762   3.867 -0.2387  0.0151  1.8179
 5776TIP3   OH217280   5.720   2.049   6.084 -0.1470 -0.0940 -0.2179
 5776TIP3    H117281   5.742   2.130   6.130 -0.3983  0.0575 -0.3680
 5776TIP3    H217282   5.735   1.980   6.150  2.4724 -0.1579 -0.8431
 5777TIP3   OH217283   0.713   1.910   6.276 -0.8732 -0.1060  0.2099
 5777TIP3    H117284   0.771   1.986   6.284  0.4476 -0.9750 -0.8635
 5777TIP3    H217285   0.635   1.943   6.232  0.4326  0.2889 -1.8794
 5778TIP3   OH217286   3.275   0.175   3.499 -0.6928  0.5352 -0.1363
 5778TIP3    H117287   3.346   0.239   3.489  0.5750 -0.1388  3.5185
 5778TIP3    H217288   3.290   0.111   3.430  3.1848 -0.2930  1.3042
 5779TIP3   OH217289   6.455   4.500   0.473  0.0216  0.6627  0.5035
 5779TIP3    H117290   6.417   4.520   0.559 -0.3988 -1.4869  0.8246
 5779TIP3    H217291   6.513   4.426   0.489  3.0474  2.7825 -0.3295
 5780TIP3   OH217292   2.714   0.382   5.062 -0.2382  0.2651 -0.0974
 5780TIP3    H117293   2.739   0.294   5.032 -0.4270 -0.6211  2.2375
 5780TIP3    H217294   2.787   0.437   5.036  0.0823 -0.6618 -1.2208
 5781TIP3   OH217295   0.276   1.777   3.948 -0.4125  0.4454  0.3414
 5781TIP3    H117296   0.338   1.828   4.001  0.2167 -0.6646  0.6967
 5781TIP3    H217297   0.331   1.732   3.884 -0.9414  0.1044  0.1231
 5782TIP3   OH217298   0.132   0.528   0.416 -0.9035  0.0188  0.4567
 5782TIP3    H117299   0.165   0.457   0.471 -0.5892  0.2792  0.6155
 5782TIP3    H217300   0.160   0.506   0.328 -0.2518  0.2640  0.5999
 5783TIP3   OH217301   5.937   5.806   0.976 -0.5183 -0.9947 -0.2070
 5783TIP3    H117302   5.983   5.724   0.992  0.1720 -0.7994 -1.1319
 5783TIP3    H217303   5.954   5.859   1.054  0.6173 -1.0238 -0.4332
 5784TIP3   OH217304   1.816   3.575   3.856  0.0542 -0.1258  0.3957
 5784TIP3    H117305   1.830   3.501   3.915 -0.8352 -0.1328  0.6128
 5784TIP3    H217306   1.875   3.643   3.889  0.7226 -0.6675  0.3227
 5785TIP3   OH217307   2.375   7.367   6.291 -0.3833 -0.1896  0.4298
 5785TIP3    H117308   2.434   7.387   6.364 -0.3860 -0.6408  0.5517
 5785TIP3    H217309   2.433   7.338   6.220 -0.4950 -1.0009  0.6752
 5786TIP3   OH217310   2.789   0.207   5.906  0.2772  0.2597 -0.0146
 5786TIP3    H117311   2.769   0.301   5.898 -3.1105 -0.4524 -0.6181
 5786TIP3    H217312   2.786   0.191   6.000  2.1889  0.9736  0.2017
 5787TIP3   OH217313   3.755   3.314   5.698  0.0404 -0.9545 -0.1958
 5787TIP3    H117314   3.673   3.266   5.700 -0.3216 -0.3305  0.1168
 5787TIP3    H217315   3.774   3.332   5.790 -1.1063  1.6482 -0.4259
 5788TIP3   OH217316   2.475   3.601   4.132 -0.1483  0.1530 -0.1415
 5788TIP3    H117317   2.520   3.538   4.075  0.7087  0.6199  0.0034
 5788TIP3    H217318   2.542   3.626   4.196 -0.2057  1.9372 -0.7806
 5789TIP3   OH217319   4.355   2.159   2.534  0.1909  0.4536  0.1997
 5789TIP3    H117320   4.281   2.218   2.520  0.5144  0.8653  0.2265
 5789TIP3    H217321   4.316   2.072   2.539 -0.3949  0.7711  1.2132
 5790TIP3   OH217322   1.952   2.596   5.121  0.5180  0.4620  0.1271
 5790TIP3    H117323   1.941   2.556   5.035  2.3867  0.2501 -0.0311
 5790TIP3    H217324   1.960   2.523   5.182 -4.7337  0.5397  1.1093
 5791TIP3   OH217325   1.788   3.218   4.955  0.3667  0.1970 -0.3184
 5791TIP3    H117326   1.832   3.194   5.037 -0.1385  0.0954 -0.0764
 5791TIP3    H217327   1.817   3.308   4.938  2.8616 -0.8132 -1.6367
 5792TIP3   OH217328   2.847   1.834   5.250 -0.3089  0.2599 -0.7524
 5792TIP3    H117329   2.912   1.785   5.200 -1.5024 -1.0493 -1.0494
 5792TIP3    H217330   2.821   1.774   5.320  0.7519  1.7727  1.0021
 5793TIP3   OH217331   3.489   2.642   4.853 -0.3772 -0.6899  0.2893
 5793TIP3    H117332   3.518   2.613   4.939 -1.5638  0.1737  0.9968
 5793TIP3    H217333   3.431   2.573   4.822 -0.8312 -0.4746  0.6645
 5794TIP3   OH217334   7.164   7.431   0.962 -0.5979 -0.1219  0.0545
 5794TIP3    H117335   7.072   7.455   0.965 -1.1544 -1.8991 -1.8709
 5794TIP3    H217336   7.180   7.383   1.044 -1.1044  1.0379  0.8431
 5795TIP3   OH217337   3.520   2.907   5.242 -0.1824 -0.8658  0.0580
 5795TIP3    H117338   3.452   2.847   5.210  0.1851 -0.6373 -1.1900
 5795TIP3    H217339   3.579   2.852   5.294 -1.1627 -1.1160  0.9080
 5796TIP3   OH217340   2.726   0.464   5.646  0.1953  0.2097  0.0725
 5796TIP3    H117341   2.760   0.507   5.568 -3.0312  3.4448  0.3486
 5796TIP3    H217342   2.665   0.398   5.613 -1.9468  2.2613 -0.2281
 5797TIP3   OH217343   2.970   3.591   6.295  0.2692  0.5187  0.1615
 5797TIP3    H117344   2.931   3.668   6.335  0.9437  0.9807 -0.0529
 5797TIP3    H217345   2.927   3.582   6.211 -1.5915 -0.8141  1.2228
 5798TIP3   OH217346   4.343   2.371   5.069  0.0087  0.3940  0.4892
 5798TIP3    H117347   4.256   2.374   5.031  0.4033  0.6901 -0.3989
 5798TIP3    H217348   4.328   2.353   5.162 -0.9846  0.3033  0.3160
 5799TIP3   OH217349   4.962   2.326   5.671 -0.1262  0.1564  0.4155
 5799TIP3    H117350   4.992   2.417   5.664  0.9449 -0.2536 -0.4126
 5799TIP3    H217351   4.936   2.303   5.581  0.6862 -0.7212  0.3975
 5800TIP3   OH217352   3.191   3.303   5.383 -0.9085  0.3531 -0.2875
 5800TIP3    H117353   3.180   3.388   5.339  0.3861  0.8227  0.2663
 5800TIP3    H217354   3.236   3.325   5.464 -2.2214 -0.6565  0.7196
 5801TIP3   OH217355   7.749   2.186   5.679  0.1070 -0.1362  0.6477
 5801TIP3    H117356   7.790   2.145   5.604  1.1667  0.6665  0.7843
 5801TIP3    H217357   7.655   2.184   5.659  0.3155 -0.7288 -0.2850
 5802TIP3   OH217358   3.255   4.374   1.855  0.5706  0.4270 -0.0311
 5802TIP3    H117359   3.231   4.368   1.762  0.0129  0.1838  0.1295
 5802TIP3    H217360   3.347   4.400   1.854  0.8567 -0.5963 -0.6537
 5803TIP3   OH217361   2.595   3.870   5.824  0.2067  0.2141  0.1494
 5803TIP3    H117362   2.536   3.813   5.775  0.3248 -0.0409  0.3005
 5803TIP3    H217363   2.537   3.929   5.872  0.0979  0.7770 -0.6623
 5804TIP3   OH217364   4.692   2.755   4.605  0.1460  0.3507  0.4210
 5804TIP3    H117365   4.668   2.771   4.513  2.2905  0.2993 -0.1651
 5804TIP3    H217366   4.674   2.662   4.619  1.0126  0.0686 -0.3231
 5805TIP3   OH217367   3.554   7.414   0.034 -0.2519  0.4009 -0.7589
 5805TIP3    H117368   3.471   7.455   0.007 -0.4772 -1.1371 -2.5181
 5805TIP3    H217369   3.527   7.335   0.081  0.2001  0.1452 -0.9287
 5806TIP3   OH217370   3.786   5.747   3.057  0.4632 -0.4960  0.1119
 5806TIP3    H117371   3.809   5.660   3.026  1.4111 -0.3996  0.5126
 5806TIP3    H217372   3.816   5.806   2.988  0.3836 -0.4498  0.1174
 5807TIP3   OH217373   1.289   3.521   3.816 -0.4650  0.1451 -0.1706
 5807TIP3    H117374   1.383   3.525   3.834 -0.3733  0.7955 -0.7697
 5807TIP3    H217375   1.267   3.428   3.824  0.4326 -0.1474 -1.0251
 5808TIP3   OH217376   3.388   5.101   0.451  0.0174 -0.2944  0.3452
 5808TIP3    H117377   3.414   5.078   0.362 -0.0889 -0.1209  0.2693
 5808TIP3    H217378   3.345   5.186   0.442 -0.2785 -0.4260  0.5190
 5809TIP3   OH217379   4.926   3.982   4.441 -0.1215 -0.4270  0.3309
 5809TIP3    H117380   4.985   4.013   4.509  1.5867  1.7092 -2.0570
 5809TIP3    H217381   4.983   3.935   4.379 -0.8954  1.4409 -1.8666
 5810TIP3   OH217382   2.548   4.076   4.684  0.2004 -0.1178  0.6347
 5810TIP3    H117383   2.482   4.125   4.634  2.3444 -0.1107 -2.2972
 5810TIP3    H217384   2.559   3.994   4.636  2.2539 -0.1614  1.1316
 5811TIP3   OH217385   2.582   3.693   3.834 -0.6960 -0.2745 -0.6614
 5811TIP3    H117386   2.579   3.657   3.923  0.4840  0.2114 -0.4071
 5811TIP3    H217387   2.617   3.623   3.780  0.3634  0.0461 -0.4007
 5812TIP3   OH217388   4.028   6.872   0.914 -0.1375 -0.5891 -0.2811
 5812TIP3    H117389   3.938   6.905   0.913  0.5876  1.5947  1.1226
 5812TIP3    H217390   4.056   6.875   0.823 -1.3778 -0.9455 -0.6804
 5813TIP3   OH217391   2.819   3.719   5.869 -1.0696 -0.3710  0.5396
 5813TIP3    H117392   2.896   3.771   5.894 -0.1965 -0.6076 -1.5114
 5813TIP3    H217393   2.752   3.784   5.847 -1.0111 -0.1450  1.0223
 5814TIP3   OH217394   3.792   3.811   3.264  0.5220  0.3811  0.2148
 5814TIP3    H117395   3.708   3.779   3.297  0.4093  1.2559  0.7852
 5814TIP3    H217396   3.822   3.742   3.204  0.8397 -1.3281  2.3084
 5815TIP3   OH217397   5.154   1.686   5.379 -0.0457 -0.1448 -0.4651
 5815TIP3    H117398   5.089   1.615   5.385 -1.3398  0.9821 -0.8162
 5815TIP3    H217399   5.113   1.750   5.321  0.1288  1.9236  1.6355
 5816TIP3   OH217400   3.130   0.963   5.203  0.1674 -0.3380  0.1362
 5816TIP3    H117401   3.149   1.005   5.287  4.3724 -2.7058  0.4501
 5816TIP3    H217402   3.167   1.023   5.138 -0.6240  0.1062  0.0751
 5817TIP3   OH217403   1.461   1.891   4.672  0.3779  0.4629  0.1194
 5817TIP3    H117404   1.461   1.956   4.742  1.9751  1.3668 -0.7017
 5817TIP3    H217405   1.469   1.942   4.591 -3.5759 -0.4039 -0.9521
 5818TIP3   OH217406   5.146   6.135   0.041 -0.0076  0.2485 -0.0354
 5818TIP3    H117407   5.107   6.186  -0.031 -0.5300  1.7978  1.3291
 5818TIP3    H217408   5.071   6.109   0.095  0.6340  1.3555  1.4015
 5819TIP3   OH217409   4.850   1.645   5.902 -0.2259 -0.5759 -0.2002
 5819TIP3    H117410   4.762   1.661   5.869 -0.1983  0.2765  0.1484
 5819TIP3    H217411   4.891   1.731   5.906  0.3269 -0.8674  0.4926
 5820TIP3   OH217412   2.606   1.833   3.180 -0.5047  0.2774 -0.4465
 5820TIP3    H117413   2.600   1.763   3.245 -2.2888  1.5409  0.7779
 5820TIP3    H217414   2.612   1.787   3.096  1.2388 -1.3659  0.5209
 5821TIP3   OH217415   3.235   2.147   6.486 -0.6514 -0.2319 -0.6185
 5821TIP3    H117416   3.216   2.080   6.420 -0.0611 -1.6797  0.6594
 5821TIP3    H217417   3.211   2.229   6.443  1.2603 -0.9680 -3.2351
 5822TIP3   OH217418   0.821   0.431   5.321 -0.4019  0.3439 -0.4682
 5822TIP3    H117419   0.794   0.349   5.281 -3.2011  1.4525 -0.9338
 5822TIP3    H217420   0.821   0.494   5.249  0.4945  1.0466  0.1308
 5823TIP3   OH217421   2.493   3.138   4.497  0.0661 -0.6273  0.2469
 5823TIP3    H117422   2.424   3.197   4.467 -0.3367 -0.6823  1.0473
 5823TIP3    H217423   2.537   3.187   4.567 -0.0145 -1.1101  0.6389
 5824TIP3   OH217424   6.534   7.015   0.467  0.6831 -0.5856 -0.6899
 5824TIP3    H117425   6.612   7.044   0.515 -0.5165  0.5624  0.6044
 5824TIP3    H217426   6.480   7.094   0.461 -0.2388 -1.2990 -1.8694
 5825TIP3   OH217427   2.385   2.592   4.159  0.2613 -0.0248 -0.6266
 5825TIP3    H117428   2.356   2.607   4.249  0.3289  2.6800 -1.0256
 5825TIP3    H217429   2.308   2.558   4.114 -0.1810  0.0087  0.0969
 5826TIP3   OH217430   5.312   4.708   0.185  0.1013  0.4513  0.0253
 5826TIP3    H117431   5.397   4.671   0.159 -0.0830 -0.4352  0.6451
 5826TIP3    H217432   5.324   4.732   0.277 -0.7169 -0.9373  0.5147
 5827TIP3   OH217433   1.306   1.832   6.270 -0.2792 -1.0566  0.1647
 5827TIP3    H117434   1.357   1.901   6.313  0.3030 -1.2971 -0.1365
 5827TIP3    H217435   1.325   1.843   6.177  0.9308 -2.4997  0.2210
 5828TIP3   OH217436   0.717   0.973   3.985  0.1437  0.1875  0.4807
 5828TIP3    H117437   0.721   0.948   4.077 -0.5905 -3.3873 -0.4019
 5828TIP3    H217438   0.794   0.932   3.946 -1.2833 -1.0352 -1.0930
 5829TIP3   OH217439   1.143   0.123   4.061 -0.0336 -0.2686  0.0913
 5829TIP3    H117440   1.183   0.199   4.019  0.4018 -0.3764  0.3044
 5829TIP3    H217441   1.216   0.079   4.105 -0.5179 -0.0563  1.1059
 5830TIP3   OH217442   3.969   2.615   5.086  0.0891 -0.5286 -0.2455
 5830TIP3    H117443   3.995   2.639   5.175 -0.0224  0.9495 -0.5853
 5830TIP3    H217444   3.914   2.538   5.096  1.0708 -1.0918  0.8643
 5831TIP3   OH217445   2.930   2.297   4.488 -0.2786 -0.1605  0.0208
 5831TIP3    H117446   2.873   2.246   4.545 -1.3360  0.4977 -0.4311
 5831TIP3    H217447   2.882   2.379   4.474 -0.2803 -0.5322 -2.2430
 5832TIP3   OH217448   1.949   1.593   5.876 -0.4447 -0.1620 -0.5407
 5832TIP3    H117449   1.934   1.563   5.786 -0.6865  1.6960 -1.1409
 5832TIP3    H217450   2.043   1.586   5.888 -0.2360  0.8963 -1.4437
 5833TIP3   OH217451   1.423   1.109   3.685  0.1600 -0.0618  0.3505
 5833TIP3    H117452   1.346   1.058   3.709 -0.9997  0.8883 -1.2581
 5833TIP3    H217453   1.409   1.194   3.728 -0.3630  0.5677 -1.0483
 5834TIP3   OH217454   0.956   2.092   4.046 -0.7530  0.2422  0.4637
 5834TIP3    H117455   0.945   2.183   4.073  0.4390  0.5055  0.0875
 5834TIP3    H217456   0.952   2.042   4.128 -0.2683  0.7337  0.7859
 5835TIP3   OH217457   3.535   4.096   4.978 -0.1904  0.1124 -0.0785
 5835TIP3    H117458   3.466   4.031   4.964 -1.2257  0.8938  1.2742
 5835TIP3    H217459   3.560   4.124   4.889 -0.2574 -1.5575 -0.6375
 5836TIP3   OH217460   3.425   2.098   3.284 -0.5972 -0.1716  0.9851
 5836TIP3    H117461   3.372   2.160   3.333 -0.4721 -1.7719  3.2539
 5836TIP3    H217462   3.382   2.092   3.199 -1.8000  1.4439  1.4429
 5837TIP3   OH217463   2.901   4.906   3.976 -0.1816 -0.2692 -0.1943
 5837TIP3    H117464   2.810   4.932   3.965  0.2478  2.1297  1.5111
 5837TIP3    H217465   2.903   4.859   4.059  0.0092 -1.0513 -0.6329
 5838TIP3   OH217466   3.057   2.867   3.749  0.1927 -0.4712  0.2510
 5838TIP3    H117467   3.073   2.792   3.807  1.5181 -0.8044 -0.5207
 5838TIP3    H217468   3.106   2.939   3.789 -0.5014 -0.2016  0.6105
 5839TIP3   OH217469   4.994   2.754   5.198  0.1051 -0.6069 -0.1181
 5839TIP3    H117470   4.947   2.834   5.222 -0.0324 -0.8354  0.3840
 5839TIP3    H217471   5.038   2.776   5.116 -0.5723 -0.2686 -0.3993
 5840TIP3   OH217472   2.101   2.725   4.786  0.2462 -0.2603  0.4191
 5840TIP3    H117473   2.104   2.710   4.691 -1.7631  1.8363 -0.0141
 5840TIP3    H217474   2.008   2.725   4.807  0.6565 -0.1129  2.3213
 5841TIP3   OH217475   2.360   3.378   5.771 -0.3195  0.6488 -0.1705
 5841TIP3    H117476   2.376   3.303   5.713 -1.0798  0.7947 -0.5739
 5841TIP3    H217477   2.288   3.426   5.730 -0.0498  1.4314  0.2544
 5842TIP3   OH217478   4.635   5.773   1.511 -0.2086 -0.2297 -0.1526
 5842TIP3    H117479   4.653   5.756   1.418 -0.9930  0.1097 -0.3711
 5842TIP3    H217480   4.721   5.769   1.553  0.0585 -1.1446 -0.7703
 5843TIP3   OH217481   4.137   0.999   2.757  0.4173  0.6081  0.5869
 5843TIP3    H117482   4.121   1.093   2.752  0.8781  0.7453  1.5510
 5843TIP3    H217483   4.212   0.985   2.699  0.0989  0.7688  0.1325
 5844TIP3   OH217484   2.633   0.734   5.022 -0.5217  0.1884 -0.7808
 5844TIP3    H117485   2.668   0.694   5.102 -2.1355  1.2904  0.5142
 5844TIP3    H217486   2.689   0.811   5.008 -1.1250  0.8055  0.1282
 5845TIP3   OH217487   3.357   2.694   5.376 -0.0688 -0.3991 -0.2240
 5845TIP3    H117488   3.290   2.717   5.312  1.0691  0.6919 -1.0479
 5845TIP3    H217489   3.368   2.774   5.429 -2.6399 -1.9708  2.8631
 5846TIP3   OH217490   0.499   1.598   3.777 -0.2336 -0.0368 -0.4666
 5846TIP3    H117491   0.470   1.550   3.699  0.4111  0.9025 -1.2940
 5846TIP3    H217492   0.490   1.690   3.752 -0.6184  0.2716  0.7971
 5847TIP3   OH217493   2.603   1.481   6.079 -0.2016 -0.3393  0.1783
 5847TIP3    H117494   2.688   1.526   6.080 -0.1783 -0.3572 -0.6295
 5847TIP3    H217495   2.626   1.388   6.086 -0.0964 -0.4159 -1.1587
 5848TIP3   OH217496   2.361   2.279   3.355  0.1037 -0.0741  0.4904
 5848TIP3    H117497   2.364   2.345   3.424 -1.2658 -0.2850  0.7625
 5848TIP3    H217498   2.274   2.240   3.362  0.1766 -0.5316 -0.9572
 5849TIP3   OH217499   4.661   5.054   3.349 -0.0484 -0.6105 -0.4153
 5849TIP3    H117500   4.688   5.146   3.346 -0.6337 -0.4172  0.1614
 5849TIP3    H217501   4.712   5.012   3.280  0.1323  0.1726 -0.7653
 5850TIP3   OH217502   3.244   5.343   0.418  0.1208 -0.0220 -0.1558
 5850TIP3    H117503   3.149   5.342   0.414  0.1104  1.6393 -0.5133
 5850TIP3    H217504   3.266   5.418   0.473  1.2097 -0.6577  0.2939
 5851TIP3   OH217505   2.287   1.368   5.520  0.2418 -0.3689 -0.6009
 5851TIP3    H117506   2.196   1.356   5.494  0.9308 -0.2780 -3.1261
 5851TIP3    H217507   2.284   1.434   5.589 -1.7704 -1.7699  0.7374
 5852TIP3   OH217508   5.827   3.735   4.608 -0.4608  0.1414  0.8125
 5852TIP3    H117509   5.806   3.818   4.650 -2.1732 -0.6563  1.5490
 5852TIP3    H217510   5.790   3.668   4.665 -1.1356 -1.0390 -0.9503
 5853TIP3   OH217511   4.782   0.725   5.859 -0.3156 -0.2185  0.1128
 5853TIP3    H117512   4.695   0.685   5.856 -0.5265  0.3459 -2.7391
 5853TIP3    H217513   4.840   0.653   5.885 -1.2818 -1.2980 -0.6374
 5854TIP3   OH217514   4.022   3.560   3.819  0.5255  0.0915  0.4493
 5854TIP3    H117515   3.991   3.470   3.827  0.7126 -0.0049  0.1255
 5854TIP3    H217516   3.961   3.602   3.759  0.5848  0.1074  0.3990
 5855TIP3   OH217517   4.809   5.494   0.630  0.4354  0.7169 -0.1044
 5855TIP3    H117518   4.823   5.561   0.698  1.2964  2.0800 -1.5730
 5855TIP3    H217519   4.715   5.500   0.610 -0.0606 -0.4875  1.7393
 5856TIP3   OH217520   1.202   2.329   4.331 -0.5066  0.0555  0.0897
 5856TIP3    H117521   1.271   2.395   4.342 -0.4123 -0.0988  0.4141
 5856TIP3    H217522   1.198   2.284   4.415 -1.0384  0.0975  0.0896
 5857TIP3   OH217523   1.916   3.495   4.916 -0.1748 -0.1944 -0.4748
 5857TIP3    H117524   1.895   3.432   4.847 -1.3636  2.0245 -2.1994
 5857TIP3    H217525   2.010   3.510   4.907  0.0886 -1.5720 -0.1603
 5858TIP3   OH217526   3.180   2.546   5.091  0.0052 -0.1314 -0.6586
 5858TIP3    H117527   3.204   2.529   5.000 -1.6168 -1.0357 -0.9245
 5858TIP3    H217528   3.217   2.632   5.110  1.5179 -0.5310 -1.7474
 5859TIP3   OH217529   3.901   2.664   4.453 -0.3313 -0.3528 -0.5080
 5859TIP3    H117530   3.990   2.643   4.480 -0.5099 -1.6137 -0.8267
 5859TIP3    H217531   3.846   2.635   4.525 -0.6940 -2.3581 -1.5437
 5860TIP3   OH217532   0.679   3.438   4.916  0.1327 -0.0139 -0.0382
 5860TIP3    H117533   0.694   3.519   4.867 -0.9453 -0.3009 -0.8701
 5860TIP3    H217534   0.640   3.467   4.998 -0.9668  0.2841 -0.6471
 5861TIP3   OH217535   3.751   3.786   2.519  0.1221 -0.0226 -0.1579
 5861TIP3    H117536   3.793   3.837   2.588 -1.8738  0.5772  0.6351
 5861TIP3    H217537   3.736   3.700   2.558  0.9573 -0.3744 -0.5837
 5862TIP3   OH217538   1.881   4.578   3.892 -0.4114 -0.4551 -0.2244
 5862TIP3    H117539   1.860   4.513   3.825 -1.0357  0.2229 -0.6986
 5862TIP3    H217540   1.950   4.632   3.853 -0.8128 -0.0257 -0.3562
 5863TIP3   OH217541   3.179   2.920   4.368 -0.4252 -0.3089  0.5579
 5863TIP3    H117542   3.264   2.896   4.331 -0.8031 -0.1665 -0.4374
 5863TIP3    H217543   3.154   2.999   4.320 -1.3860 -0.6848  0.4317
 5864TIP3   OH217544   4.148   3.645   3.489 -0.1096 -0.2737 -0.1326
 5864TIP3    H117545   4.061   3.610   3.507 -0.3492 -0.2392 -1.1709
 5864TIP3    H217546   4.132   3.728   3.445  0.4341 -1.0149 -1.7655
 5865TIP3   OH217547   7.127   6.427   1.040  0.1533  0.3701 -0.3483
 5865TIP3    H117548   7.157   6.462   0.956  0.5702  0.6346 -0.0879
 5865TIP3    H217549   7.178   6.474   1.106 -0.0150  0.0050  0.0456
 5866TIP3   OH217550   3.087   2.870   6.160 -0.2390 -0.1896 -0.2846
 5866TIP3    H117551   3.081   2.824   6.243  1.5285 -0.3611 -0.2317
 5866TIP3    H217552   3.125   2.806   6.100 -2.3224 -0.3648 -1.4813
 5867TIP3   OH217553   3.754   1.210   5.189  0.3608  0.3597 -0.2587
 5867TIP3    H117554   3.843   1.175   5.185  0.6624  1.2027 -1.2146
 5867TIP3    H217555   3.703   1.151   5.134  0.3657 -0.0114  0.1329
 5868TIP3   OH217556   3.171   3.277   2.161 -0.5362 -0.1914 -0.7741
 5868TIP3    H117557   3.095   3.334   2.174 -1.6043 -1.7545 -0.0148
 5868TIP3    H217558   3.237   3.311   2.221 -0.3465  1.6769 -2.0248
 5869TIP3   OH217559   3.953   3.549   3.166  0.0979 -0.0682  0.0393
 5869TIP3    H117560   3.897   3.593   3.103  0.0386  1.4338  1.1156
 5869TIP3    H217561   4.020   3.505   3.113 -0.8380 -0.0881 -1.1231
 5870TIP3   OH217562   2.146   2.534   4.079  0.6624  0.2988 -0.8808
 5870TIP3    H117563   2.097   2.612   4.105  1.7728  1.3306 -1.7735
 5870TIP3    H217564   2.122   2.467   4.143  0.4190  1.6523  0.4603
 5871TIP3   OH217565   1.977   1.404   4.926 -0.2277 -0.2346  0.3124
 5871TIP3    H117566   1.925   1.450   4.860  0.9122 -0.7453 -0.9792
 5871TIP3    H217567   1.960   1.311   4.909  2.0607 -0.4680 -0.9841
 5872TIP3   OH217568   2.889   0.760   5.735 -0.0153  0.0218 -0.2084
 5872TIP3    H117569   2.803   0.787   5.703  0.2851  0.8553 -0.3109
 5872TIP3    H217570   2.950   0.825   5.701  0.6459 -0.4911 -0.0276
 5873TIP3   OH217571   4.164   6.164   1.683  0.6814 -0.5075 -0.5436
 5873TIP3    H117572   4.114   6.217   1.620  1.7178  1.1330 -0.0026
 5873TIP3    H217573   4.099   6.138   1.748  0.2564  0.5283 -0.5368
 5874TIP3   OH217574   2.097   1.877   5.209 -0.1359 -0.1688 -0.0368
 5874TIP3    H117575   2.144   1.926   5.141 -0.7350  0.7450  0.1871
 5874TIP3    H217576   2.165   1.852   5.272 -0.0225  1.8636  0.7183
 5875TIP3   OH217577   6.472   6.364   0.692 -0.5044 -0.6494  0.2338
 5875TIP3    H117578   6.554   6.321   0.717  0.9854  2.1574  0.3450
 5875TIP3    H217579   6.431   6.303   0.630  2.4802 -1.3670 -1.1214
 5876TIP3   OH217580   2.815   3.805   5.473  0.4055 -0.3568  0.3280
 5876TIP3    H117581   2.810   3.725   5.525  1.7676 -0.5266  0.2036
 5876TIP3    H217582   2.769   3.871   5.526 -2.0462 -1.5497 -0.2467
 5877TIP3   OH217583   4.134   2.167   6.363 -0.7406 -0.4901 -0.1474
 5877TIP3    H117584   4.208   2.154   6.422 -0.9781 -2.2156 -0.1981
 5877TIP3    H217585   4.161   2.238   6.305  0.1091  0.1712  1.0495
 5878TIP3   OH217586   2.220   0.681   2.942  0.1173 -0.1543 -0.0447
 5878TIP3    H117587   2.310   0.709   2.956 -0.0612  1.2112 -1.4807
 5878TIP3    H217588   2.174   0.760   2.915 -1.6148 -0.7505  1.0689
 5879TIP3   OH217589   2.843   1.126   4.471 -0.4196 -0.0784  0.0790
 5879TIP3    H117590   2.776   1.162   4.413 -0.3506  0.9334  0.6177
 5879TIP3    H217591   2.906   1.197   4.483  0.0400 -0.5755  0.6747
 5880TIP3   OH217592   1.485   2.109   4.505  0.0426  0.4792  0.4683
 5880TIP3    H117593   1.530   2.191   4.524  0.2457  0.6639 -0.7972
 5880TIP3    H217594   1.435   2.126   4.425  2.2638 -1.4385 -1.4104
 5881TIP3   OH217595   2.566   1.748   5.890 -0.1652  0.3306  0.5411
 5881TIP3    H117596   2.511   1.797   5.829 -0.9311 -0.1897  0.8142
 5881TIP3    H217597   2.506   1.716   5.957  0.3071 -1.1458  0.2761
 5882TIP3   OH217598   1.434   1.321   4.301 -0.0786  0.5128 -0.1369
 5882TIP3    H117599   1.456   1.312   4.209  1.1030 -1.1299  0.2791
 5882TIP3    H217600   1.339   1.313   4.304 -0.0160 -0.7154 -1.0795
 5883TIP3   OH217601   3.205   3.280   3.208 -0.3007  0.0514  0.5748
 5883TIP3    H117602   3.218   3.270   3.302 -2.2352 -1.2193  0.7431
 5883TIP3    H217603   3.220   3.193   3.172  0.2631  0.4924 -0.2773
 5884TIP3   OH217604   3.733   5.086   0.270  0.5003  0.2247 -0.1006
 5884TIP3    H117605   3.680   5.076   0.349 -0.3181  0.2909 -0.6343
 5884TIP3    H217606   3.688   5.034   0.204  1.0476  0.3655 -0.5922
 5885TIP3   OH217607   1.801   2.824   5.124  0.2817  0.1653 -0.0363
 5885TIP3    H117608   1.771   2.842   5.035  0.9741 -1.9693 -0.7335
 5885TIP3    H217609   1.860   2.749   5.115 -1.6590 -1.7861  2.5096
 5886TIP3   OH217610   2.347   3.293   5.049  0.7946 -0.0432  0.3515
 5886TIP3    H117611   2.273   3.276   4.991 -0.7371  1.3434  1.8185
 5886TIP3    H217612   2.419   3.315   4.990 -0.4697  0.4319 -1.0598
 5887TIP3   OH217613   2.236   2.121   5.737 -0.3515 -0.0175 -0.6978
 5887TIP3    H117614   2.294   2.160   5.802 -0.9247 -1.3374  0.6374
 5887TIP3    H217615   2.213   2.193   5.679 -0.7000  1.4369  1.1969
 5888TIP3   OH217616   4.847   4.351   2.986 -0.3993 -0.5823  0.2532
 5888TIP3    H117617   4.843   4.345   3.081  0.5868  1.5729  0.4685
 5888TIP3    H217618   4.765   4.393   2.961 -0.3592 -0.5289  0.2140
 5889TIP3   OH217619   3.750   1.888   5.800 -0.7133  0.8197 -0.2598
 5889TIP3    H117620   3.795   1.824   5.745  0.1611  1.1973 -0.0010
 5889TIP3    H217621   3.681   1.838   5.844 -0.5367  0.2249 -0.6528
 5890TIP3   OH217622   2.695   2.740   4.643 -0.1732 -0.1824  0.0015
 5890TIP3    H117623   2.604   2.770   4.638 -0.1328 -0.0890 -0.1809
 5890TIP3    H217624   2.725   2.770   4.729 -0.0478  0.5568 -0.2932
 5891TIP3   OH217625   1.171   1.647   6.422  0.1208  0.0865 -0.1046
 5891TIP3    H117626   1.235   1.695   6.369 -1.6614  1.5673 -0.9704
 5891TIP3    H217627   1.092   1.647   6.370 -0.8198 -1.0422  1.2946
 5892TIP3   OH217628   2.822   4.203   2.274  0.1781 -0.3708 -0.4102
 5892TIP3    H117629   2.787   4.118   2.247  0.5166 -0.3062 -1.0729
 5892TIP3    H217630   2.834   4.251   2.192  1.7363 -0.3635 -0.1932
 5893TIP3   OH217631   1.949   1.189   5.913 -0.1588  0.2699 -0.1396
 5893TIP3    H117632   2.016   1.252   5.884 -0.6539  0.6420 -0.4786
 5893TIP3    H217633   1.999   1.122   5.961  0.5237  0.2613 -0.8496
 5894TIP3   OH217634   1.010   4.645   4.143 -0.0344  0.0665 -0.8046
 5894TIP3    H117635   1.059   4.564   4.160  0.2701  0.2309 -0.9155
 5894TIP3    H217636   0.919   4.615   4.134  0.1803 -0.3555 -1.6037
 5895TIP3   OH217637   3.643   2.741   4.640 -0.4010 -0.4290 -0.3224
 5895TIP3    H117638   3.584   2.718   4.711  0.6452  2.3590  1.5251
 5895TIP3    H217639   3.711   2.673   4.642 -0.4731 -0.4700  1.2657
 5896TIP3   OH217640   1.001   1.079   5.205 -0.0268 -0.4105 -0.0771
 5896TIP3    H117641   1.048   0.997   5.188  0.8372  0.2063 -0.6962
 5896TIP3    H217642   0.911   1.062   5.174  0.3448 -0.8671 -0.9303
 5897TIP3   OH217643   0.363   1.686   5.493  0.0184 -0.2290 -0.1944
 5897TIP3    H117644   0.427   1.626   5.530  1.6033  1.7192  0.3247
 5897TIP3    H217645   0.365   1.762   5.551  0.4148  1.6654 -2.5982
 5898TIP3   OH217646   5.303   5.448   0.397 -0.2793  0.4980 -0.4198
 5898TIP3    H117647   5.350   5.401   0.465  1.4170  2.0142 -0.5084
 5898TIP3    H217648   5.213   5.456   0.430 -0.5237 -2.4541 -0.2687
 5899TIP3   OH217649   2.566   2.057   3.400 -0.0908 -0.0832 -0.3324
 5899TIP3    H117650   2.481   2.098   3.388 -1.5266 -2.8551  0.0098
 5899TIP3    H217651   2.584   2.015   3.316  0.5572 -0.1967 -0.1379
 5900TIP3   OH217652   3.094   3.903   5.593 -0.5779  0.0005  0.4561
 5900TIP3    H117653   3.035   3.978   5.602 -0.1057  0.5180 -0.6613
 5900TIP3    H217654   3.087   3.878   5.501 -0.2398 -0.9193  0.6814
 5901TIP3   OH217655   1.907   2.352   3.248  0.1911  0.0488  0.9532
 5901TIP3    H117656   1.851   2.275   3.243 -0.9634  0.8951  0.6475
 5901TIP3    H217657   1.877   2.408   3.176  0.0753  1.3988  2.0179
 5902TIP3   OH217658   4.962   1.668   6.166  0.0280  0.0560 -0.7074
 5902TIP3    H117659   4.941   1.625   6.084 -1.2242 -0.2398 -0.2370
 5902TIP3    H217660   5.058   1.677   6.164  0.1658 -1.4157 -1.4488
 5903TIP3   OH217661   3.635   2.993   5.842  0.2300 -0.3943 -0.1047
 5903TIP3    H117662   3.581   3.027   5.770 -0.9377 -1.8105  0.0772
 5903TIP3    H217663   3.573   2.950   5.900  1.1980  0.5885  1.6724
 5904TIP3   OH217664   2.971   4.397   5.555  0.4612  0.2232  0.7802
 5904TIP3    H117665   3.046   4.417   5.499 -1.3925 -1.7220 -2.5861
 5904TIP3    H217666   2.908   4.466   5.536  0.4872  0.5373  1.8286
 5905TIP3   OH217667   4.499   0.712   6.137 -0.2167 -0.7405 -0.0612
 5905TIP3    H117668   4.503   0.643   6.203  1.4160 -1.9389 -1.3780
 5905TIP3    H217669   4.564   0.776   6.166  0.2509 -1.0966 -0.3264
 5906TIP3   OH217670   5.139   4.371   6.368 -0.3431  0.0682 -0.6875
 5906TIP3    H117671   5.168   4.347   6.456 -1.1674 -1.0735 -0.7153
 5906TIP3    H217672   5.202   4.438   6.340 -0.6707  1.1708  1.1428
 5907TIP3   OH217673   2.117   2.385   5.957 -0.4474  0.5743 -0.0236
 5907TIP3    H117674   2.193   2.343   5.917 -1.9960 -0.0369 -2.3933
 5907TIP3    H217675   2.072   2.313   6.002 -0.0477  0.7940  0.7368
 5908TIP3   OH217676   0.869   6.208   6.097  0.1535 -0.3668  0.0928
 5908TIP3    H117677   0.950   6.259   6.095  1.0207 -1.7890 -1.8828
 5908TIP3    H217678   0.821   6.236   6.019 -0.5332 -0.7435  0.3719
 5909TIP3   OH217679   3.998   5.721   1.141  0.6095 -0.2267  0.0450
 5909TIP3    H117680   3.907   5.725   1.111  0.8324 -0.0971 -0.6225
 5909TIP3    H217681   4.016   5.628   1.154  0.7467 -0.3534 -0.9777
 5910TIP3   OH217682   3.476   2.631   5.906 -0.0940  0.0113 -0.1063
 5910TIP3    H117683   3.413   2.561   5.924  1.9758 -2.3483 -1.7597
 5910TIP3    H217684   3.514   2.608   5.821  4.2038  0.4435  1.5843
 5911TIP3   OH217685   5.644   4.624   1.711 -0.4351  0.0424 -0.1772
 5911TIP3    H117686   5.663   4.717   1.727 -2.7481  0.6382 -0.7086
 5911TIP3    H217687   5.636   4.586   1.798  2.0009 -0.0124  0.0621
 5912TIP3   OH217688   2.257   0.740   4.157 -0.0165  0.2099 -0.1332
 5912TIP3    H117689   2.250   0.747   4.252 -1.2776 -0.1548 -0.1808
 5912TIP3    H217690   2.166   0.727   4.128  0.4621 -0.6141 -1.2975
 5913TIP3   OH217691   6.545   3.656   0.269  0.7387  0.4051 -0.2236
 5913TIP3    H117692   6.636   3.685   0.274  1.2594 -1.1621 -0.0563
 5913TIP3    H217693   6.544   3.574   0.319 -0.7446  0.3690 -0.3003
 5914TIP3   OH217694   5.092   7.013   0.249  0.4959  0.1540  0.3252
 5914TIP3    H117695   5.073   6.983   0.337 -3.0098 -0.1665 -0.4755
 5914TIP3    H217696   5.100   6.933   0.197  1.1000  0.3745  0.0698
 5915TIP3   OH217697   1.006   1.555   0.234 -0.0115 -0.6861 -0.3315
 5915TIP3    H117698   0.946   1.495   0.279 -0.0146 -0.1585  0.3897
 5915TIP3    H217699   1.092   1.514   0.243 -0.2182 -1.2752 -1.0661
 5916TIP3   OH217700   7.752   2.853   5.051  0.4786  0.1616 -0.0170
 5916TIP3    H117701   7.803   2.789   5.102  1.4091  1.2312  0.4107
 5916TIP3    H217702   7.684   2.801   5.009  1.6032 -1.2131 -0.1630
 5917TIP3   OH217703   4.057   2.442   5.350 -0.4091  0.1577  0.7629
 5917TIP3    H117704   4.030   2.370   5.407 -2.7699  0.4726  0.1134
 5917TIP3    H217705   4.151   2.429   5.336 -1.0295 -3.5815 -0.4383
 5918TIP3   OH217706   1.161   0.849   5.175 -0.0809  0.0546 -0.7516
 5918TIP3    H117707   1.122   0.775   5.222  1.5346 -0.2184  0.1935
 5918TIP3    H217708   1.228   0.809   5.119  1.0881  0.8098  0.0698
 5919TIP3   OH217709   2.488   4.251   5.437  0.0029  0.0063 -0.1949
 5919TIP3    H117710   2.394   4.255   5.455 -0.2752 -1.3019 -1.2799
 5919TIP3    H217711   2.525   4.322   5.489 -1.4996  0.0969  0.7979
 5920TIP3   OH217712   3.567   2.231   4.093  0.1965 -0.3093  0.4874
 5920TIP3    H117713   3.570   2.193   4.005  0.0111 -2.1001  1.2203
 5920TIP3    H217714   3.475   2.227   4.118  0.0119  1.6370  0.1731
 5921TIP3   OH217715   3.528   3.106   4.440 -0.2669 -0.1879  1.0173
 5921TIP3    H117716   3.524   3.096   4.345  0.7705  1.9248  0.7242
 5921TIP3    H217717   3.585   3.035   4.469 -0.8118 -1.0125  0.0894
 5922TIP3   OH217718   2.874   3.629   3.075  0.2185  0.1001  0.4428
 5922TIP3    H117719   2.909   3.542   3.091  1.2496  0.5033  0.3624
 5922TIP3    H217720   2.950   3.687   3.075  0.1281  0.3710 -4.1499
 5923TIP3   OH217721   4.877   1.832   4.118 -0.1012  0.5262  0.0464
 5923TIP3    H117722   4.868   1.925   4.101 -0.7668  0.3250 -0.7449
 5923TIP3    H217723   4.964   1.822   4.156 -0.8137  1.7472  2.0887
 5924TIP3   OH217724   2.816   1.990   4.829  0.3654 -0.5788  0.4166
 5924TIP3    H117725   2.908   2.003   4.852 -0.1618 -0.0849  2.2720
 5924TIP3    H217726   2.818   1.975   4.734  2.4734 -1.6810  0.5905
 5925TIP3   OH217727   3.776   4.157   5.112 -0.3672 -0.5565 -0.1702
 5925TIP3    H117728   3.765   4.154   5.017 -1.5648 -0.7351 -0.0341
 5925TIP3    H217729   3.848   4.219   5.126 -0.8504  0.2361 -1.1491
 5926TIP3   OH217730   3.782   2.264   3.440  0.2900 -0.2129 -0.0045
 5926TIP3    H117731   3.831   2.336   3.480 -0.3469  0.2394 -0.0293
 5926TIP3    H217732   3.703   2.255   3.495 -0.3481  0.0829 -0.8583
 5927TIP3   OH217733   2.365   0.989   4.932  0.3905 -0.4246 -0.0591
 5927TIP3    H117734   2.377   1.000   5.026  0.5840 -0.2154 -0.1083
 5927TIP3    H217735   2.434   1.042   4.893 -0.6753  0.7940 -0.3478
 5928TIP3   OH217736  -0.009   2.302   2.320  0.9057  0.2852  0.0136
 5928TIP3    H117737   0.063   2.297   2.383  1.5802  0.5574 -0.7349
 5928TIP3    H217738  -0.012   2.215   2.280  1.3198  0.5113 -0.5092
 5929TIP3   OH217739   0.765   3.969   5.909  0.1933 -0.4281 -0.3047
 5929TIP3    H117740   0.766   3.995   6.001 -2.3765  0.2137 -0.4198
 5929TIP3    H217741   0.775   3.874   5.911 -1.3814 -0.5980  0.7540
 5930TIP3   OH217742   4.759   3.799   3.340 -0.5742  0.3179 -0.5218
 5930TIP3    H117743   4.689   3.737   3.317 -0.9130  1.0403 -1.4575
 5930TIP3    H217744   4.713   3.874   3.377 -0.2560  0.5453 -0.5873
 5931TIP3   OH217745   6.053   4.450   0.037  0.0517  0.1616 -0.7727
 5931TIP3    H117746   6.147   4.432   0.029  0.2973  0.1413  1.8642
 5931TIP3    H217747   6.034   4.508  -0.037  2.0053 -0.2990 -1.6749
 5932TIP3   OH217748   2.046   2.572   5.496 -0.7159 -0.4199 -0.1905
 5932TIP3    H117749   2.008   2.656   5.474  0.0238 -0.2542 -0.8780
 5932TIP3    H217750   1.989   2.535   5.563 -0.6075  0.9660  0.6694
 5933TIP3   OH217751   6.867   5.633   0.123 -0.2886 -0.2365  0.4040
 5933TIP3    H117752   6.779   5.665   0.144 -0.4008 -0.6141  0.4961
 5933TIP3    H217753   6.924   5.679   0.185 -0.2042  1.4255 -0.8755
 5934TIP3   OH217754   3.674   1.963   4.163 -0.5990  0.5401  0.6045
 5934TIP3    H117755   3.635   2.048   4.141 -0.3123  0.1520 -1.4726
 5934TIP3    H217756   3.601   1.901   4.157 -0.5303  0.4383  0.8163
 5935TIP3   OH217757   2.925   3.090   5.116 -0.2127  0.4564 -0.7132
 5935TIP3    H117758   2.965   3.158   5.061  0.5856 -0.7102 -1.6052
 5935TIP3    H217759   2.951   3.008   5.074 -0.7753 -0.4110  0.6262
 5936TIP3   OH217760   6.291   4.315   0.011  0.2603  0.1699 -0.0155
 5936TIP3    H117761   6.371   4.298  -0.038 -0.1169 -2.1472  0.1164
 5936TIP3    H217762   6.303   4.268   0.094  0.0541  2.3803  1.3130
 5937TIP3   OH217763   2.914   2.536   4.362  0.0556 -0.5379 -0.4302
 5937TIP3    H117764   2.945   2.574   4.445  0.1505  1.0287 -1.1750
 5937TIP3    H217765   2.861   2.605   4.323  0.7340 -0.9585 -2.0997
 5938TIP3   OH217766   3.772   2.133   4.634  0.5371  0.4462 -0.1469
 5938TIP3    H117767   3.713   2.205   4.656  0.4679  0.1766  0.5525
 5938TIP3    H217768   3.838   2.133   4.703  1.0001  0.3482 -0.5846
 5939TIP3   OH217769   3.378   5.528   0.061  0.9444  0.0491 -0.0735
 5939TIP3    H117770   3.375   5.555  -0.031  1.4270 -0.0132 -0.1089
 5939TIP3    H217771   3.336   5.599   0.108  0.5038 -0.0145 -0.3625
 5940TIP3   OH217772   2.139   2.051   4.193  0.4293  0.3662 -0.3797
 5940TIP3    H117773   2.142   2.112   4.119  0.7504  0.3370 -0.3919
 5940TIP3    H217774   2.078   1.982   4.164 -0.0557  0.7614 -0.3015
 5941TIP3   OH217775   2.950   0.533   5.433 -0.1237 -0.2876  0.0230
 5941TIP3    H117776   2.974   0.610   5.485 -1.5561  0.9325 -1.0891
 5941TIP3    H217777   3.012   0.533   5.361  1.2824 -1.4621  1.1918
 5942TIP3   OH217778   4.202   0.763   3.901  0.0992 -0.2323  0.5096
 5942TIP3    H117779   4.263   0.832   3.873  0.0830 -0.4707 -0.1193
 5942TIP3    H217780   4.141   0.754   3.828  1.4266 -2.4715 -0.3834
 5943TIP3   OH217781   6.904   6.803   4.286  0.3147 -0.1690 -0.0295
 5943TIP3    H117782   6.927   6.715   4.317  1.3926  0.0457 -0.1905
 5943TIP3    H217783   6.814   6.795   4.254 -0.3040 -0.7482  1.7838
 5944TIP3   OH217784   3.050   4.600   4.753  0.4558 -0.5066  0.1276
 5944TIP3    H117785   3.051   4.520   4.805  0.0842 -1.1960 -0.8913
 5944TIP3    H217786   2.975   4.589   4.694 -0.5798  1.3035  1.0488
 5945TIP3   OH217787   3.281   3.411   4.846  0.4995 -0.1591 -0.5028
 5945TIP3    H117788   3.339   3.487   4.837 -0.3210  0.4685 -0.5255
 5945TIP3    H217789   3.322   3.357   4.914  0.4614  0.8732  0.3359
 5946TIP3   OH217790   5.123   7.291   0.204  0.2984 -0.0734  0.3470
 5946TIP3    H117791   5.054   7.329   0.258  0.1982  0.3467 -0.0718
 5946TIP3    H217792   5.115   7.197   0.216  0.0551  0.0064  0.7964
 5947TIP3   OH217793   2.798   3.566   5.298 -0.1886 -0.2981  0.2359
 5947TIP3    H117794   2.749   3.518   5.366  0.9031 -0.4461  0.9307
 5947TIP3    H217795   2.785   3.658   5.320  1.2278 -0.3692  1.4203
 5948TIP3   OH217796   4.047   3.787   5.174  0.2707  0.0676  0.2147
 5948TIP3    H117797   4.114   3.719   5.186 -0.7844 -0.5759  2.6581
 5948TIP3    H217798   4.092   3.869   5.195  1.0554 -0.0217 -1.0103
 5949TIP3   OH217799   4.375   5.488   5.219  0.1683 -0.0730 -0.2780
 5949TIP3    H117800   4.391   5.394   5.227  1.5545  0.1437 -0.3972
 5949TIP3    H217801   4.283   5.499   5.243  0.3648 -1.2817  1.0853
 5950TIP3   OH217802   3.951   1.812   5.603 -0.5379 -0.1211  0.5604
 5950TIP3    H117803   3.901   1.740   5.564 -1.5143  2.2287 -2.7163
 5950TIP3    H217804   4.037   1.774   5.620 -0.6743 -1.7782 -2.1374
 5951TIP3   OH217805   5.475   1.569   0.267 -0.7077  0.6565 -0.2902
 5951TIP3    H117806   5.527   1.568   0.347 -0.2993 -0.3528 -0.5521
 5951TIP3    H217807   5.443   1.479   0.259 -0.7665  0.7606 -1.2441
 5952TIP3   OH217808   5.078   6.096   0.542 -0.5397  0.4698 -0.5321
 5952TIP3    H117809   5.084   6.020   0.600 -0.1087  1.3751  0.6257
 5952TIP3    H217810   4.991   6.089   0.502 -0.0884 -1.2120 -1.2530
 5953TIP3   OH217811   3.895   5.088   6.173  0.2871 -0.0568  0.0764
 5953TIP3    H117812   3.950   5.021   6.132 -0.7346 -1.3582  0.8191
 5953TIP3    H217813   3.844   5.041   6.238 -0.0172  1.5531  1.0288
 5954TIP3   OH217814   3.244   3.194   4.245  0.1982  0.0141  0.1869
 5954TIP3    H117815   3.202   3.262   4.298 -1.0638 -0.1160 -0.6404
 5954TIP3    H217816   3.299   3.242   4.184  0.0965  0.2521  0.2809
 5955TIP3   OH217817   2.575   2.361   4.226  0.0423  0.5661  0.0276
 5955TIP3    H117818   2.596   2.389   4.315 -1.1953  0.6399  0.3011
 5955TIP3    H217819   2.524   2.433   4.190  0.2432  0.3818 -0.6272
 5956TIP3   OH217820   3.933   3.661   0.148 -0.0007 -0.2196 -0.1200
 5956TIP3    H117821   3.937   3.750   0.184 -1.2914  0.4288 -1.5060
 5956TIP3    H217822   3.853   3.660   0.095  1.3551 -1.3844 -2.2379
 5957TIP3   OH217823   1.269   2.547   6.261 -0.2543  0.1820 -0.6299
 5957TIP3    H117824   1.295   2.634   6.231 -0.3778  0.2292 -0.6014
 5957TIP3    H217825   1.351   2.505   6.289 -0.1340  0.1208 -1.0769
 5958TIP3   OH217826   2.897   4.386   4.892 -0.1490  0.6463  0.1305
 5958TIP3    H117827   2.848   4.305   4.884 -0.7256  0.7891  1.9975
 5958TIP3    H217828   2.984   4.359   4.922 -0.1211  0.6738  0.0755
 5959TIP3   OH217829   3.855   2.609   6.159 -0.0049  0.6633  0.0214
 5959TIP3    H117830   3.873   2.590   6.251  0.4273 -0.0272 -0.2023
 5959TIP3    H217831   3.780   2.668   6.161 -1.1893 -0.8423  0.7518
 5960TIP3   OH217832   6.102   4.923   0.307  0.6535 -0.4680 -0.0585
 5960TIP3    H117833   6.048   4.966   0.241  0.5357  0.8726  0.8905
 5960TIP3    H217834   6.110   4.833   0.276 -0.2678 -0.1238 -1.3549
 5961TIP3   OH217835   1.810   3.642   5.141  0.5029  0.0279 -0.0645
 5961TIP3    H117836   1.899   3.629   5.175 -0.4830 -1.8300  1.9592
 5961TIP3    H217837   1.811   3.599   5.056  0.7523 -2.7408  1.2588
 5962TIP3   OH217838   1.516   2.365   3.723  0.9033  0.0860  0.2664
 5962TIP3    H117839   1.513   2.280   3.767  0.2001 -0.2006 -0.3202
 5962TIP3    H217840   1.570   2.350   3.645  0.7637  0.1657  0.1528
 5963TIP3   OH217841   2.524   0.469   4.412 -0.2180  0.1117  0.1885
 5963TIP3    H117842   2.549   0.561   4.404  1.2536 -0.0391  2.4955
 5963TIP3    H217843   2.441   0.470   4.459  1.0077  0.1839  2.3861
 5964TIP3   OH217844   3.092   0.715   6.169  0.1720 -0.6924 -0.1761
 5964TIP3    H117845   3.003   0.686   6.191 -0.4595  1.4574  0.3061
 5964TIP3    H217846   3.147   0.682   6.240 -0.7905  0.6748  1.2422
 5965TIP3   OH217847   2.488  -0.025   4.468  0.4198  0.3876 -0.0136
 5965TIP3    H117848   2.512   0.060   4.431  0.4800  0.9839  1.3615
 5965TIP3    H217849   2.399  -0.013   4.502  0.5680  0.0232  0.5195
 5966TIP3   OH217850   6.409   6.925   3.593  0.1075  0.5505 -0.5008
 5966TIP3    H117851   6.470   6.996   3.612 -0.9854  1.5535 -0.6685
 5966TIP3    H217852   6.382   6.940   3.502 -0.3089  0.0509 -0.4639
 5967TIP3   OH217853   1.581   3.589   5.332  0.8358  0.5861 -0.3229
 5967TIP3    H117854   1.677   3.591   5.339  0.7445 -0.0665  1.3175
 5967TIP3    H217855   1.564   3.544   5.249  1.9432 -1.9854  0.7736
 5968TIP3   OH217856   2.416   1.883   5.709  0.0239  0.5153  0.6459
 5968TIP3    H117857   2.368   1.966   5.711 -1.2541 -0.2222  1.5780
 5968TIP3    H217858   2.436   1.868   5.617  0.6959  2.0841  0.5151
 5969TIP3   OH217859   0.459   0.463   3.986  0.0734  0.0478 -0.1524
 5969TIP3    H117860   0.457   0.556   3.961 -0.0229 -0.2054 -1.1232
 5969TIP3    H217861   0.527   0.426   3.929  1.8396 -0.0015  1.9204
 5970TIP3   OH217862   2.418   2.438   2.507 -0.0467 -0.0332  0.6928
 5970TIP3    H117863   2.450   2.348   2.503  0.0271 -0.0122  0.8156
 5970TIP3    H217864   2.323   2.429   2.521 -0.0974 -0.0957  0.3073
 5971TIP3   OH217865   2.970   2.449   2.089  0.6805 -0.2864  0.2138
 5971TIP3    H117866   2.954   2.457   1.995  2.4415  1.8541  0.0345
 5971TIP3    H217867   2.913   2.515   2.129  2.3871  1.2052  0.3015
 5972TIP3   OH217868   5.795   7.351   5.924  0.4962 -0.7374 -0.4514
 5972TIP3    H117869   5.748   7.270   5.943 -0.3349 -0.4065 -1.0542
 5972TIP3    H217870   5.872   7.349   5.981 -0.7522 -0.8231  1.2694
 5973TIP3   OH217871   2.695   2.805   4.974 -0.5581 -0.1683  0.1615
 5973TIP3    H117872   2.687   2.722   4.926  0.3645  0.2290 -0.7041
 5973TIP3    H217873   2.609   2.846   4.966 -0.2381  0.1874 -1.7190
 5974TIP3   OH217874   3.164   2.855   4.645 -0.0462 -0.2642 -0.1846
 5974TIP3    H117875   3.164   2.899   4.560 -1.4282  1.0717  0.4658
 5974TIP3    H217876   3.081   2.808   4.648 -0.3562  0.3211  0.7223
 5975TIP3   OH217877   4.657   1.247   5.043  0.4098  0.2442  0.6067
 5975TIP3    H117878   4.684   1.335   5.069  1.8199 -0.8047  2.8999
 5975TIP3    H217879   4.562   1.246   5.056  0.4842  1.1994  1.2828
 5976TIP3   OH217880   3.499   2.206   4.355  0.1160  0.5314  0.5408
 5976TIP3    H117881   3.537   2.137   4.410  1.8282  0.9023 -0.1374
 5976TIP3    H217882   3.556   2.209   4.279 -1.6975  0.6745 -0.8396
 5977TIP3   OH217883   3.929   3.945   3.450 -0.0025  0.6463 -0.3208
 5977TIP3    H117884   3.872   4.016   3.422 -0.2124  0.5118 -0.2343
 5977TIP3    H217885   3.892   3.867   3.408  0.4996  0.6573 -0.7932
 5978TIP3   OH217886   5.983   3.689   5.274 -0.1576  0.1813  0.0339
 5978TIP3    H117887   6.049   3.645   5.328 -0.0244 -1.7346 -1.5931
 5978TIP3    H217888   5.963   3.770   5.320  1.4052 -0.4658  1.9011
 5979TIP3   OH217889   3.092   1.909   3.799 -0.8099 -0.4634 -0.2281
 5979TIP3    H117890   3.126   1.911   3.888  0.3246  0.6189 -0.6679
 5979TIP3    H217891   3.118   1.823   3.765  0.7269 -0.0154 -0.2429
 5980TIP3   OH217892   4.331   2.142   5.478  0.2507  0.2597 -0.4190
 5980TIP3    H117893   4.364   2.231   5.466 -0.7222  0.7777  0.7002
 5980TIP3    H217894   4.239   2.146   5.454  0.0645 -0.3103  0.1768
 5981TIP3   OH217895   3.520   3.087   4.171  0.2497 -0.0299 -0.0684
 5981TIP3    H117896   3.608   3.082   4.133 -0.3221 -0.1599 -1.4106
 5981TIP3    H217897   3.483   3.167   4.135  0.1537  0.5426  1.2694
 5982TIP3   OH217898   4.019   1.757   4.447 -0.3308  0.3573 -0.5312
 5982TIP3    H117899   4.004   1.701   4.371 -2.0637  0.3787 -0.2261
 5982TIP3    H217900   4.079   1.706   4.502  1.1684  0.4747 -2.0348
 5983TIP3   OH217901   3.822   2.084   5.109 -0.6120 -0.2911  0.4608
 5983TIP3    H117902   3.814   2.037   5.192 -0.5862 -2.4843 -0.7529
 5983TIP3    H217903   3.732   2.110   5.087 -0.6657 -0.0382  0.9643
 5984TIP3   OH217904   3.566   5.532   5.299 -0.3457 -0.0081  0.4545
 5984TIP3    H117905   3.548   5.562   5.388  1.3399 -1.0984  1.1994
 5984TIP3    H217906   3.661   5.540   5.290 -0.1357 -2.6199 -0.2039
 5985TIP3   OH217907   4.779   2.966   5.745 -0.2115  0.0055  0.6053
 5985TIP3    H117908   4.872   2.970   5.769 -0.1417 -2.5337  0.9044
 5985TIP3    H217909   4.751   3.057   5.744  2.1713  0.7862  0.9740
 5986TIP3   OH217910   6.195   3.533   4.091  0.2142  0.6033  0.0165
 5986TIP3    H117911   6.239   3.597   4.035  0.0244  1.6289  1.0280
 5986TIP3    H217912   6.107   3.568   4.104  0.4043  0.6281  1.3404
 5987TIP3   OH217913   4.142   1.597   4.621 -0.3925  0.2285 -0.2870
 5987TIP3    H117914   4.153   1.599   4.716 -3.0391  0.4888  0.0399
 5987TIP3    H217915   4.173   1.509   4.595  0.1774  0.0963  0.8173
 5988TIP3   OH217916   3.332   0.845   3.501 -0.3512  0.4528  0.4163
 5988TIP3    H117917   3.283   0.820   3.423 -1.7167  0.9307  1.1008
 5988TIP3    H217918   3.385   0.920   3.473  0.4168 -0.4088 -0.4692
 5989TIP3   OH217919   2.433   7.016   5.011 -1.0241  0.1391 -0.3246
 5989TIP3    H117920   2.510   7.059   4.973 -0.7238 -1.5979 -1.7237
 5989TIP3    H217921   2.470   6.953   5.074 -1.2168 -1.4835 -1.8009
 5990TIP3   OH217922   4.405   3.840   3.452  0.3640 -0.3466 -0.0047
 5990TIP3    H117923   4.450   3.924   3.440 -0.9488  0.3422 -0.2162
 5990TIP3    H217924   4.416   3.795   3.368  1.4771 -0.5947  0.2674
 5991TIP3   OH217925   5.516   2.772   4.263 -0.0380  0.4086  0.0893
 5991TIP3    H117926   5.477   2.857   4.280 -0.8724 -0.1056  0.8286
 5991TIP3    H217927   5.507   2.759   4.169  0.7041  1.4231 -0.1268
 5992TIP3   OH217928   5.672   1.753   4.919 -0.7172  0.9177  0.1442
 5992TIP3    H117929   5.715   1.695   4.983 -0.0803  0.3156 -0.8128
 5992TIP3    H217930   5.634   1.823   4.972 -2.7184 -1.0946  1.4634
 5993TIP3   OH217931   5.734   2.425   2.507  0.3419 -0.2712 -0.2242
 5993TIP3    H117932   5.699   2.509   2.537 -0.9418 -0.7244 -0.4272
 5993TIP3    H217933   5.669   2.392   2.445  0.5227 -1.7007  0.3172
 5994TIP3   OH217934   4.400   4.895   2.784  0.0318  0.4586 -0.4977
 5994TIP3    H117935   4.307   4.874   2.775 -0.0216  0.8181 -0.8293
 5994TIP3    H217936   4.402   4.991   2.793  0.4698  0.6001 -1.9325
 5995TIP3   OH217937   5.063   3.505   4.343  0.5274  0.2559 -0.1575
 5995TIP3    H117938   4.988   3.564   4.356  0.6153  0.8945 -2.4308
 5995TIP3    H217939   5.025   3.428   4.300  0.6016 -0.9232  1.8360
 5996TIP3   OH217940   4.820   0.906   4.321 -0.7701 -0.4020 -0.4065
 5996TIP3    H117941   4.758   0.845   4.361 -1.5062 -0.0190 -0.9529
 5996TIP3    H217942   4.836   0.972   4.389 -0.6033 -0.7581 -0.1017
 5997TIP3   OH217943   6.354   1.040   4.207 -0.5602 -0.5806 -0.5919
 5997TIP3    H117944   6.399   0.964   4.245 -1.6081 -0.5491  0.7451
 5997TIP3    H217945   6.415   1.113   4.221 -0.7759 -0.6426  0.6942
 5998TIP3   OH217946   7.524   4.724   0.420 -0.3008  0.5042 -0.1562
 5998TIP3    H117947   7.457   4.671   0.375 -0.3836  0.1017  0.4378
 5998TIP3    H217948   7.607   4.688   0.390 -0.3116  2.0433 -2.1481
 5999TIP3   OH217949   5.628   3.431   4.108  0.2218 -0.1253  0.3604
 5999TIP3    H117950   5.647   3.523   4.127 -0.3061 -0.3760  2.2471
 5999TIP3    H217951   5.560   3.408   4.171 -0.8926 -1.3386 -1.2497
 6000TIP3   OH217952   5.123   2.763   4.219 -0.3636 -0.2037  0.5589
 6000TIP3    H117953   5.087   2.680   4.249  0.2284 -0.6636  0.0051
 6000TIP3    H217954   5.174   2.741   4.142 -1.5419  0.8966 -0.5757
 6001TIP3   OH217955   3.897   0.097   0.982  0.4849  0.5754 -0.0032
 6001TIP3    H117956   3.903   0.002   0.988  3.7253  0.7472  0.6202
 6001TIP3    H217957   3.826   0.121   1.041 -1.3794 -1.5339 -1.3028
 6002TIP3   OH217958   4.470   1.137   5.695 -0.0998 -0.1639 -0.0512
 6002TIP3    H117959   4.375   1.148   5.703  0.0527 -0.0175  1.8273
 6002TIP3    H217960   4.504   1.226   5.691  0.0524 -0.1896  0.6229
 6003TIP3   OH217961   3.382   2.769   4.160 -0.5159 -0.0432  0.1025
 6003TIP3    H117962   3.389   2.734   4.248 -0.8960 -0.2407  0.0558
 6003TIP3    H217963   3.411   2.860   4.168  1.8276 -0.7379 -0.0531
 6004TIP3   OH217964   5.247   3.893   4.135  0.0569  0.2059 -0.4358
 6004TIP3    H117965   5.326   3.921   4.090  0.2492 -1.7352 -1.3515
 6004TIP3    H217966   5.184   3.964   4.121  1.5372  1.6619  0.1082
 6005TIP3   OH217967   4.108   2.990   5.648  0.0980  0.2374 -0.1492
 6005TIP3    H117968   4.149   3.047   5.583 -0.7158  1.1748  0.1519
 6005TIP3    H217969   4.082   3.049   5.719 -0.9005 -0.4889  0.0924
 6006TIP3   OH217970   5.100   2.130   0.755 -0.2775 -0.0702 -0.4703
 6006TIP3    H117971   5.063   2.151   0.841  0.2768  1.1303 -0.5118
 6006TIP3    H217972   5.089   2.035   0.747  0.6953 -0.3696  1.4260
 6007TIP3   OH217973   5.166   3.455   5.033 -0.0324 -0.0432  0.0497
 6007TIP3    H117974   5.073   3.459   5.009  0.6054  1.3042 -2.3306
 6007TIP3    H217975   5.165   3.447   5.128 -2.5998 -0.1855  0.0610
 6008TIP3   OH217976   6.337   3.619   2.364 -0.1338 -0.3992 -0.0326
 6008TIP3    H117977   6.243   3.633   2.372 -0.3372 -2.6514  2.1828
 6008TIP3    H217978   6.366   3.602   2.454  2.2992 -0.3116 -0.7659
 6009TIP3   OH217979   4.376   3.044   4.905  0.3524  0.3414 -0.2832
 6009TIP3    H117980   4.351   2.963   4.951  2.2121  1.2205  2.3984
 6009TIP3    H217981   4.460   3.023   4.866  0.8375  0.9604  0.4193
 6010TIP3   OH217982   4.968   1.948   5.369  0.4736 -0.2547 -0.2558
 6010TIP3    H117983   4.997   2.020   5.313  0.1048 -0.1666 -0.3323
 6010TIP3    H217984   4.975   1.983   5.458  0.9462 -0.3548 -0.2532
 6011TIP3   OH217985   2.897   3.543   4.945 -0.3673  0.1937  0.2355
 6011TIP3    H117986   2.983   3.545   4.987 -0.3793 -1.3512  0.3662
 6011TIP3    H217987   2.853   3.621   4.977 -0.1314 -0.6057  2.5931
 6012TIP3   OH217988   4.623   2.083   5.358 -0.1509 -1.2240 -0.4317
 6012TIP3    H117989   4.669   2.165   5.376 -1.7735 -0.4304  0.2641
 6012TIP3    H217990   4.531   2.103   5.379 -0.5504 -3.2390 -0.2119
 6013TIP3   OH217991   4.314   3.179   4.221  0.1102 -0.0918 -0.4122
 6013TIP3    H117992   4.274   3.244   4.163  0.3677 -0.2956 -0.8205
 6013TIP3    H217993   4.251   3.107   4.222 -0.9996  0.8849  1.4347
 6014TIP3   OH217994   4.511   3.050   5.557 -0.3672  0.3116  0.6402
 6014TIP3    H117995   4.424   3.059   5.519 -0.6514  0.5128  1.3247
 6014TIP3    H217996   4.527   2.955   5.559 -0.0764  0.3232 -0.5621
 6015TIP3   OH217997   4.189   3.695   4.015 -0.3584  0.2770  0.6131
 6015TIP3    H117998   4.197   3.786   3.989 -2.7761  0.1420 -0.7721
 6015TIP3    H217999   4.134   3.655   3.947 -1.3353 -1.6295  2.4493
 6016TIP3   OH218000   6.008   1.852   2.383 -0.3221  0.3120 -0.0225
 6016TIP3    H118001   6.039   1.787   2.445 -0.5774 -0.9963 -1.2291
 6016TIP3    H218002   5.923   1.819   2.354 -1.6395  2.4883  1.2371
 6017TIP3   OH218003   3.327   1.506   3.747 -0.2121  0.2300 -0.0007
 6017TIP3    H118004   3.255   1.454   3.711 -0.4252  1.3720 -1.2986
 6017TIP3    H218005   3.378   1.445   3.799 -1.4647 -0.8605 -0.0388
 6018TIP3   OH218006   5.600   2.016   2.315 -0.6387 -0.2094 -0.0009
 6018TIP3    H118007   5.586   2.060   2.398  0.9821 -1.7094  1.1116
 6018TIP3    H218008   5.589   1.923   2.335  0.8454 -0.6667 -1.2071
 6019TIP3   OH218009   3.492   3.880   5.488  0.4658 -0.1345 -0.0391
 6019TIP3    H118010   3.519   3.914   5.403 -0.1682 -0.8940 -0.5481
 6019TIP3    H218011   3.407   3.840   5.472  0.7340 -1.0470  0.7807
 6020TIP3   OH218012   6.445   1.279   4.271 -0.3796  0.4810  0.1633
 6020TIP3    H118013   6.398   1.335   4.334 -1.5217 -0.6125  0.3098
 6020TIP3    H218014   6.421   1.314   4.185 -1.9886 -0.4488  0.2157
 6021TIP3   OH218015   4.651   3.929   2.549 -0.2064 -0.2842  0.1459
 6021TIP3    H118016   4.721   3.914   2.614  1.9876  0.5400 -1.9644
 6021TIP3    H218017   4.603   3.846   2.548  0.9886 -1.0321  1.3491
 6022TIP3   OH218018   5.377   5.057   2.835 -0.2431  0.1905  0.3049
 6022TIP3    H118019   5.285   5.038   2.854  0.1052 -2.0801 -0.1362
 6022TIP3    H218020   5.377   5.148   2.806 -2.4006  0.1473  0.0976
 6023TIP3   OH218021   5.209   2.912   3.501  0.1419 -0.1527  0.1448
 6023TIP3    H118022   5.303   2.893   3.495  0.2946 -0.4932  2.8168
 6023TIP3    H218023   5.204   2.989   3.557 -1.2025 -0.4443  0.4411
 6024TIP3   OH218024   1.993   4.209   5.370  0.1289  0.1031 -0.5407
 6024TIP3    H118025   1.965   4.138   5.313  0.3080  0.7048 -1.4014
 6024TIP3    H218026   1.919   4.225   5.428  0.1084 -0.8156 -0.3066
 6025TIP3   OH218027   5.988   3.448   5.927 -0.4002 -0.2765 -0.1135
 6025TIP3    H118028   5.941   3.529   5.945 -1.8686 -0.9969 -0.5611
 6025TIP3    H218029   5.932   3.380   5.966 -0.8499 -1.3507 -2.5246
 6026TIP3   OH218030   6.978   5.954   0.541  0.3192 -0.8612 -0.2735
 6026TIP3    H118031   7.010   5.954   0.631 -0.1176  0.6579 -0.1001
 6026TIP3    H218032   7.051   5.988   0.489 -0.2689  0.5935 -0.1591
 6027TIP3   OH218033   2.697   2.669   5.854 -0.9273 -0.4832 -0.3203
 6027TIP3    H118034   2.726   2.732   5.920 -0.2512 -1.9740  0.8338
 6027TIP3    H218035   2.778   2.646   5.807 -0.4988 -3.2911  1.7175
 6028TIP3   OH218036   2.578   2.517   3.864 -0.5848  0.5911  0.0150
 6028TIP3    H118037   2.617   2.583   3.922  0.5168 -0.2750  0.2594
 6028TIP3    H218038   2.651   2.484   3.812 -0.7851 -1.7316  1.1536
 6029TIP3   OH218039   4.451   5.611   1.664 -0.1952  0.0328 -0.2722
 6029TIP3    H118040   4.481   5.629   1.576  0.8919 -0.7272 -0.0602
 6029TIP3    H218041   4.459   5.695   1.710 -0.1205  0.2626 -0.7070
 6030TIP3   OH218042   6.019   2.868   1.707  0.6377 -0.3533  0.0106
 6030TIP3    H118043   5.962   2.816   1.762  0.7183  0.2934  0.7145
 6030TIP3    H218044   5.984   2.957   1.713 -0.1367 -0.4840 -2.0011
 6031TIP3   OH218045   5.949   2.479   5.497 -0.0157 -0.0451  0.0592
 6031TIP3    H118046   5.984   2.519   5.418 -0.7818  0.0864 -0.2183
 6031TIP3    H218047   5.938   2.552   5.558 -0.7443  0.0732 -0.2024
 6032TIP3   OH218048   3.349   2.809   6.392 -0.4446  0.3916 -0.7265
 6032TIP3    H118049   3.385   2.721   6.405  0.7707  0.8572 -0.8690
 6032TIP3    H218050   3.254   2.797   6.395 -0.2934 -0.9908 -1.1408
 6033TIP3   OH218051   3.020   1.458   5.320  0.0610  0.7464  0.1177
 6033TIP3    H118052   2.989   1.377   5.363 -0.5577  0.7818 -0.2554
 6033TIP3    H218053   2.955   1.474   5.251  0.8402  0.9085 -0.5776
 6034TIP3   OH218054   5.736   1.017   4.832  0.3832 -0.6138 -0.3416
 6034TIP3    H118055   5.747   1.004   4.737  0.5635 -0.5920 -0.3244
 6034TIP3    H218056   5.646   0.991   4.850  0.1250  0.0641 -0.6406
 6035TIP3   OH218057   7.157   3.244   3.570 -0.5940 -0.2983  0.2941
 6035TIP3    H118058   7.093   3.225   3.501  0.0580  0.4936 -0.5302
 6035TIP3    H218059   7.178   3.158   3.607 -2.1154 -0.5684  0.5579
 6036TIP3   OH218060   4.551   2.744   3.190  0.0802  0.6151  0.1606
 6036TIP3    H118061   4.520   2.742   3.281  0.3156  2.1425  0.2837
 6036TIP3    H218062   4.501   2.674   3.147  1.4519 -1.5110  1.8997
 6037TIP3   OH218063   4.370   2.505   4.245 -0.2843 -0.8711  0.3229
 6037TIP3    H118064   4.451   2.507   4.193 -0.6766  1.1536 -0.2514
 6037TIP3    H218065   4.384   2.436   4.309  0.7786 -2.4790 -1.5809
 6038TIP3   OH218066   6.277   5.841   0.889  0.4669 -0.5963  0.1270
 6038TIP3    H118067   6.213   5.778   0.854 -0.9030 -0.5483  2.4110
 6038TIP3    H218068   6.228   5.923   0.895  1.1986 -0.1891  0.5209
 6039TIP3   OH218069   3.096   2.387   4.730 -0.0389  0.0601  0.0544
 6039TIP3    H118070   3.043   2.356   4.657 -0.9018 -2.0836  1.5530
 6039TIP3    H218071   3.083   2.322   4.799  2.3743  0.9427  1.4154
 6040TIP3   OH218072   4.604   2.412   4.988  0.3884  0.3784  0.0633
 6040TIP3    H118073   4.649   2.332   5.017  0.7861  0.8209  0.6771
 6040TIP3    H218074   4.515   2.402   5.020  0.4323  0.1713  0.1253
 6041TIP3   OH218075   5.620   1.546   4.124  0.0305  0.2721  0.0910
 6041TIP3    H118076   5.613   1.568   4.217 -1.5252  0.5403 -0.0760
 6041TIP3    H218077   5.648   1.454   4.123  1.2166  0.6201  0.8111
 6042TIP3   OH218078   4.052   1.718   3.685  0.0484 -0.2818 -0.3072
 6042TIP3    H118079   3.987   1.671   3.633 -0.2343  0.3975 -0.5722
 6042TIP3    H218080   4.004   1.747   3.763 -0.3314  1.4276 -1.1558
 6043TIP3   OH218081   3.281   3.944   6.024 -0.2327  0.3638  0.8046
 6043TIP3    H118082   3.299   3.907   5.937 -0.6258  1.0944  0.4081
 6043TIP3    H218083   3.362   3.931   6.072 -0.6728 -1.9257  1.0087
 6044TIP3   OH218084   5.825   1.656   2.491 -0.0160 -0.2494  0.4828
 6044TIP3    H118085   5.906   1.616   2.521  0.0995 -1.0500 -0.8955
 6044TIP3    H218086   5.762   1.638   2.561  0.5828 -0.9841  0.8362
 6045TIP3   OH218087   3.704   2.063   5.590  0.6454  0.3647 -0.3739
 6045TIP3    H118088   3.762   2.138   5.602 -1.0239  1.3954  1.4413
 6045TIP3    H218089   3.724   2.005   5.663 -0.2839  0.5279  0.0193
 6046TIP3   OH218090   3.247   1.033   3.715 -0.1243  0.0717 -0.0702
 6046TIP3    H118091   3.198   1.111   3.686  0.8761  0.1857 -1.5027
 6046TIP3    H218092   3.219   0.964   3.656 -1.7233 -0.9341  1.7949
 6047TIP3   OH218093   5.244   3.774   2.459  0.0472 -0.2000  0.3574
 6047TIP3    H118094   5.334   3.752   2.436  0.2800  0.9184  0.1557
 6047TIP3    H218095   5.192   3.699   2.431  0.7372 -0.2469 -0.8012
 6048TIP3   OH218096   3.575   3.967   2.370 -0.4638  0.2215  0.1173
 6048TIP3    H118097   3.515   3.899   2.339  1.5665 -0.7382 -1.8092
 6048TIP3    H218098   3.641   3.919   2.420  2.0178  0.4855 -2.8063
 6049TIP3   OH218099   4.456   1.641   4.027  0.0428 -0.1221  0.8978
 6049TIP3    H118100   4.527   1.594   3.983  0.6448  1.6725 -0.0725
 6049TIP3    H218101   4.389   1.650   3.959  0.7242  2.1165  0.4950
 6050TIP3   OH218102   5.096   1.611   2.668  0.0208  0.2200 -0.1512
 6050TIP3    H118103   5.141   1.694   2.686  1.0611 -0.4405  0.3207
 6050TIP3    H218104   5.100   1.563   2.751 -0.9214 -0.1591 -0.3098
 6051TIP3   OH218105   5.429   3.651   5.375  0.6094 -0.1741 -0.3649
 6051TIP3    H118106   5.378   3.667   5.455  2.1098  1.6883  0.2558
 6051TIP3    H218107   5.390   3.572   5.337 -1.7120  0.3189  0.9036
 6052TIP3   OH218108   5.132   3.308   3.480  0.6230  0.1789  0.0704
 6052TIP3    H118109   5.125   3.380   3.543  0.2058  0.6232 -0.4821
 6052TIP3    H218110   5.130   3.229   3.534  0.6020  0.5666  0.6417
 6053TIP3   OH218111   4.723   3.173   4.224 -0.2968 -0.2562  0.0391
 6053TIP3    H118112   4.655   3.219   4.273 -0.9811 -0.8130 -0.3760
 6053TIP3    H218113   4.687   3.165   4.135 -1.6826 -4.6073  0.8870
 6054TIP3   OH218114   4.115   2.504   3.809  0.7884  0.5830 -0.2000
 6054TIP3    H118115   4.200   2.497   3.765  1.0669  0.4114  0.3583
 6054TIP3    H218116   4.136   2.540   3.895  0.0480  2.6039 -0.8426
 6055TIP3   OH218117   5.786   3.292   5.288 -0.2210  0.0467 -0.3853
 6055TIP3    H118118   5.742   3.209   5.270 -1.1808  0.7905 -1.5096
 6055TIP3    H218119   5.728   3.359   5.252  1.0829  1.1422 -0.5049
 6056TIP3   OH218120   5.726   1.327   5.225  0.0646 -0.2341 -0.3508
 6056TIP3    H118121   5.712   1.234   5.239 -1.0577  0.0828  0.6906
 6056TIP3    H218122   5.656   1.353   5.165  0.4776 -0.0845 -0.7756
 6057TIP3   OH218123   6.823   2.796   5.916 -0.0595  0.2233  0.6273
 6057TIP3    H118124   6.843   2.884   5.885 -0.4087  0.1707  0.2452
 6057TIP3    H218125   6.856   2.738   5.846 -1.8036  0.1516 -0.1487
 6058TIP3   OH218126   6.601   3.334   4.481 -0.6147  0.1719  0.3642
 6058TIP3    H118127   6.520   3.368   4.443 -1.7252 -0.4020  2.1302
 6058TIP3    H218128   6.600   3.365   4.572  1.2874  0.3917  0.3298
 6059TIP3   OH218129   3.793   2.686   3.920  0.0160  0.8647 -0.7423
 6059TIP3    H118130   3.777   2.727   4.005  0.7090  0.1910 -0.2933
 6059TIP3    H218131   3.798   2.592   3.938 -0.4701  0.6596 -1.6173
 6060TIP3   OH218132   4.215   3.373   4.062 -0.1949 -0.2579  0.7554
 6060TIP3    H118133   4.224   3.355   3.969 -2.2382 -1.3225  0.7310
 6060TIP3    H218134   4.141   3.433   4.068  0.4370  0.4549  1.6521
 6061TIP3   OH218135   5.850   1.629   6.222 -0.0693 -0.0969  0.4604
 6061TIP3    H118136   5.818   1.692   6.287  1.1350  0.9353  0.0729
 6061TIP3    H218137   5.826   1.668   6.138 -0.3770 -0.7450  0.2442
 6062TIP3   OH218138   4.892   3.782   3.748  0.1071 -0.4294 -0.7312
 6062TIP3    H118139   4.914   3.874   3.731 -0.0017  0.3725  2.9605
 6062TIP3    H218140   4.811   3.768   3.701 -0.1106  1.5184 -1.0021
 6063TIP3   OH218141   4.289   2.821   5.012  0.2600  0.7832  0.2462
 6063TIP3    H118142   4.211   2.773   4.985 -0.3960  1.8880  0.1740
 6063TIP3    H218143   4.276   2.840   5.104  1.7201 -1.4520  0.9788
 6064TIP3   OH218144   3.541   1.109   4.374  0.5697  0.1589  0.3701
 6064TIP3    H118145   3.630   1.120   4.342  0.3115 -0.6359 -0.6408
 6064TIP3    H218146   3.535   1.017   4.399 -0.1469  0.0700 -0.1149
 6065TIP3   OH218147   0.548   5.481   0.859  0.0940 -0.7010  0.1864
 6065TIP3    H118148   0.594   5.478   0.943 -0.1454  0.3551  0.3641
 6065TIP3    H218149   0.464   5.438   0.877  0.0478 -0.4877  0.4846
 6066TIP3   OH218150   3.200   5.471   4.619 -0.1638  0.3871 -0.3732
 6066TIP3    H118151   3.118   5.501   4.659  0.4869  1.6327  0.0522
 6066TIP3    H218152   3.193   5.499   4.528 -0.2566  0.3988 -0.3635
 6067TIP3   OH218153   5.555   0.151   2.578 -0.1475  0.4588  0.0940
 6067TIP3    H118154   5.544   0.104   2.495  0.2663  1.2385 -0.4083
 6067TIP3    H218155   5.599   0.088   2.636  0.3087  0.1923 -0.5404
 6068TIP3   OH218156   0.677   6.363   0.546 -0.2635 -0.2215 -0.2533
 6068TIP3    H118157   0.593   6.387   0.585  0.4572  1.0639  0.5487
 6068TIP3    H218158   0.654   6.300   0.477 -1.9379  0.5120 -0.4036
 6069TIP3   OH218159   3.645   2.313   4.793 -0.0860  0.1266 -0.0602
 6069TIP3    H118160   3.660   2.273   4.878  1.4460  0.7014 -0.0476
 6069TIP3    H218161   3.553   2.341   4.795 -0.2915 -0.6229  1.0705
 6070TIP3   OH218162   5.828   3.217   4.081  0.5991 -0.2966 -0.0999
 6070TIP3    H118163   5.904   3.235   4.136  0.5707 -0.1847 -0.0978
 6070TIP3    H218164   5.773   3.295   4.090  0.5137 -0.3511 -0.1510
 6071TIP3   OH218165   5.972   1.828   4.056 -0.6746 -0.4052  0.3850
 6071TIP3    H118166   5.923   1.899   4.014 -0.1255  1.2378  2.4570
 6071TIP3    H218167   6.015   1.783   3.983 -1.2495  1.2175 -0.9894
 6072TIP3   OH218168   5.415   4.443   4.862 -0.1377  0.0536  0.1276
 6072TIP3    H118169   5.325   4.472   4.879 -0.8396 -0.7765 -2.0506
 6072TIP3    H218170   5.409   4.348   4.859  0.5089  0.0448 -1.5514
 6073TIP3   OH218171   1.781   1.579   4.237 -0.0956  0.0474  0.3341
 6073TIP3    H118172   1.765   1.664   4.278 -1.4539  0.1506 -0.3643
 6073TIP3    H218173   1.866   1.551   4.270  0.6521  1.9752  0.0960
 6074TIP3   OH218174   5.613   3.484   5.234 -0.5530 -0.6733 -0.1196
 6074TIP3    H118175   5.590   3.542   5.307  0.1703  1.2796 -1.4054
 6074TIP3    H218176   5.540   3.494   5.173  0.5689  0.5179 -1.2816
 6075TIP3   OH218177   4.356   3.438   2.555  0.1584 -0.1771  0.2988
 6075TIP3    H118178   4.404   3.447   2.637 -0.7392 -4.4564  1.3996
 6075TIP3    H218179   4.267   3.469   2.575  0.0327 -0.9007  0.8868
 6076TIP3   OH218180   7.563   2.024   4.077 -0.3900 -0.5690 -0.4321
 6076TIP3    H118181   7.560   2.074   3.995 -2.1916 -0.3115 -0.2387
 6076TIP3    H218182   7.589   1.936   4.050  1.2932  0.0880 -0.9772
 6077TIP3   OH218183   4.496   4.325   4.263 -0.0788  0.3778  0.0495
 6077TIP3    H118184   4.577   4.274   4.270 -2.1276 -3.1256 -0.6921
 6077TIP3    H218185   4.430   4.272   4.308 -2.4969  1.9813 -1.4929
 6078TIP3   OH218186   6.659   5.010   4.866 -0.3262 -0.3583 -0.0072
 6078TIP3    H118187   6.740   5.056   4.892 -0.5818 -0.4336  0.9311
 6078TIP3    H218188   6.673   4.919   4.893 -0.9842 -0.2416  0.7143
 6079TIP3   OH218189   4.979   4.503   2.812 -0.3898  0.5916 -0.2084
 6079TIP3    H118190   4.923   4.566   2.765 -2.2837 -0.6174  0.3892
 6079TIP3    H218191   4.919   4.457   2.871  1.2670 -0.6766  0.5098
 6080TIP3   OH218192   3.934   2.171   4.849  0.0866 -0.0175 -0.0652
 6080TIP3    H118193   3.897   2.122   4.922 -1.6850  0.9320 -0.3139
 6080TIP3    H218194   3.983   2.242   4.891 -0.1868  0.0009  0.2274
 6081TIP3   OH218195   4.642   2.726   5.020 -0.1112 -0.8479  0.2937
 6081TIP3    H118196   4.719   2.723   4.963 -1.5681  1.4222 -1.9391
 6081TIP3    H218197   4.570   2.700   4.962 -1.6343  1.5007  1.1057
 6082TIP3   OH218198   3.473   1.984   3.928  0.1627 -0.1498  0.1827
 6082TIP3    H118199   3.393   2.025   3.962  0.7781 -0.0437  1.5278
 6082TIP3    H218200   3.441   1.909   3.878 -0.7688 -0.4738  1.2353
 6083TIP3   OH218201   3.726   2.885   2.632 -0.2988 -0.3890  0.5269
 6083TIP3    H118202   3.638   2.881   2.669 -0.5403 -0.3765 -0.0428
 6083TIP3    H218203   3.719   2.840   2.548  0.3153 -0.6787  0.6211
 6084TIP3   OH218204   3.356   3.199   3.527 -0.7221 -0.3951  0.3142
 6084TIP3    H118205   3.327   3.112   3.498 -0.3234 -0.3443 -0.2417
 6084TIP3    H218206   3.388   3.184   3.616 -1.1537 -0.7166  0.4188
 6085TIP3   OH218207   5.739   1.411   5.784 -0.2076  0.4299 -0.2704
 6085TIP3    H118208   5.783   1.494   5.768 -0.6929  0.6955 -0.2478
 6085TIP3    H218209   5.662   1.434   5.837 -0.0695 -0.0967  0.1681
 6086TIP3   OH218210   4.209   1.626   4.914  0.0355 -0.0635  0.6324
 6086TIP3    H118211   4.174   1.695   4.971 -1.8489 -2.1772  2.1136
 6086TIP3    H218212   4.296   1.608   4.949  0.5640  1.5204  0.2159
 6087TIP3   OH218213   4.800   1.748   3.115 -0.4000  0.0344 -0.0778
 6087TIP3    H118214   4.881   1.717   3.073  0.5629  1.4212  0.7519
 6087TIP3    H218215   4.752   1.791   3.044  1.2302  2.3773  0.1788
 6088TIP3   OH218216   3.526   3.201   3.873  0.1435 -0.5785 -0.4350
 6088TIP3    H118217   3.467   3.274   3.893  2.3279  1.3997 -0.9257
 6088TIP3    H218218   3.592   3.204   3.942 -1.2767 -3.9019  1.1526
 6089TIP3   OH218219   4.515   3.661   3.245  0.4788 -0.0187  0.0284
 6089TIP3    H118220   4.437   3.624   3.286 -0.0521  1.2751  0.2003
 6089TIP3    H218221   4.500   3.648   3.151  0.1954 -0.0495  0.0756
 6090TIP3   OH218222   4.059   2.430   4.638  0.4334 -0.4187  0.0271
 6090TIP3    H118223   4.060   2.356   4.578 -0.6655  0.6529 -1.3239
 6090TIP3    H218224   4.122   2.492   4.601 -0.6577  0.4842 -0.3399
 6091TIP3   OH218225   3.413   1.931   3.521  0.6534  0.8951  0.1011
 6091TIP3    H118226   3.408   1.977   3.437 -0.4912  0.3478 -0.1392
 6091TIP3    H218227   3.367   1.989   3.582 -0.7886  0.1005 -0.2009
 6092TIP3   OH218228   3.326   2.313   4.148  0.3102 -0.2777  0.0474
 6092TIP3    H118229   3.336   2.393   4.096  0.8234 -0.4826 -0.1785
 6092TIP3    H218230   3.265   2.337   4.217 -0.5000 -0.0451 -0.7385
 6093TIP3   OH218231   5.430   4.086   3.081  0.3827  0.0208  0.0844
 6093TIP3    H118232   5.378   4.005   3.078 -1.5869  1.2457  0.1272
 6093TIP3    H218233   5.467   4.088   3.169  1.6122 -1.5322 -0.3832
 6094TIP3   OH218234   5.017   0.944   6.472 -0.1808  0.3215  0.1445
 6094TIP3    H118235   5.103   0.940   6.432 -0.5353  1.4767 -0.7410
 6094TIP3    H218236   4.973   1.016   6.428 -1.5637 -0.1894  0.6662
 6095TIP3   OH218237   5.355   3.691   1.758 -0.0776  0.0999 -0.0202
 6095TIP3    H118238   5.299   3.615   1.773 -2.9304  1.6852 -2.1168
 6095TIP3    H218239   5.329   3.754   1.825  1.2342 -0.2071  0.7897
 6096TIP3   OH218240   3.930   3.402   2.295 -0.0717  0.4102 -0.0815
 6096TIP3    H118241   3.884   3.337   2.242 -1.3189  0.4253  0.9533
 6096TIP3    H218242   4.022   3.392   2.270 -0.1359 -2.1991  0.5103
 6097TIP3   OH218243   3.614   0.799   3.178  0.9923 -0.3740 -0.3541
 6097TIP3    H118244   3.629   0.799   3.272 -2.9731 -0.9345  0.3936
 6097TIP3    H218245   3.645   0.713   3.149  0.4247 -0.9908  0.8157
 6098TIP3   OH218246   5.879   2.231   5.524 -0.2669  0.5570 -0.6305
 6098TIP3    H118247   5.908   2.312   5.483  1.6581 -0.7163 -1.8494
 6098TIP3    H218248   5.951   2.206   5.583  0.9358 -2.2776 -3.1762
 6099TIP3   OH218249   5.598   3.105   4.415 -0.0109  0.0190  0.5048
 6099TIP3    H118250   5.611   3.024   4.465  2.8662 -0.1336 -0.3679
 6099TIP3    H218251   5.633   3.174   4.471 -0.8661  0.4456  0.5229
 6100TIP3   OH218252   6.139   2.798   2.745 -0.4691  0.3588  0.0208
 6100TIP3    H118253   6.111   2.833   2.830 -2.6350  2.1435 -1.3711
 6100TIP3    H218254   6.074   2.729   2.726 -0.1997  0.2117 -0.3632
 6101TIP3   OH218255   3.815   1.337   3.681 -0.2924  0.2480 -0.3094
 6101TIP3    H118256   3.908   1.314   3.688 -0.1200  0.1122 -2.8193
 6101TIP3    H218257   3.775   1.297   3.759  1.7988  0.6727  1.0203
 6102TIP3   OH218258   0.517   0.771   0.465  0.4686 -0.5045 -0.0775
 6102TIP3    H118259   0.544   0.829   0.536  0.3061 -0.7303  0.1691
 6102TIP3    H218260   0.484   0.693   0.509  1.4927 -1.1419 -0.4284
 6103TIP3   OH218261   4.531   2.441   3.454 -0.4215  0.0647  0.5044
 6103TIP3    H118262   4.499   2.381   3.386 -0.6050  0.5980  0.1163
 6103TIP3    H218263   4.626   2.432   3.452 -0.4218  0.1230  0.1285
 6104TIP3   OH218264   4.397   4.025   2.654 -0.3085 -0.2059  0.0937
 6104TIP3    H118265   4.474   4.037   2.599 -0.8686 -1.5700 -1.0264
 6104TIP3    H218266   4.330   4.079   2.611  0.0624  1.1535  1.1889
 6105TIP3   OH218267   4.236   3.038   3.011  0.0446 -0.4835  0.3410
 6105TIP3    H118268   4.314   3.060   2.960 -1.5609  1.8894 -1.2249
 6105TIP3    H218269   4.265   3.040   3.102  2.0720 -0.8393 -0.2755
 6106TIP3   OH218270   3.371   1.507   6.300 -0.1031  0.0539 -0.5766
 6106TIP3    H118271   3.282   1.539   6.306  0.7170  2.4292 -0.4926
 6106TIP3    H218272   3.406   1.512   6.389  0.0920 -0.9613 -0.5856
 6107TIP3   OH218273   3.724   3.170   2.771  0.2733  0.0448  0.3298
 6107TIP3    H118274   3.656   3.228   2.806 -0.8712 -0.8318 -0.4043
 6107TIP3    H218275   3.676   3.097   2.733  1.6554 -0.7986  0.1691
 6108TIP3   OH218276   5.027   3.136   5.173  0.4033  0.0469  0.0077
 6108TIP3    H118277   5.031   3.230   5.189  0.7764  0.2052 -0.9886
 6108TIP3    H218278   5.107   3.116   5.125  0.4303 -0.8198  0.3969
 6109TIP3   OH218279   3.689   4.565   4.659  0.6031  0.0852  0.1594
 6109TIP3    H118280   3.744   4.559   4.580  0.8265  0.2838  0.2993
 6109TIP3    H218281   3.633   4.641   4.643  0.4424 -0.0515  0.0652
 6110TIP3   OH218282   5.607   4.796   0.988 -0.2578  0.3255  0.5294
 6110TIP3    H118283   5.603   4.880   1.035 -1.1759  1.5207 -1.5905
 6110TIP3    H218284   5.562   4.734   1.045  0.0414  1.3749  1.9325
 6111TIP3   OH218285   7.692   0.846   3.908  0.6592  0.2473 -0.5266
 6111TIP3    H118286   7.651   0.839   3.994  1.2646  1.0011 -0.1665
 6111TIP3    H218287   7.774   0.797   3.916  1.3625  1.4325 -0.2466
 6112TIP3   OH218288   2.722   2.751   3.962  0.4966 -0.1939 -0.2541
 6112TIP3    H118289   2.749   2.771   3.872 -1.0581 -1.9345 -1.1364
 6112TIP3    H218290   2.803   2.760   4.013  1.6968 -0.4690 -2.0404
 6113TIP3   OH218291   4.250   2.521   2.714 -0.7254 -0.2676 -0.1694
 6113TIP3    H118292   4.209   2.452   2.661 -1.5301  0.1915 -0.1469
 6113TIP3    H218293   4.335   2.535   2.674 -0.0908 -2.0680  0.4923
 6114TIP3   OH218294   5.309   3.446   5.919 -0.0776 -0.0787 -0.4072
 6114TIP3    H118295   5.378   3.461   5.984  0.3407  1.4483 -1.1688
 6114TIP3    H218296   5.353   3.404   5.846 -0.5098 -1.6101  0.1966
 6115TIP3   OH218297   4.207   2.920   2.542  0.0171 -0.1806 -0.1736
 6115TIP3    H118298   4.259   2.846   2.512 -2.8622 -1.4269 -2.3284
 6115TIP3    H218299   4.231   2.993   2.485  0.5047 -0.3052 -0.1298
 6116TIP3   OH218300   5.117   0.316   4.943  0.5290  0.1580 -0.1764
 6116TIP3    H118301   5.173   0.361   4.879 -0.1535  0.7437 -0.3721
 6116TIP3    H218302   5.144   0.351   5.028  1.8483 -1.0610 -0.0735
 6117TIP3   OH218303   7.142   1.531   6.357  0.2953  0.2576 -0.3133
 6117TIP3    H118304   7.167   1.496   6.443 -2.5652  0.5482  0.6937
 6117TIP3    H218305   7.122   1.454   6.304  0.9054  0.1209 -0.3462
 6118TIP3   OH218306   7.908   6.707   0.260 -0.1743 -0.0531  0.3660
 6118TIP3    H118307   7.912   6.634   0.198 -1.1749  0.4908 -0.3599
 6118TIP3    H218308   7.821   6.745   0.246  0.3404  1.2783  0.7281
 6119TIP3   OH218309   6.205   1.472   4.679 -0.0713  0.1864 -0.1511
 6119TIP3    H118310   6.257   1.439   4.606 -0.3514  0.9735 -0.7136
 6119TIP3    H218311   6.136   1.524   4.637  0.9990  2.3766  0.7589
 6120TIP3   OH218312   6.467   2.321   5.603  0.1514  0.0955 -0.4322
 6120TIP3    H118313   6.450   2.413   5.624 -0.2003  0.0987 -0.7181
 6120TIP3    H218314   6.510   2.286   5.681 -0.8262  0.1861  0.1575
 6121TIP3   OH218315   3.650   3.365   5.266 -0.1701  0.1721  0.1070
 6121TIP3    H118316   3.745   3.355   5.266 -0.2807 -0.9706  0.9242
 6121TIP3    H218317   3.632   3.426   5.338  0.0860  2.0658 -1.3897
 6122TIP3   OH218318   4.582   4.015   5.564  0.3991 -0.0237 -0.0396
 6122TIP3    H118319   4.598   3.933   5.612 -1.7987  1.4007  3.2594
 6122TIP3    H218320   4.668   4.057   5.560  1.3848 -2.0258 -0.9889
 6123TIP3   OH218321   4.520   3.292   4.364  0.9362  0.0191 -0.4530
 6123TIP3    H118322   4.442   3.245   4.334  1.7332 -1.5403 -0.1520
 6123TIP3    H218323   4.486   3.371   4.405 -0.5666 -1.1001  0.5347
 6124TIP3   OH218324   6.167   2.228   3.600 -0.6582 -0.0433  0.2259
 6124TIP3    H118325   6.127   2.206   3.684  0.0085 -1.2880  0.2320
 6124TIP3    H218326   6.240   2.285   3.623  0.8169 -2.0865  0.6945
 6125TIP3   OH218327   7.566   6.912   6.005 -0.4215  0.1000  0.0983
 6125TIP3    H118328   7.563   7.004   5.980 -0.2691 -0.2700 -1.3048
 6125TIP3    H218329   7.475   6.889   6.023 -0.4678  0.4986  0.3795
 6126TIP3   OH218330   5.179   0.861   5.653  0.7082  1.1558 -0.6216
 6126TIP3    H118331   5.131   0.847   5.735 -0.1967 -0.8974 -1.4455
 6126TIP3    H218332   5.172   0.955   5.636  3.3397  2.1553  3.0876
 6127TIP3   OH218333   7.618   7.068   0.032 -0.5415 -1.0154 -0.3971
 6127TIP3    H118334   7.568   7.106  -0.040 -1.2820 -0.7105  0.2746
 6127TIP3    H218335   7.582   7.109   0.111  1.1569 -0.3388  0.0528
 6128TIP3   OH218336   5.064   3.075   3.011  0.0970  0.2810  0.5114
 6128TIP3    H118337   5.067   3.152   2.954 -0.0837  0.5969  0.9287
 6128TIP3    H218338   4.988   3.026   2.980  0.1821  0.2928  0.2789
 6129TIP3   OH218339   4.175   3.223   1.780  0.3585  0.2664  0.1931
 6129TIP3    H118340   4.115   3.231   1.854 -0.2467  1.2142 -0.4023
 6129TIP3    H218341   4.192   3.313   1.753 -0.3940 -0.1254 -1.6138
 6130TIP3   OH218342   3.221   4.306   2.898  0.5327 -0.4655  0.1014
 6130TIP3    H118343   3.196   4.338   2.811  1.1105 -1.1857 -0.3421
 6130TIP3    H218344   3.162   4.232   2.913 -0.3454  0.3712  0.8289
 6131TIP3   OH218345   5.894   3.703   3.813 -0.2854  0.4314 -0.2085
 6131TIP3    H118346   5.824   3.666   3.759 -0.6575  0.2649  0.3915
 6131TIP3    H218347   5.853   3.721   3.897  0.9571 -1.7980  0.9064
 6132TIP3   OH218348   5.389   3.624   2.936  0.0338 -0.1494 -0.1811
 6132TIP3    H118349   5.340   3.596   3.013  0.7974 -0.3351  0.2406
 6132TIP3    H218350   5.356   3.569   2.865  1.4445 -2.0827  0.6145
 6133TIP3   OH218351   5.435   2.927   2.751  0.5946  0.2863 -0.2288
 6133TIP3    H118352   5.458   2.892   2.837  1.8899  0.3015 -0.5592
 6133TIP3    H218353   5.342   2.906   2.740  0.7182 -0.7439  0.6750
 6134TIP3   OH218354   2.741   2.327   2.992  0.2251  0.2498  0.0977
 6134TIP3    H118355   2.662   2.380   2.984  0.2461  0.2448 -0.1383
 6134TIP3    H218356   2.759   2.297   2.902 -0.6251 -1.3506  0.4374
 6135TIP3   OH218357   6.691   2.826   2.018  0.2714 -1.1029 -0.5405
 6135TIP3    H118358   6.599   2.822   2.045 -0.2528  0.0598 -2.0908
 6135TIP3    H218359   6.707   2.742   1.975 -0.0172 -1.3539 -0.1696
 6136TIP3   OH218360   7.181   1.458   3.903 -0.5118 -0.0146 -0.1158
 6136TIP3    H118361   7.099   1.504   3.919 -1.0059 -0.6610 -0.7727
 6136TIP3    H218362   7.169   1.372   3.943 -0.4489 -0.3867 -0.8841
 6137TIP3   OH218363   5.886   2.571   3.509  0.5547 -0.4766  0.5137
 6137TIP3    H118364   5.838   2.581   3.426  0.1832  0.2946  0.8092
 6137TIP3    H218365   5.973   2.541   3.484  0.6074  0.2615 -0.1987
 6138TIP3   OH218366   5.585   4.124   2.369 -0.5434 -0.1282 -0.3725
 6138TIP3    H118367   5.565   4.050   2.428 -0.4131  1.0360  1.1774
 6138TIP3    H218368   5.676   4.145   2.388 -0.5605  0.3809 -0.8633
 6139TIP3   OH218369   5.132   4.851   3.287 -0.4059  0.3086  0.3227
 6139TIP3    H118370   5.195   4.906   3.240  0.5973 -0.5788  0.6267
 6139TIP3    H218371   5.070   4.822   3.219  1.1032 -1.0718 -0.4954
 6140TIP3   OH218372   5.880   2.611   4.278 -0.2070  0.5419  0.2646
 6140TIP3    H118373   5.849   2.701   4.278 -1.5930  0.0768 -0.8931
 6140TIP3    H218374   5.840   2.571   4.355 -0.4007  0.6503  0.2195
 6141TIP3   OH218375   5.613   1.763   4.647 -0.8144 -0.2918  0.6138
 6141TIP3    H118376   5.646   1.794   4.732  1.0047 -2.3368  0.7017
 6141TIP3    H218377   5.595   1.670   4.662 -0.8462 -0.5748 -1.1381
 6142TIP3   OH218378   4.663   4.017   3.450 -0.1134 -0.1326 -0.5475
 6142TIP3    H118379   4.587   4.070   3.423 -0.1653 -0.0479 -0.2387
 6142TIP3    H218380   4.701   4.066   3.523  0.6941  0.2240 -1.1969
 6143TIP3   OH218381   5.449   3.275   3.009  0.0693 -0.3850 -0.2096
 6143TIP3    H118382   5.434   3.181   3.007  3.0251 -0.9136  0.2952
 6143TIP3    H218383   5.402   3.305   3.087 -0.7038 -1.4752 -0.2546
 6144TIP3   OH218384   6.617   3.398   4.136  0.5400 -0.6095 -0.0969
 6144TIP3    H118385   6.638   3.309   4.108  1.0922 -0.0426 -1.5304
 6144TIP3    H218386   6.698   3.447   4.125  0.7729 -0.3245  2.4864
 6145TIP3   OH218387   4.438   2.320   3.891 -0.3637 -0.3637 -0.2654
 6145TIP3    H118388   4.423   2.415   3.896 -0.8133 -0.4789  0.7607
 6145TIP3    H218389   4.352   2.282   3.910 -0.1677 -0.9853 -0.6182
 6146TIP3   OH218390   5.000   3.492   3.987  0.0239  0.8484  0.1928
 6146TIP3    H118391   4.948   3.568   4.012  1.3633  1.4705  1.1386
 6146TIP3    H218392   5.006   3.439   4.066  0.7128  0.7125  0.0546
 6147TIP3   OH218393   4.732   1.828   5.578 -0.3236 -0.1323 -0.0811
 6147TIP3    H118394   4.658   1.885   5.556 -0.0759  0.2541  0.0857
 6147TIP3    H218395   4.808   1.870   5.537 -0.1840 -0.4904 -0.1924
 6148TIP3   OH218396   7.672   6.792   0.048 -0.1371  0.4635  0.5015
 6148TIP3    H118397   7.647   6.884   0.044 -1.2147  0.1612  0.2210
 6148TIP3    H218398   7.744   6.784  -0.015 -1.4892  0.6716 -1.0874
 6149TIP3   OH218399   6.664   2.569   5.523 -0.3804  0.0757 -0.0032
 6149TIP3    H118400   6.683   2.489   5.473  1.0503  0.8484 -0.7390
 6149TIP3    H218401   6.582   2.601   5.487  0.7646  0.7621 -2.0738
 6150TIP3   OH218402   1.936   1.619   5.352 -0.3427  0.0058 -0.3412
 6150TIP3    H118403   1.924   1.531   5.316  0.7002 -0.4173  0.3411
 6150TIP3    H218404   1.888   1.618   5.435 -0.4086  0.1199 -0.3769
 6151TIP3   OH218405   3.319   3.008   3.812 -0.6487 -0.4727  0.2176
 6151TIP3    H118406   3.271   3.079   3.855 -0.3980 -0.9696  1.3577
 6151TIP3    H218407   3.411   3.035   3.819 -0.6082 -0.5500 -0.0244
 6152TIP3   OH218408   4.246   2.778   4.300 -0.0972  0.3470  0.4319
 6152TIP3    H118409   4.252   2.683   4.298  0.1070  0.3525  0.7754
 6152TIP3    H218410   4.326   2.808   4.256 -0.5473  0.3519 -0.3864
 6153TIP3   OH218411   4.659   3.837   4.754  0.3921  0.6706 -0.1432
 6153TIP3    H118412   4.681   3.915   4.702  0.5373  1.3299  0.8996
 6153TIP3    H218413   4.701   3.852   4.838 -0.3088 -0.1377  0.3564
 6154TIP3   OH218414   6.011   2.954   4.046 -0.2818 -0.0041 -0.2028
 6154TIP3    H118415   6.006   2.897   3.968  1.6827 -0.2293 -0.1894
 6154TIP3    H218416   6.102   2.982   4.049 -0.9719  2.2152  0.4871
 6155TIP3   OH218417   4.814   2.865   4.187  0.2013 -0.0504  0.2082
 6155TIP3    H118418   4.895   2.817   4.170 -0.2233 -1.0543  1.0078
 6155TIP3    H218419   4.840   2.957   4.181  1.6578 -0.3444  1.5924
 6156TIP3   OH218420   4.693   3.791   5.698 -0.2197 -0.2098  0.2757
 6156TIP3    H118421   4.632   3.733   5.743  2.8183 -2.5694  1.5009
 6156TIP3    H218422   4.767   3.799   5.758  1.0800  1.9288 -1.5225
 6157TIP3   OH218423   3.325   1.767   4.334 -0.0428  0.4197  0.2478
 6157TIP3    H118424   3.289   1.855   4.343 -1.0448 -0.0198  0.6443
 6157TIP3    H218425   3.398   1.777   4.274 -2.0973  0.9908 -2.2484
 6158TIP3   OH218426   4.531   3.201   4.639 -0.1833  0.3204 -0.5632
 6158TIP3    H118427   4.585   3.140   4.691 -0.7227 -1.1443 -1.6834
 6158TIP3    H218428   4.590   3.233   4.571  0.5054  2.1917  0.8641
 6159TIP3   OH218429   5.140   3.530   3.706  0.5156  0.2644 -0.2041
 6159TIP3    H118430   5.082   3.573   3.643  0.3275  1.3720  0.7101
 6159TIP3    H218431   5.111   3.563   3.791  0.5852 -1.4129  0.5011
 6160TIP3   OH218432   4.685   2.716   6.105  0.4770 -0.6068  0.0749
 6160TIP3    H118433   4.648   2.760   6.028  0.2156 -0.9430  0.0070
 6160TIP3    H218434   4.609   2.677   6.149  0.6623 -0.6742  0.3377
 6161TIP3   OH218435   4.373   2.549   6.050 -0.3168 -0.2353 -0.0176
 6161TIP3    H118436   4.313   2.602   6.103 -0.3293  0.1905 -0.4558
 6161TIP3    H218437   4.329   2.541   5.965  0.0053 -0.3690 -0.1711
 6162TIP3   OH218438   4.995   7.419   4.619  0.4539 -0.0551 -0.2628
 6162TIP3    H118439   4.955   7.397   4.702 -4.3696  2.5875 -1.7018
 6162TIP3    H218440   4.954   7.360   4.556  1.4186  0.3470 -1.2948
 6163TIP3   OH218441   5.925   0.958   5.867 -0.3034 -0.0103  0.0806
 6163TIP3    H118442   5.891   0.911   5.943 -3.6669  0.4535 -1.0340
 6163TIP3    H218443   5.930   1.049   5.896  1.9010 -0.3605  0.8462
 6164TIP3   OH218444   4.321   3.907   6.212 -0.2555  0.9152 -0.1924
 6164TIP3    H118445   4.389   3.890   6.278  0.1329 -1.8203 -1.2395
 6164TIP3    H218446   4.241   3.870   6.249 -0.1659 -0.0817 -0.9858
 6165TIP3   OH218447   3.500   5.314   4.612 -0.1853  0.4214 -0.3270
 6165TIP3    H118448   3.553   5.369   4.554  2.2577  0.0888  1.5070
 6165TIP3    H218449   3.502   5.358   4.696  0.8342 -1.8556  0.8917
 6166TIP3   OH218450   2.179   1.368   1.702  0.4297 -0.1646  0.7514
 6166TIP3    H118451   2.214   1.389   1.788  2.7055  2.0030 -0.6259
 6166TIP3    H218452   2.243   1.404   1.641 -1.4950 -1.0141 -1.8654
 6167TIP3   OH218453   4.349   4.111   4.355 -0.3367 -0.0334  0.6832
 6167TIP3    H118454   4.371   4.043   4.419 -1.0607 -1.4880 -0.5721
 6167TIP3    H218455   4.283   4.071   4.299 -0.9318  1.8008  0.0420
 6168TIP3   OH218456   4.707   2.170   5.067  0.0082  0.5492 -0.3906
 6168TIP3    H118457   4.794   2.148   5.099  0.5032  2.4679 -0.3010
 6168TIP3    H218458   4.647   2.139   5.135  0.4441 -2.5372 -1.3606
 6169TIP3   OH218459   3.024   1.947   2.967 -0.2131 -0.1100 -0.5031
 6169TIP3    H118460   2.966   1.994   2.906 -1.2260 -1.4856 -0.6219
 6169TIP3    H218461   3.058   1.874   2.916 -0.7038 -1.0071  0.4420
 6170TIP3   OH218462   1.822   2.819   4.847 -0.5684 -1.1629 -0.1345
 6170TIP3    H118463   1.805   2.908   4.815 -1.6812 -0.7146  1.6198
 6170TIP3    H218464   1.787   2.762   4.779  0.6710 -0.2560 -1.5456
 6171TIP3   OH218465   3.256   1.308   6.119  0.2081 -0.4026 -0.6101
 6171TIP3    H118466   3.331   1.324   6.178  1.1150  2.1839 -2.3827
 6171TIP3    H218467   3.289   1.244   6.056  1.6166  1.9975 -2.4322
 6172TIP3   OH218468   7.259   2.643   5.708  0.2861  0.4263  0.1838
 6172TIP3    H118469   7.340   2.693   5.698  0.6740 -0.0589  0.8841
 6172TIP3    H218470   7.279   2.578   5.775 -1.2055  1.4117  1.6292
 6173TIP3   OH218471   4.615   4.092   3.146 -0.1968 -0.1570 -0.2455
 6173TIP3    H118472   4.581   4.050   3.225  0.6017 -0.5968 -0.1384
 6173TIP3    H218473   4.542   4.087   3.084 -1.3408  1.4939  0.9269
 6174TIP3   OH218474   1.625   1.623   5.540  1.0074  0.1756 -0.0818
 6174TIP3    H118475   1.636   1.557   5.471  1.2535  0.2293 -0.0945
 6174TIP3    H218476   1.610   1.705   5.492  0.0876  0.0209 -0.0570
 6175TIP3   OH218477   4.314   0.982   4.527  0.0924 -0.2273 -0.4035
 6175TIP3    H118478   4.289   1.064   4.569  1.4516 -0.1726  0.3172
 6175TIP3    H218479   4.272   0.914   4.580  0.4485 -0.0842  0.0566
 6176TIP3   OH218480   1.144   6.100   1.946  0.4838  0.4354  0.1116
 6176TIP3    H118481   1.172   6.130   1.859  0.0884 -2.1473 -0.9537
 6176TIP3    H218482   1.053   6.073   1.934  0.9731 -1.6101  0.8872
 6177TIP3   OH218483   3.996   2.761   5.359  0.0498  0.5632  0.3343
 6177TIP3    H118484   4.073   2.811   5.332 -0.7382  2.1531  1.0411
 6177TIP3    H218485   4.015   2.733   5.448 -0.2381  1.0362  0.5426
 6178TIP3   OH218486   4.306   3.682   3.711 -0.3458 -0.0057  0.0255
 6178TIP3    H118487   4.227   3.665   3.762 -0.7859  1.7887 -0.0141
 6178TIP3    H218488   4.273   3.700   3.623  0.1165  0.6457 -0.0132
 6179TIP3   OH218489   3.855   2.075   1.850 -0.0328  0.1510 -0.2086
 6179TIP3    H118490   3.769   2.082   1.891  0.6308  0.0017  1.2240
 6179TIP3    H218491   3.909   2.140   1.895  0.8876 -0.4712 -0.3916
 6180TIP3   OH218492   5.330   3.062   3.113  0.1243  0.4353 -0.1736
 6180TIP3    H118493   5.245   3.055   3.068  0.1006 -1.2062  0.0939
 6180TIP3    H218494   5.308   3.076   3.205  0.1423  0.6848 -0.2083
 6181TIP3   OH218495   5.806   2.306   6.154 -0.2766 -0.0057  0.4423
 6181TIP3    H118496   5.805   2.286   6.247 -2.3552  0.2623  0.5112
 6181TIP3    H218497   5.862   2.383   6.145  0.7472 -0.6416  1.3211
 6182TIP3   OH218498   3.447   2.782   0.623  0.1401  0.4696  0.1901
 6182TIP3    H118499   3.368   2.729   0.621 -0.6032  1.4488  2.2927
 6182TIP3    H218500   3.518   2.718   0.622 -0.7286 -0.5399  1.4904
 6183TIP3   OH218501   4.623   3.407   4.826 -0.2524 -0.7751 -0.2577
 6183TIP3    H118502   4.569   3.334   4.794  0.3192 -2.6571  2.8220
 6183TIP3    H218503   4.706   3.397   4.779 -0.7982 -0.9736 -1.2084
 6184TIP3   OH218504   7.504   4.703   1.507 -0.1754  0.4209 -0.2911
 6184TIP3    H118505   7.542   4.615   1.512  0.3302  0.6988  0.7956
 6184TIP3    H218506   7.463   4.716   1.592 -0.5486  1.1026 -0.5767
 6185TIP3   OH218507   6.191   2.928   0.292  0.1631 -0.2349 -0.1343
 6185TIP3    H118508   6.102   2.896   0.308 -0.0942 -0.5337 -2.0505
 6185TIP3    H218509   6.219   2.882   0.214  1.5251  0.8246 -0.2854
 6186TIP3   OH218510   4.338   1.687   2.119  0.0055  0.1324  0.3799
 6186TIP3    H118511   4.292   1.613   2.079  1.8015 -0.7017 -0.1687
 6186TIP3    H218512   4.334   1.756   2.052 -1.1126  0.3372  0.6451
 6187TIP3   OH218513   5.463   3.279   5.506 -0.3207  0.3537 -0.6025
 6187TIP3    H118514   5.449   3.194   5.464 -0.5880  1.3589 -2.6134
 6187TIP3    H218515   5.411   3.341   5.454 -0.4308  1.6927  1.0630
 6188TIP3   OH218516   5.037   2.053   4.121  0.0238 -0.3286  0.1712
 6188TIP3    H118517   5.111   2.045   4.181  0.6544  1.1871 -0.4115
 6188TIP3    H218518   4.993   2.134   4.147 -0.5703 -0.4418 -0.4604
 6189TIP3   OH218519   5.753   1.295   0.625  0.2613  0.0394  0.1064
 6189TIP3    H118520   5.767   1.253   0.540 -2.8031  0.1163 -0.4964
 6189TIP3    H218521   5.818   1.255   0.682  0.1870 -2.4400 -1.4687
 6190TIP3   OH218522   6.178   4.023   3.074  0.4006  0.5707 -0.1314
 6190TIP3    H118523   6.107   4.087   3.066 -0.4316 -0.3438 -0.1996
 6190TIP3    H218524   6.199   3.999   2.984  2.3790  2.5230 -0.2285
 6191TIP3   OH218525   6.053   2.980   4.849 -0.0959 -0.2960 -0.0761
 6191TIP3    H118526   6.017   2.951   4.765  1.2032 -0.9026 -0.4419
 6191TIP3    H218527   6.037   3.074   4.851 -2.0707 -0.6158 -0.0326
 6192TIP3   OH218528   6.162   2.573   3.044 -0.1900 -0.2353 -0.3059
 6192TIP3    H118529   6.258   2.572   3.038 -0.1680  0.3566 -0.0172
 6192TIP3    H218530   6.142   2.503   3.106  0.1809  1.1432  1.4070
 6193TIP3   OH218531   6.244   4.882   4.881 -0.1426  0.3441  0.1459
 6193TIP3    H118532   6.310   4.882   4.950 -1.8768 -1.1542  1.8570
 6193TIP3    H218533   6.161   4.876   4.927 -1.4326  0.7239 -2.0347
 6194TIP3   OH218534   5.103   2.810   3.746  0.3626  0.4172 -0.0937
 6194TIP3    H118535   5.139   2.860   3.673  2.0380  0.2521  0.5928
 6194TIP3    H218536   5.065   2.877   3.804  1.0691  0.7515 -0.0107
 6195TIP3   OH218537   6.707   0.751   3.800 -0.1117 -0.7250  0.1625
 6195TIP3    H118538   6.738   0.778   3.887  0.9102 -0.3285 -0.3176
 6195TIP3    H218539   6.712   0.830   3.747  1.6557 -1.5177 -0.9080
 6196TIP3   OH218540   7.496   1.895   2.410 -0.2442  0.2020 -0.5630
 6196TIP3    H118541   7.418   1.903   2.356 -0.2504 -0.2344 -0.6163
 6196TIP3    H218542   7.546   1.975   2.391 -0.7158  0.5188 -0.4625
 6197TIP3   OH218543   7.589   2.161   3.571 -0.0808 -0.2922 -0.3378
 6197TIP3    H118544   7.600   2.242   3.522  0.1226  0.4034  0.8444
 6197TIP3    H218545   7.586   2.093   3.504  0.2897  0.6320 -1.3092
 6198TIP3   OH218546   7.350   1.052   5.478 -0.2607 -0.0990 -0.7589
 6198TIP3    H118547   7.343   1.141   5.444  1.1640  0.1459 -0.4694
 6198TIP3    H218548   7.424   1.056   5.540 -2.2603 -0.7128  1.7559
 6199TIP3   OH218549   6.963   2.597   2.947  0.3459 -0.1550  0.2130
 6199TIP3    H118550   7.021   2.590   3.023 -0.5056  0.8762  0.9656
 6199TIP3    H218551   6.939   2.689   2.944 -0.9098 -0.4968 -0.3450
 6200TIP3   OH218552   6.491   2.725   5.355 -0.1594 -0.2321  0.2253
 6200TIP3    H118553   6.454   2.795   5.409  0.9403  0.4810  0.0675
 6200TIP3    H218554   6.460   2.743   5.267 -0.6655 -0.4947  0.3490
 6201TIP3   OH218555   6.276   2.982   2.941 -0.1767  0.4651 -0.5483
 6201TIP3    H118556   6.233   3.055   2.898  1.0285  1.3867 -0.2032
 6201TIP3    H218557   6.210   2.912   2.941 -1.0282  1.2523 -1.6613
 6202TIP3   OH218558   4.620   3.416   3.824  0.1315 -0.5802  0.1162
 6202TIP3    H118559   4.637   3.451   3.737  0.9362 -0.8551  0.1504
 6202TIP3    H218560   4.550   3.471   3.859  0.0825 -0.2139 -0.5487
 6203TIP3   OH218561   6.316   3.335   2.572 -0.1587  0.2811  0.2071
 6203TIP3    H118562   6.254   3.397   2.611  0.9124  1.0857  0.6652
 6203TIP3    H218563   6.362   3.297   2.647 -0.9662 -1.2606 -0.0539
 6204TIP3   OH218564   7.151   1.202   1.845  0.4757 -0.0932  0.5658
 6204TIP3    H118565   7.082   1.227   1.906  0.0706  1.1538 -0.3876
 6204TIP3    H218566   7.231   1.238   1.882  0.3852 -0.2067  0.8714
 6205TIP3   OH218567   5.719   1.165   5.618 -0.4199 -0.3998  0.3086
 6205TIP3    H118568   5.668   1.114   5.681  2.0905 -0.8782  2.0496
 6205TIP3    H218569   5.709   1.256   5.647 -2.8006 -0.1125 -1.2617
 6206TIP3   OH218570   6.255   4.827   1.811 -0.6349  0.4318 -0.3738
 6206TIP3    H118571   6.209   4.823   1.727 -1.3265  0.3863  0.0036
 6206TIP3    H218572   6.253   4.738   1.845  2.1982 -0.1836 -1.6387
 6207TIP3   OH218573   5.929   2.894   4.547 -0.2463  0.0023 -0.4237
 6207TIP3    H118574   5.911   2.893   4.453 -0.7963 -0.7435 -0.3110
 6207TIP3    H218575   5.924   2.987   4.571  0.1288  0.2144 -1.1754
 6208TIP3   OH218576   7.574   3.156   4.686 -0.0956  0.1346 -0.0787
 6208TIP3    H118577   7.621   3.206   4.619  0.4799  0.6765  0.7126
 6208TIP3    H218578   7.631   3.160   4.763  1.1620 -3.8177 -0.6742
 6209TIP3   OH218579   4.908   3.289   3.834 -1.1466 -0.4575 -0.6329
 6209TIP3    H118580   4.968   3.355   3.869 -2.1802  0.2058 -0.1077
 6209TIP3    H218581   4.821   3.323   3.852 -1.7041 -0.5646 -2.9798
 6210TIP3   OH218582   6.226   2.246   5.452 -0.0581 -0.3718  0.3303
 6210TIP3    H118583   6.198   2.186   5.520  0.5063 -1.9472 -0.7901
 6210TIP3    H218584   6.308   2.284   5.485  1.0485 -2.3044 -0.1042
 6211TIP3   OH218585   5.246   2.041   5.257  0.2827  0.5064  0.3126
 6211TIP3    H118586   5.278   1.965   5.306  1.9996  1.1001  0.1551
 6211TIP3    H218587   5.289   2.116   5.298 -2.9091  1.6521  1.7618
 6212TIP3   OH218588   6.550   2.518   3.877  0.3140 -0.1117  0.3175
 6212TIP3    H118589   6.491   2.551   3.945  1.2676 -1.3596  1.8028
 6212TIP3    H218590   6.633   2.562   3.895 -0.2805  2.1275 -2.1552
 6213TIP3   OH218591   7.028   2.855   2.345 -0.3698 -0.3379  0.3135
 6213TIP3    H118592   6.955   2.817   2.394 -0.8673 -0.3165 -0.3947
 6213TIP3    H218593   7.022   2.815   2.258 -2.0488  2.6850 -1.0648
 6214TIP3   OH218594   6.890   2.166   6.134  0.4828  0.3891 -0.2104
 6214TIP3    H118595   6.869   2.184   6.042  0.9789  0.2806 -0.3447
 6214TIP3    H218596   6.916   2.251   6.169  0.2059  0.4479 -0.1433
 6215TIP3   OH218597   5.708   3.744   4.037  0.1449 -0.3734 -0.3045
 6215TIP3    H118598   5.630   3.730   3.984  0.2132  0.1119 -0.5348
 6215TIP3    H218599   5.687   3.818   4.093  0.2618 -0.5552 -0.0138
 6216TIP3   OH218600   6.542   4.012   4.558  0.4042  0.4303  0.1345
 6216TIP3    H118601   6.513   3.921   4.567 -0.2781  0.2373 -3.2552
 6216TIP3    H218602   6.471   4.064   4.596 -0.0457 -0.3796  0.4109
 6217TIP3   OH218603   6.141   4.296   3.755 -0.5877  0.4461  0.2695
 6217TIP3    H118604   6.059   4.260   3.790  0.2805  0.9285  2.9243
 6217TIP3    H218605   6.128   4.391   3.756 -0.9043  0.4322 -1.6716
 6218TIP3   OH218606   6.211   4.134   3.529  0.0814 -0.2706 -0.0399
 6218TIP3    H118607   6.143   4.184   3.484  0.7546 -0.1499 -0.9184
 6218TIP3    H218608   6.204   4.162   3.621  0.3175  1.2929 -0.4837
 6219TIP3   OH218609   6.732   1.789   4.742  0.6249  0.0405 -0.3641
 6219TIP3    H118610   6.789   1.772   4.667  3.0732  0.8323  1.2474
 6219TIP3    H218611   6.703   1.702   4.770  2.0341 -0.4929 -0.4956
 6220TIP3   OH218612   7.476   3.513   4.575  0.2077 -1.1267  0.0636
 6220TIP3    H118613   7.404   3.453   4.593  0.7068 -1.7565 -0.0167
 6220TIP3    H218614   7.437   3.600   4.581 -0.7882 -1.4875 -0.9841
 6221TIP3   OH218615   1.021   2.387   5.002 -0.3426 -0.2108  0.2037
 6221TIP3    H118616   1.006   2.481   5.014  0.1784 -0.2160  0.9358
 6221TIP3    H218617   1.057   2.358   5.086  0.1853 -0.9193 -0.2660
 6222TIP3   OH218618   7.080   0.684   5.097  0.1520 -0.5649 -0.3541
 6222TIP3    H118619   7.033   0.704   5.016 -0.4821 -1.3413 -0.1872
 6222TIP3    H218620   7.134   0.608   5.075  0.3271 -0.4933 -0.1747
 6223TIP3   OH218621   5.291   2.139   3.411  0.2971  0.0129 -0.7295
 6223TIP3    H118622   5.214   2.112   3.361 -0.4917  1.3617 -0.2780
 6223TIP3    H218623   5.257   2.166   3.496  1.2920  0.4695 -0.4628
 6224TIP3   OH218624   6.898   2.096   2.401 -0.1576 -0.2282  0.1192
 6224TIP3    H118625   6.804   2.102   2.415 -0.4755  1.7724 -2.4819
 6224TIP3    H218626   6.937   2.132   2.481 -1.6793  1.9889 -0.0914
 6225TIP3   OH218627   6.821   5.092   3.571 -0.6875  0.8780  0.1491
 6225TIP3    H118628   6.835   5.177   3.613 -1.2749  0.0818  1.9955
 6225TIP3    H218629   6.909   5.062   3.548 -0.5220  2.2829 -1.1685
 6226TIP3   OH218630   5.452   2.284   3.958 -0.3866 -0.5648 -0.3961
 6226TIP3    H118631   5.500   2.350   4.008 -1.1771 -0.0050 -0.3726
 6226TIP3    H218632   5.505   2.269   3.880 -0.2138  0.0986 -0.4066
 6227TIP3   OH218633   5.721   1.235   1.283  0.6552 -0.3344 -0.4718
 6227TIP3    H118634   5.738   1.319   1.326  0.7302 -0.8458  0.5204
 6227TIP3    H218635   5.639   1.249   1.235  0.9710  0.4755 -0.7760
 6228TIP3   OH218636   6.800   1.084   5.228  0.6771 -0.3244 -0.0933
 6228TIP3    H118637   6.728   1.027   5.257  0.6446 -0.2055  0.0609
 6228TIP3    H218638   6.845   1.109   5.309  1.4005 -1.0772 -0.2454
 6229TIP3   OH218639   6.257   3.486   3.436  0.1908 -0.0541 -0.1994
 6229TIP3    H118640   6.238   3.518   3.348  0.6792 -0.4155 -0.4419
 6229TIP3    H218641   6.239   3.392   3.432 -1.8962  0.2851  0.6932
 6230TIP3   OH218642   5.427   4.211   4.321  0.2090 -1.2239 -0.2115
 6230TIP3    H118643   5.456   4.123   4.346 -0.8843 -2.2653 -2.4258
 6230TIP3    H218644   5.421   4.208   4.226  3.5254  2.3705 -0.6265
 6231TIP3   OH218645   6.568   2.484   4.254 -0.2459  0.3542  0.4203
 6231TIP3    H118646   6.582   2.404   4.203  0.5524  0.3165  0.6961
 6231TIP3    H218647   6.650   2.497   4.302 -0.4485  1.2236  0.5392
 6232TIP3   OH218648   4.921   2.265   3.814  0.1710 -0.6535  0.2128
 6232TIP3    H118649   5.015   2.272   3.834  0.5432 -2.8365 -0.5778
 6232TIP3    H218650   4.908   2.320   3.737  0.5519  0.6357  1.0605
 6233TIP3   OH218651   0.604   2.592   4.084 -0.2744 -0.4283 -0.4128
 6233TIP3    H118652   0.528   2.645   4.058  0.4046  0.6231 -0.3150
 6233TIP3    H218653   0.571   2.503   4.091 -1.4948  0.0220 -0.3894
 6234TIP3   OH218654   0.842   5.713   5.867  0.7001  0.0290 -0.1208
 6234TIP3    H118655   0.829   5.671   5.782 -1.2129  0.2080  0.0703
 6234TIP3    H218656   0.868   5.803   5.845 -0.6546  0.3346 -0.5377
 6235TIP3   OH218657   6.439   4.365   5.632 -0.5030  0.4805  0.0509
 6235TIP3    H118658   6.501   4.436   5.648 -0.7810  0.9855 -1.0176
 6235TIP3    H218659   6.460   4.336   5.543  0.1591 -1.3358  0.7885
 6236TIP3   OH218660   0.525   1.233   5.679 -0.1203  0.0200 -0.0883
 6236TIP3    H118661   0.605   1.209   5.726 -0.4876 -2.2286 -0.5332
 6236TIP3    H218662   0.541   1.207   5.588 -0.6249  1.3614 -0.5711
 6237TIP3   OH218663   3.891   2.556   2.759 -0.4622  0.0384 -0.5015
 6237TIP3    H118664   3.873   2.576   2.667  0.5876  1.0663 -0.5036
 6237TIP3    H218665   3.950   2.481   2.756  2.9183  2.6157 -0.8512
 6238TIP3   OH218666   3.507   3.949   4.428  0.3238 -0.2916  0.0254
 6238TIP3    H118667   3.521   3.854   4.431 -0.8719 -0.4673  0.2012
 6238TIP3    H218668   3.417   3.959   4.397  1.0397  0.8197 -1.7751
 6239TIP3   OH218669   7.196   5.204   3.917 -0.2838  0.5926  0.4559
 6239TIP3    H118670   7.108   5.167   3.911 -0.5105  0.9827  1.1865
 6239TIP3    H218671   7.241   5.149   3.981 -0.4734  1.2751  1.1900
 6240TIP3   OH218672   6.852   4.219   3.317  0.1513 -0.1338  0.1232
 6240TIP3    H118673   6.892   4.184   3.397  2.0105  0.9295 -0.3178
 6240TIP3    H218674   6.876   4.311   3.317 -2.2940  0.5486 -0.1922
 6241TIP3   OH218675   0.618   2.587   3.188  0.7405  0.7515  0.5258
 6241TIP3    H118676   0.643   2.675   3.160  1.8063 -0.0326 -1.0631
 6241TIP3    H218677   0.621   2.534   3.108 -1.1263 -0.4618  1.2317
 6242TIP3   OH218678   6.043   2.643   5.271  0.2751 -0.3867  0.1430
 6242TIP3    H118679   6.106   2.571   5.261  1.5056  0.8153 -1.0309
 6242TIP3    H218680   5.970   2.618   5.215  1.9028  0.5512 -2.5180
 6243TIP3   OH218681   4.866   4.032   4.728  0.6157  0.2254 -0.2426
 6243TIP3    H118682   4.923   4.109   4.728  0.1370  0.5823 -1.3352
 6243TIP3    H218683   4.901   3.977   4.799 -0.4299  2.4361  2.0369
 6244TIP3   OH218684   6.665   1.539   3.971 -0.0085  0.1643 -0.9812
 6244TIP3    H118685   6.591   1.555   3.912  0.4087  0.3269 -1.4639
 6244TIP3    H218686   6.683   1.625   4.010 -0.7786 -0.0950 -0.0245
 6245TIP3   OH218687   6.763   3.550   4.378 -0.1378 -0.4131  0.0240
 6245TIP3    H118688   6.707   3.596   4.441  0.1632 -0.8226  0.5912
 6245TIP3    H218689   6.726   3.462   4.373 -1.2824  0.1439 -1.7691
 6246TIP3   OH218690   4.534   3.615   1.218  0.4823 -0.0663 -0.1068
 6246TIP3    H118691   4.487   3.532   1.226 -0.3002  0.4029  0.2179
 6246TIP3    H218692   4.560   3.619   1.127  0.1582 -0.4734 -0.2204
 6247TIP3   OH218693   5.190   1.512   2.425  0.0172  0.4749  0.7396
 6247TIP3    H118694   5.159   1.562   2.500 -1.5566  1.1456 -0.3314
 6247TIP3    H218695   5.131   1.437   2.421 -0.1602  0.6542 -0.0606
 6248TIP3   OH218696   5.003   3.494   3.281  1.4299 -0.3961 -0.0314
 6248TIP3    H118697   4.981   3.401   3.278  3.5883 -0.8814 -0.9596
 6248TIP3    H218698   4.949   3.533   3.212  3.6343 -1.6284 -2.5017
 6249TIP3   OH218699   5.618   3.386   3.844  0.4662  0.0851  0.2437
 6249TIP3    H118700   5.705   3.348   3.830  0.2555  0.1116 -1.2840
 6249TIP3    H218701   5.617   3.412   3.936  1.1599 -2.2375  0.9380
 6250TIP3   OH218702   6.608   7.009   2.970  0.4311 -0.7089 -0.0551
 6250TIP3    H118703   6.536   7.071   2.963  0.9488 -0.1290 -0.3130
 6250TIP3    H218704   6.566   6.923   2.970 -0.2166 -0.4083 -0.9911
 6251TIP3   OH218705   7.729   1.236   5.917  0.3437  0.6164  0.0311
 6251TIP3    H118706   7.650   1.291   5.921 -0.3324 -0.2362 -1.2996
 6251TIP3    H218707   7.797   1.294   5.883  0.0059  1.0365  0.0634
 6252TIP3   OH218708   7.412   3.322   5.061 -0.4456  0.3255  0.1043
 6252TIP3    H118709   7.351   3.396   5.067 -1.9908 -0.7587 -1.4284
 6252TIP3    H218710   7.355   3.247   5.042  1.3319 -0.8027 -0.8663
 6253TIP3   OH218711   3.836   2.397   5.173  0.2595 -0.3529 -0.1285
 6253TIP3    H118712   3.831   2.303   5.158  1.3001 -0.7190  1.6477
 6253TIP3    H218713   3.899   2.406   5.244 -0.8769  1.5871  0.6740
 6254TIP3   OH218714   5.576   1.284   4.801 -0.1474 -0.1907  0.1370
 6254TIP3    H118715   5.566   1.327   4.886 -0.1249  0.5241 -0.2227
 6254TIP3    H218716   5.669   1.260   4.797  0.0420  0.5678 -0.0639
 6255TIP3   OH218717   7.007   1.977   3.645 -0.1814  0.5223 -0.4285
 6255TIP3    H118718   7.050   2.046   3.595  2.8100  0.1430  1.5107
 6255TIP3    H218719   7.058   1.898   3.627 -0.6925 -0.1846  1.0869
 6256TIP3   OH218720   2.093   7.375   5.030 -0.0235  0.4748  0.0188
 6256TIP3    H118721   2.070   7.329   5.111  1.1142  0.8352  0.5605
 6256TIP3    H218722   2.009   7.406   4.996 -0.7898 -1.6989 -0.1929
 6257TIP3   OH218723   6.480   1.459   3.611  0.0861 -0.1922 -0.4541
 6257TIP3    H118724   6.398   1.487   3.571  0.4325 -0.6088 -1.4648
 6257TIP3    H218725   6.505   1.531   3.668  0.6778  1.3398 -2.5982
 6258TIP3   OH218726   0.712   4.136   4.109 -0.0179 -0.0189  0.1946
 6258TIP3    H118727   0.677   4.182   4.033 -0.2792 -0.0644  0.2876
 6258TIP3    H218728   0.671   4.178   4.184  0.2800  0.0602  0.3134
 6259TIP3   OH218729   6.620   2.055   2.442 -0.0118 -0.2070  0.1016
 6259TIP3    H118730   6.561   2.110   2.493  1.1487  0.3077  0.9310
 6259TIP3    H218731   6.581   2.051   2.355 -0.0351  2.0730 -0.0181
 6260TIP3   OH218732   6.809   3.291   2.694  0.1685  0.8718 -0.2826
 6260TIP3    H118733   6.873   3.241   2.744 -0.1445  0.4531 -0.2990
 6260TIP3    H218734   6.805   3.376   2.738  0.2779  0.6848  0.0894
 6261TIP3   OH218735   6.717   1.178   6.264 -0.2366  0.4521  0.5908
 6261TIP3    H118736   6.757   1.136   6.188 -0.1139 -0.6201  1.2466
 6261TIP3    H218737   6.783   1.172   6.333 -1.5521 -1.4752  1.7301
 6262TIP3   OH218738   7.865   2.301   4.182 -0.2528  0.1486 -0.4107
 6262TIP3    H118739   7.905   2.216   4.167  1.0657  0.6767  0.0328
 6262TIP3    H218740   7.823   2.322   4.099 -1.1950 -1.2356 -0.3026
 6263TIP3   OH218741   7.114   1.298   5.220  0.4554  0.0972  0.0041
 6263TIP3    H118742   7.142   1.389   5.222  0.5227  0.1059 -1.2020
 6263TIP3    H218743   7.079   1.282   5.308 -4.8842  2.9337 -1.3936
 6264TIP3   OH218744   4.446   3.574   4.030  0.1837 -0.1271  0.1435
 6264TIP3    H118745   4.417   3.488   4.060  1.8054 -0.2883  1.3177
 6264TIP3    H218746   4.365   3.625   4.021 -0.8648 -2.0291 -1.4524
 6265TIP3   OH218747   0.074   3.590   2.360  0.1059 -0.1420 -0.1053
 6265TIP3    H118748   0.116   3.618   2.279 -0.4506 -1.9722 -1.0469
 6265TIP3    H218749  -0.020   3.595   2.341 -0.1030  1.6977  1.2280
 6266TIP3   OH218750   6.768   3.390   4.980  0.4466 -0.5007  0.1549
 6266TIP3    H118751   6.730   3.347   5.057  0.3605 -0.1140  0.3264
 6266TIP3    H218752   6.694   3.406   4.922  0.3862 -0.0145  0.3626
 6267TIP3   OH218753   0.518   4.019   0.465  0.3074  0.3688 -0.9312
 6267TIP3    H118754   0.603   4.062   0.452  0.0989  0.8829 -0.5882
 6267TIP3    H218755   0.497   3.983   0.378  0.9489  0.0913 -0.9796
 6268TIP3   OH218756   5.807   2.939   2.584  0.3385  0.5350  0.2342
 6268TIP3    H118757   5.745   2.960   2.653 -0.8536 -0.3855 -0.5410
 6268TIP3    H218758   5.824   2.846   2.595  2.1898  0.9367  0.9180
 6269TIP3   OH218759   7.245   2.267   4.271 -0.2182 -0.4660 -0.6191
 6269TIP3    H118760   7.273   2.186   4.228  1.6138  0.0997 -0.5626
 6269TIP3    H218761   7.302   2.274   4.348 -1.0737  0.3432 -0.0392
 6270TIP3   OH218762   0.635   1.392   2.651 -0.2802 -0.7908  0.6354
 6270TIP3    H118763   0.678   1.307   2.658  1.0516 -0.0988  1.1016
 6270TIP3    H218764   0.569   1.381   2.583  0.5110 -1.9356  0.0510
 6271TIP3   OH218765   6.724   2.662   4.086 -0.5559 -0.1679 -0.0359
 6271TIP3    H118766   6.646   2.610   4.105  0.1438 -1.1394  0.2243
 6271TIP3    H218767   6.694   2.729   4.025 -1.8958  0.3542  1.1642
 6272TIP3   OH218768   7.284   2.179   2.548 -0.3965 -0.4228  0.3138
 6272TIP3    H118769   7.197   2.185   2.588  0.6479 -0.5419  2.7295
 6272TIP3    H218770   7.336   2.245   2.594  0.8911 -0.5964 -0.8584
 6273TIP3   OH218771   5.793   1.355   4.217  0.4839 -0.9750  0.4566
 6273TIP3    H118772   5.709   1.358   4.262  0.1879 -1.5863 -0.0409
 6273TIP3    H218773   5.858   1.369   4.286 -0.0031 -0.9901  0.9226
 6274TIP3   OH218774   6.373   3.485   1.992 -0.6137 -0.2652  0.2299
 6274TIP3    H118775   6.290   3.489   2.039 -0.8712 -0.3295 -0.2270
 6274TIP3    H218776   6.430   3.547   2.039 -0.4385 -1.3358  1.4887
 6275TIP3   OH218777   6.107   3.288   4.483 -0.1113 -0.2136 -0.4205
 6275TIP3    H118778   6.092   3.381   4.501  0.6088 -0.3129  0.6934
 6275TIP3    H218779   6.080   3.278   4.391 -1.0782  0.8882 -0.2800
 6276TIP3   OH218780   6.944   1.330   2.003  0.1709 -0.2207  0.4665
 6276TIP3    H118781   6.882   1.330   2.076  0.3044  1.2950  0.5901
 6276TIP3    H218782   7.019   1.380   2.035  1.2055 -1.5070  0.0942
 6277TIP3   OH218783   5.080   3.178   4.548 -0.2979  0.3470  0.0937
 6277TIP3    H118784   4.990   3.147   4.549  0.5017 -2.0393 -0.7573
 6277TIP3    H218785   5.098   3.200   4.640 -1.0742 -1.1369  0.6108
 6278TIP3   OH218786   0.076   1.210   1.090 -0.4693 -0.0774 -0.5221
 6278TIP3    H118787   0.125   1.134   1.060 -0.5561  0.3827 -1.8723
 6278TIP3    H218788   0.136   1.258   1.146 -0.6770 -1.5556  0.9986
 6279TIP3   OH218789   6.018   2.934   2.969  0.0944  0.7723  0.0296
 6279TIP3    H118790   5.988   2.995   2.901 -0.4049  0.2000 -0.2669
 6279TIP3    H218791   5.944   2.928   3.030 -1.1141 -1.9861 -1.6105
 6280TIP3   OH218792   7.028   5.692   2.559 -0.2942 -0.1381  0.1012
 6280TIP3    H118793   7.063   5.610   2.593  1.5410  1.0997  1.3027
 6280TIP3    H218794   7.044   5.688   2.465  0.1134 -0.9932  0.2032
 6281TIP3   OH218795   5.544   4.408   4.501 -0.5238 -0.1498 -0.4503
 6281TIP3    H118796   5.533   4.499   4.471  1.3611  0.3767  0.4001
 6281TIP3    H218797   5.523   4.355   4.424  0.3751  1.0650 -1.5644
 6282TIP3   OH218798   6.089   4.918   3.733  0.5024  0.1964 -0.0412
 6282TIP3    H118799   6.005   4.943   3.771  0.2834  1.3051 -1.2191
 6282TIP3    H218800   6.152   4.979   3.772  0.7274 -0.4778  0.6578
 6283TIP3   OH218801   4.629   4.490   2.957  0.4813 -0.4631  0.4168
 6283TIP3    H118802   4.571   4.531   3.020  0.7539 -1.4587  1.3191
 6283TIP3    H218803   4.602   4.526   2.872 -0.9566 -0.3856  0.9090
 6284TIP3   OH218804   5.433   3.730   4.588  0.0215 -0.4156  0.2902
 6284TIP3    H118805   5.340   3.706   4.582  0.2386 -1.7043  1.7737
 6284TIP3    H218806   5.465   3.681   4.663  1.5233  1.2923  0.7976
 6285TIP3   OH218807   4.436   2.723   4.807 -0.2633  0.1862 -0.2755
 6285TIP3    H118808   4.420   2.796   4.748  1.1372  1.7414  1.1861
 6285TIP3    H218809   4.407   2.755   4.893  2.0240 -0.2662  0.7122
 6286TIP3   OH218810   6.652   3.748   3.754 -0.0970  0.2982 -0.4175
 6286TIP3    H118811   6.622   3.704   3.675 -1.6293 -0.2603  0.4351
 6286TIP3    H218812   6.640   3.682   3.823  0.1388  1.1518  0.4445
 6287TIP3   OH218813   5.078   3.257   2.807 -0.5112 -0.4404  0.1534
 6287TIP3    H118814   5.147   3.324   2.808  0.8579 -1.7606 -1.4424
 6287TIP3    H218815   4.996   3.306   2.812  0.4529  1.3605 -1.1028
 6288TIP3   OH218816   0.243   3.431   4.666 -0.5552  0.0644 -0.1962
 6288TIP3    H118817   0.267   3.377   4.742 -0.9077  1.1688  0.7061
 6288TIP3    H218818   0.321   3.483   4.649 -0.9133  0.7333  0.2029
 6289TIP3   OH218819   6.476   4.592   4.600 -0.5985 -0.1217 -0.2288
 6289TIP3    H118820   6.558   4.634   4.623 -1.0157  0.4778  0.1778
 6289TIP3    H218821   6.449   4.635   4.519 -1.0010  0.3678  0.1618
 6290TIP3   OH218822   6.807   2.484   4.403 -0.1721 -0.4471  0.4170
 6290TIP3    H118823   6.802   2.535   4.484 -4.6218 -2.1700  1.3828
 6290TIP3    H218824   6.871   2.415   4.422  0.3878  0.4106  1.7024
 6291TIP3   OH218825   5.522   2.333   4.289 -0.4705  0.4834 -0.4108
 6291TIP3    H118826   5.561   2.272   4.226 -1.6728 -0.6358 -0.0973
 6291TIP3    H218827   5.428   2.315   4.284 -0.5831  0.4703  1.6312
 6292TIP3   OH218828   7.554   4.160   3.791  0.3988 -0.2873 -0.1365
 6292TIP3    H118829   7.471   4.118   3.771  0.5789 -0.5430 -0.3433
 6292TIP3    H218830   7.613   4.133   3.720  1.1661 -1.5956  0.9521
 6293TIP3   OH218831   1.905   7.399   0.132 -0.5045  0.1424 -0.3858
 6293TIP3    H118832   1.836   7.465   0.135 -1.6413 -1.0705  0.8330
 6293TIP3    H218833   1.967   7.425   0.201 -0.4651  0.4424 -0.5323
 6294TIP3   OH218834   6.523   2.797   3.939  0.0345 -0.3674 -0.4598
 6294TIP3    H118835   6.441   2.748   3.937  1.1066 -2.2059 -1.4553
 6294TIP3    H218836   6.505   2.877   3.890 -0.4350 -1.9838 -3.0223
 6295TIP3   OH218837   6.136   1.152   5.278 -0.6099  0.2627  0.0188
 6295TIP3    H118838   6.089   1.083   5.232 -0.4805 -0.4771  0.9884
 6295TIP3    H218839   6.086   1.166   5.358 -0.2905  0.8712  0.1179
 6296TIP3   OH218840   6.615   1.920   4.134  0.0306  0.2515 -0.0384
 6296TIP3    H118841   6.680   1.894   4.069  0.5516  1.9090 -0.2070
 6296TIP3    H218842   6.544   1.958   4.083 -1.8820 -3.0411  0.0125
 6297TIP3   OH218843   6.317   1.798   1.376  0.4789  0.3730  0.0491
 6297TIP3    H118844   6.357   1.752   1.302  0.1366  1.1505 -0.6253
 6297TIP3    H218845   6.244   1.846   1.337 -1.3172 -1.3000  1.3357
 6298TIP3   OH218846   7.503   1.218   2.164  0.5323  0.6591 -0.1953
 6298TIP3    H118847   7.564   1.144   2.153 -0.1381  0.1917 -0.8559
 6298TIP3    H218848   7.534   1.263   2.242  1.3375  0.0484 -0.1500
 6299TIP3   OH218849   7.897   2.608   6.031 -0.2700 -1.1267  0.0025
 6299TIP3    H118850   7.842   2.553   6.087 -0.8268 -0.3048  0.2738
 6299TIP3    H218851   7.845   2.688   6.017  0.5767 -0.6190 -0.2839
 6300TIP3   OH218852   3.853   2.948   3.810  0.0414  0.1246 -0.5412
 6300TIP3    H118853   3.931   2.963   3.756  1.6846  0.0683  1.7150
 6300TIP3    H218854   3.855   2.855   3.830 -0.9757 -0.0007 -0.9926
 6301TIP3   OH218855   5.509   2.502   3.295  0.1715  0.4093 -0.0789
 6301TIP3    H118856   5.449   2.574   3.314 -0.5298 -0.2736  0.2983
 6301TIP3    H218857   5.490   2.480   3.203  1.0943  1.3623 -0.5139
 6302TIP3   OH218858   5.874   1.107   4.376 -0.2424  0.5438  0.4272
 6302TIP3    H118859   5.843   1.115   4.286 -0.4422 -0.7153  0.3653
 6302TIP3    H218860   5.956   1.155   4.378 -0.7430  1.4445 -0.1636
 6303TIP3   OH218861   0.303   2.902   4.443 -0.4711  0.1841  0.1253
 6303TIP3    H118862   0.277   2.936   4.529  0.7872  0.1993  0.5132
 6303TIP3    H218863   0.325   2.810   4.460  0.4842  0.3782 -0.0304
 6304TIP3   OH218864   6.808   3.446   2.013  0.2779 -0.2330  0.1670
 6304TIP3    H118865   6.818   3.356   2.044 -2.9165 -0.9948 -0.8679
 6304TIP3    H218866   6.729   3.478   2.057  1.1882  1.9851  0.2724
 6305TIP3   OH218867   6.254   5.172   3.664 -0.4310 -0.1536  0.3130
 6305TIP3    H118868   6.184   5.214   3.715 -0.3706 -0.4347  0.6331
 6305TIP3    H218869   6.333   5.185   3.717  0.0233  1.3651 -0.7044
 6306TIP3   OH218870   1.334   5.418   4.253 -0.2049  0.4534 -0.1785
 6306TIP3    H118871   1.415   5.383   4.215 -0.2479  0.4576 -0.2761
 6306TIP3    H218872   1.363   5.486   4.313 -0.1800  1.1419 -0.9534
 6307TIP3   OH218873   5.969   1.578   5.682 -0.0259 -0.6223 -0.2725
 6307TIP3    H118874   6.037   1.533   5.732  1.2345  1.6153  0.0484
 6307TIP3    H218875   5.986   1.554   5.591  1.1010 -0.1745 -0.1819
 6308TIP3   OH218876   5.001   4.123   3.099 -0.3391 -0.4321 -0.2693
 6308TIP3    H118877   4.947   4.192   3.061  1.4668  1.0621 -0.2335
 6308TIP3    H218878   4.967   4.111   3.188 -1.0366  0.0090 -0.4773
 6309TIP3   OH218879   1.465   7.062   0.401  0.5902 -0.6206 -0.0068
 6309TIP3    H118880   1.536   7.059   0.465  1.4154 -1.7871 -0.9592
 6309TIP3    H218881   1.486   6.993   0.338 -0.0429  0.6981 -1.7123
 6310TIP3   OH218882   6.771   2.153   4.582  0.0139  0.0281  0.4590
 6310TIP3    H118883   6.784   2.059   4.594  3.1440  0.3137 -0.1923
 6310TIP3    H218884   6.823   2.175   4.505 -1.8151  2.0693 -0.2558
 6311TIP3   OH218885   7.208   2.399   4.054  0.1434  0.0048 -0.1954
 6311TIP3    H118886   7.133   2.457   4.065 -0.0685 -0.4432  0.8729
 6311TIP3    H218887   7.222   2.362   4.142 -0.9020 -2.9657 -1.2201
 6312TIP3   OH218888   5.959   3.892   2.388  0.5368  0.2925  0.3923
 6312TIP3    H118889   5.949   3.910   2.295  0.6731  0.6880  0.4538
 6312TIP3    H218890   5.943   3.975   2.431  2.1477  0.5218  0.6084
 6313TIP3   OH218891   7.841   2.241   3.892  0.1527  0.0949  0.1294
 6313TIP3    H118892   7.897   2.318   3.900  0.5368  0.1400 -2.5806
 6313TIP3    H218893   7.902   2.168   3.876 -0.3245 -0.4542  0.7949
 6314TIP3   OH218894   6.755   2.847   2.469 -0.7665 -0.3243  0.2303
 6314TIP3    H118895   6.681   2.907   2.480 -0.4707 -0.2422  1.8855
 6314TIP3    H218896   6.743   2.782   2.538  0.2747 -0.7637  0.0043
 6315TIP3   OH218897   7.304   2.000   4.180  0.4921 -0.3073 -0.0261
 6315TIP3    H118898   7.354   1.929   4.220  2.5403  0.9046 -0.3495
 6315TIP3    H218899   7.366   2.041   4.119 -1.4203  0.1995 -1.6877
 6316TIP3   OH218900   7.683   1.550   2.757  0.0689  0.2030 -0.2706
 6316TIP3    H118901   7.678   1.546   2.853  0.6304  0.4709 -0.2252
 6316TIP3    H218902   7.596   1.578   2.729 -0.1843 -0.1642  0.1443
 6317TIP3   OH218903   6.998   1.961   3.131 -0.0074 -0.1702  0.3143
 6317TIP3    H118904   6.972   1.965   3.039 -1.1461 -1.2779  0.5775
 6317TIP3    H218905   6.918   1.938   3.177  0.4842  0.7232  1.6338
 6318TIP3   OH218906   5.501   2.299   3.497  0.9400 -0.0897 -0.3362
 6318TIP3    H118907   5.454   2.230   3.450 -1.7013 -0.3978  2.5479
 6318TIP3    H218908   5.513   2.368   3.432 -0.7809 -1.3046 -2.0024
 6319TIP3   OH218909   7.791   4.038   2.735 -0.4205  0.3161  0.5463
 6319TIP3    H118910   7.701   4.006   2.730 -0.2352 -0.1322 -0.1181
 6319TIP3    H218911   7.784   4.132   2.720 -0.6952  0.1438 -0.4701
 6320TIP3   OH218912   6.743   1.873   3.685  0.0177 -0.7718  0.4511
 6320TIP3    H118913   6.724   1.825   3.605  0.2280  0.3117 -0.2622
 6320TIP3    H218914   6.836   1.895   3.679 -0.0071 -0.5233  0.9053
 6321TIP3   OH218915   6.262   3.548   4.382  0.3083 -0.0375  0.6222
 6321TIP3    H118916   6.239   3.599   4.304 -0.2245  0.4131  1.0707
 6321TIP3    H218917   6.186   3.556   4.439 -0.6539 -3.0123 -0.1380
 6322TIP3   OH218918   6.492   2.173   6.105  0.2600  0.2667 -0.0792
 6322TIP3    H118919   6.555   2.125   6.159 -0.0551 -0.2610 -0.1769
 6322TIP3    H218920   6.501   2.133   6.018 -0.2817  0.1193 -0.0679
 6323TIP3   OH218921   6.875   1.087   2.779 -0.0324 -0.1175  0.1024
 6323TIP3    H118922   6.866   1.173   2.820 -0.5081  0.1710 -0.6166
 6323TIP3    H218923   6.891   1.027   2.853  2.5865  0.9176  0.4142
 6324TIP3   OH218924   5.188   2.315   4.608 -0.0006 -0.9344  0.4853
 6324TIP3    H118925   5.124   2.271   4.663  0.2659 -0.5283  1.1332
 6324TIP3    H218926   5.259   2.338   4.668 -0.1821  0.4732  0.1873
 6325TIP3   OH218927   7.821   4.027   4.216  0.2718 -0.0326 -0.4425
 6325TIP3    H118928   7.746   3.968   4.225  1.5136 -1.7844 -1.3771
 6325TIP3    H218929   7.891   3.985   4.267  1.0281  0.8732 -0.7208
 6326TIP3   OH218930   7.696   2.062   5.240  0.1877 -0.4735 -0.1691
 6326TIP3    H118931   7.770   2.117   5.216  0.7054 -0.5320  1.2179
 6326TIP3    H218932   7.653   2.042   5.157 -0.6224  2.8395 -0.6172
 6327TIP3   OH218933   7.631   3.829   4.164  0.2410  0.0242  0.8706
 6327TIP3    H118934   7.536   3.833   4.174 -0.0763 -2.6571 -0.6291
 6327TIP3    H218935   7.656   3.745   4.202  1.5545 -0.7742 -1.5933
 6328TIP3   OH218936   7.386   2.516   5.900  0.0549 -0.1346  0.3364
 6328TIP3    H118937   7.437   2.515   5.981 -1.3068 -1.6704  1.1823
 6328TIP3    H218938   7.401   2.431   5.860 -1.4280 -0.3952  0.3208
 6329TIP3   OH218939   0.195   2.432   3.716  0.1792  0.7804  0.0067
 6329TIP3    H118940   0.126   2.381   3.672  0.6897  0.5975 -0.5832
 6329TIP3    H218941   0.276   2.385   3.697  0.7246  2.1010 -0.9937
 6330TIP3   OH218942   0.841   1.693   5.110  0.0272  0.1052  0.5089
 6330TIP3    H118943   0.759   1.651   5.082 -0.7263  2.1836 -0.5089
 6330TIP3    H218944   0.821   1.726   5.198 -0.2607  0.6731  0.2336
 6331TIP3   OH218945   0.274   2.690   4.709 -0.6224 -0.6413 -0.0830
 6331TIP3    H118946   0.310   2.729   4.788 -0.9449  1.7501 -1.0809
 6331TIP3    H218947   0.179   2.695   4.721 -0.7244  1.9410 -1.6099
 6332TIP3   OH218948   6.815   2.936   3.888 -0.0491 -0.2967  0.5404
 6332TIP3    H118949   6.899   2.891   3.892 -0.0840 -0.4688 -0.5492
 6332TIP3    H218950   6.755   2.873   3.847 -0.7545 -0.2352  1.4466
 6333TIP3   OH218951   3.800   6.529   1.343 -0.5515 -0.3534  0.0026
 6333TIP3    H118952   3.755   6.591   1.285 -0.3832 -1.1291 -0.9732
 6333TIP3    H218953   3.730   6.493   1.398 -0.7312  0.3027  0.2077
 6334TIP3   OH218954   7.232   3.463   4.237  1.0165 -0.3338 -0.0891
 6334TIP3    H118955   7.187   3.380   4.254  2.2110 -1.2501 -1.2449
 6334TIP3    H218956   7.321   3.437   4.212  1.5466  1.3255  0.0406
 6335TIP3   OH218957   6.465   3.291   2.816  0.1191  0.0333  0.1376
 6335TIP3    H118958   6.444   3.258   2.903  0.5828 -0.5873  0.0204
 6335TIP3    H218959   6.560   3.307   2.820  0.1670 -0.1510 -0.3035
 6336TIP3   OH218960   3.075   4.876   0.773 -0.2322 -0.6305  0.0932
 6336TIP3    H118961   3.017   4.874   0.697 -0.6908 -0.0490  0.4210
 6336TIP3    H218962   3.018   4.898   0.846  0.3556 -0.2899  0.4611
 6337TIP3   OH218963   4.624   3.413   2.044  0.4364 -0.3880  0.0496
 6337TIP3    H118964   4.656   3.383   2.129 -1.1974 -0.3666  0.7088
 6337TIP3    H218965   4.659   3.501   2.035 -0.8247  0.2990  1.5411
 6338TIP3   OH218966   2.056   4.737   6.460  0.4171 -0.7691  0.5579
 6338TIP3    H118967   2.094   4.805   6.404  1.7526 -1.6682  0.3293
 6338TIP3    H218968   2.003   4.684   6.401  0.3819 -0.6585  0.4909
 6339TIP3   OH218969   3.968   5.318   5.707  0.6500  0.0165 -0.0746
 6339TIP3    H118970   3.900   5.284   5.766  0.5198 -0.0848 -0.2819
 6339TIP3    H218971   3.923   5.328   5.623  0.6204  0.9365  0.0454
 6340TIP3   OH218972   7.089   3.971   3.300  0.2096  0.4263  0.0893
 6340TIP3    H118973   7.099   4.065   3.288  2.7546  0.1673 -0.0574
 6340TIP3    H218974   7.116   3.954   3.390  1.4667 -0.3774 -0.4249
 6341TIP3   OH218975   0.000   1.471   4.005 -0.4757  0.6888  0.3611
 6341TIP3    H118976  -0.010   1.550   3.953  0.5153  1.9647  2.0541
 6341TIP3    H218977   0.040   1.408   3.945 -1.6075  1.3403 -1.1004
 6342TIP3   OH218978   7.444   2.221   4.450  0.2940  0.5710 -0.5971
 6342TIP3    H118979   7.472   2.135   4.419  3.1346 -0.4208  4.1600
 6342TIP3    H218980   7.521   2.277   4.436 -0.3767  1.4944 -0.6059
 6343TIP3   OH218981   7.175   4.616   3.442  0.0909  0.0327  0.1154
 6343TIP3    H118982   7.237   4.685   3.415 -0.9951  0.8650 -0.2921
 6343TIP3    H218983   7.112   4.661   3.498 -0.5353 -0.6680 -0.0155
 6344TIP3   OH218984   7.557   2.003   1.846 -0.8268 -0.3411  0.2477
 6344TIP3    H118985   7.550   1.913   1.880 -0.5222  0.3086  2.0951
 6344TIP3    H218986   7.523   2.058   1.916 -0.8798  1.0154 -0.8156
 6345TIP3   OH218987   7.773   2.441   6.206 -0.2076 -0.5281 -0.0204
 6345TIP3    H118988   7.709   2.473   6.270  0.9891 -0.7263  1.3030
 6345TIP3    H218989   7.787   2.349   6.230 -0.2170 -0.7792 -0.9632
 6346TIP3   OH218990   7.369   2.172   3.204 -0.0038  0.0702  0.4053
 6346TIP3    H118991   7.391   2.080   3.190 -1.9866 -0.4057  0.3372
 6346TIP3    H218992   7.274   2.176   3.195  0.2724  2.5551 -1.9344
 6347TIP3   OH218993   7.239   2.148   3.647 -0.7335  0.1048  0.2491
 6347TIP3    H118994   7.232   2.134   3.741  0.7047  1.1132  0.5209
 6347TIP3    H218995   7.321   2.106   3.622 -1.3425 -0.5740 -0.6415
 6348TIP3   OH218996   5.275   1.562   3.222 -0.1837  0.2567  0.2698
 6348TIP3    H118997   5.365   1.547   3.249 -0.2390  3.2871  2.3448
 6348TIP3    H218998   5.280   1.578   3.127  1.4343  0.2750  0.3492
 6349TIP3   OH218999   7.708   4.675   4.692 -0.1095  0.3764  0.0705
 6349TIP3    H119000   7.734   4.668   4.784 -0.0002  0.7174  0.0649
 6349TIP3    H219001   7.676   4.764   4.682 -1.1034  0.0221  0.0239
 6350TIP3   OH219002   5.340   4.257   5.561  0.1269  0.2463  0.0285
 6350TIP3    H119003   5.248   4.277   5.575 -0.2727 -0.8430 -0.9468
 6350TIP3    H219004   5.343   4.162   5.552  1.4882  0.1752  1.0385
 6351TIP3   OH219005   1.404   2.352   5.048 -0.0991  0.2114  0.2706
 6351TIP3    H119006   1.435   2.443   5.056 -1.6910  0.9938 -2.1959
 6351TIP3    H219007   1.335   2.345   5.114  1.0126  0.3313  1.4753
 6352TIP3   OH219008   7.186   1.953   3.334 -0.0595 -0.5158 -0.0504
 6352TIP3    H119009   7.238   1.878   3.306  0.6145 -0.3842  0.8332
 6352TIP3    H219010   7.127   1.971   3.260  0.7343 -1.0457 -0.8121
 6353TIP3   OH219011   6.995   0.470   1.073 -0.3708 -0.1685  0.0236
 6353TIP3    H119012   7.055   0.507   1.138 -0.5889 -0.8684  0.6363
 6353TIP3    H219013   7.032   0.494   0.988  0.4206 -0.0411  0.4072
 6354TIP3   OH219014   7.310   1.720   4.438 -0.2897 -0.0768  0.2187
 6354TIP3    H119015   7.386   1.663   4.425 -1.4426 -1.9042  1.3348
 6354TIP3    H219016   7.285   1.707   4.529 -2.7341 -0.4739 -0.4953
 6355TIP3   OH219017   7.330   2.841   4.071  0.4428  0.5446  0.1430
 6355TIP3    H119018   7.265   2.847   4.141  0.5177  0.1664  0.2477
 6355TIP3    H219019   7.389   2.771   4.100  0.1098 -0.0492 -0.6021
 6356TIP3   OH219020   6.937   3.036   4.777 -0.6644  0.0601 -0.4360
 6356TIP3    H119021   6.992   2.971   4.821  0.1646  1.0840  0.0366
 6356TIP3    H219022   6.987   3.060   4.699 -2.2309 -1.9381 -2.1484
 6357TIP3   OH219023   0.865   2.734   5.300  0.0498 -0.4456  0.2656
 6357TIP3    H119024   0.841   2.825   5.287  1.2349 -0.0662  0.6187
 6357TIP3    H219025   0.902   2.706   5.216 -0.3413 -0.6050  0.1480
 6358TIP3   OH219026   1.179   1.526   4.343 -0.2337  0.3863 -0.1560
 6358TIP3    H119027   1.253   1.584   4.322 -1.0751  1.3135 -0.5942
 6358TIP3    H219028   1.178   1.463   4.271  0.5953 -0.0910  0.2433
 6359TIP3   OH219029   0.782   2.706   3.435  0.6761  0.3497  0.4645
 6359TIP3    H119030   0.753   2.755   3.358  0.2528  0.4309  0.6742
 6359TIP3    H219031   0.868   2.672   3.411 -0.4913 -1.6585 -0.9526
 6360TIP3   OH219032   5.928   1.225   5.961 -0.1573  0.1880 -0.5819
 6360TIP3    H119033   5.972   1.295   6.009 -0.1968  0.5500 -1.0628
 6360TIP3    H219034   5.874   1.271   5.896 -2.5626 -0.1731  1.0909
 6361TIP3   OH219035   5.556   3.104   3.403  0.3614 -0.8764 -0.4399
 6361TIP3    H119036   5.605   3.108   3.485  1.1127  1.1554 -0.9486
 6361TIP3    H219037   5.624   3.108   3.335 -0.4187  1.0840 -1.1500
 6362TIP3   OH219038   6.532   1.755   5.162  0.2922 -0.1415 -0.4519
 6362TIP3    H119039   6.475   1.709   5.100  0.1727 -2.3216  1.1859
 6362TIP3    H219040   6.494   1.842   5.170 -1.5910 -0.8751 -1.0160
 6363TIP3   OH219041   0.778   0.225   2.667  0.0996  0.8116  0.2903
 6363TIP3    H119042   0.715   0.229   2.739  1.3097  1.0055  1.3678
 6363TIP3    H219043   0.835   0.151   2.690 -0.1977  0.1654 -1.0465
 6364TIP3   OH219044   5.876   2.006   2.876  0.4559  0.5886 -0.2412
 6364TIP3    H119045   5.924   2.082   2.909 -0.3040  0.8494  0.2768
 6364TIP3    H219046   5.945   1.942   2.856  1.0675  1.2239 -0.2033
 6365TIP3   OH219047   7.040   3.426   4.938 -0.1890 -0.0363  0.0450
 6365TIP3    H119048   6.950   3.427   4.972 -0.3562 -1.1195 -0.3538
 6365TIP3    H219049   7.032   3.453   4.847  0.0248  0.9265  0.3064
 6366TIP3   OH219050   5.363   1.812   4.348  0.5309 -0.0328  0.5560
 6366TIP3    H119051   5.369   1.901   4.312 -1.7266  0.2824  0.8981
 6366TIP3    H219052   5.358   1.825   4.443 -0.3352 -0.4988  0.5712
 6367TIP3   OH219053   5.261   3.404   6.323 -0.0975 -0.0098 -0.1060
 6367TIP3    H119054   5.196   3.357   6.376 -1.7533  1.8928 -0.3802
 6367TIP3    H219055   5.331   3.424   6.385 -0.8377 -0.0474  0.7627
 6368TIP3   OH219056   6.952   3.137   2.476  0.3686 -0.2935 -0.1442
 6368TIP3    H119057   7.017   3.075   2.445 -0.0121 -0.5992 -0.3340
 6368TIP3    H219058   7.001   3.198   2.532  1.0650  0.2794 -1.3584
 6369TIP3   OH219059   6.193   3.726   5.101  0.3487 -0.2435 -0.3620
 6369TIP3    H119060   6.121   3.728   5.165 -0.2469  1.0101 -1.0374
 6369TIP3    H219061   6.207   3.819   5.080  1.1855 -0.5921 -1.3303
 6370TIP3   OH219062   7.399   1.074   1.220  0.3627 -0.1810 -0.0347
 6370TIP3    H119063   7.366   0.984   1.226  0.8507 -0.3939 -0.4439
 6370TIP3    H219064   7.396   1.107   1.309 -0.2457 -0.4507  0.0485
 6371TIP3   OH219065   6.324   3.479   5.818  0.8771  0.0432 -0.2068
 6371TIP3    H119066   6.362   3.532   5.747 -0.3888  0.1613 -0.8002
 6371TIP3    H219067   6.233   3.465   5.792  0.7054 -0.8756  0.8511
 6372TIP3   OH219068   6.061   3.569   4.598  0.3368 -0.0838 -0.0929
 6372TIP3    H119069   5.997   3.639   4.598  0.4292  0.0012  0.4152
 6372TIP3    H219070   6.085   3.558   4.690  0.7911 -0.3469 -0.2407
 6373TIP3   OH219071   6.209   3.785   5.744 -0.0500  0.1938 -0.0225
 6373TIP3    H119072   6.203   3.866   5.692 -0.8725 -1.3616 -2.4481
 6373TIP3    H219073   6.122   3.745   5.734 -0.5919  0.3617  3.4915
 6374TIP3   OH219074   5.891   6.068   5.619 -0.4374  0.1427 -0.1667
 6374TIP3    H119075   5.813   6.114   5.650 -0.1712  0.4555  0.0450
 6374TIP3    H219076   5.903   5.996   5.680  1.2177  1.8967  1.6521
 6375TIP3   OH219077   7.470   3.222   2.654 -0.0410  0.5810 -0.3712
 6375TIP3    H119078   7.413   3.151   2.683  0.7110 -0.1259 -0.5858
 6375TIP3    H219079   7.434   3.300   2.694 -0.5793 -0.0035  0.2949
 6376TIP3   OH219080   0.489   3.665   3.753  0.1956  0.5989  0.2963
 6376TIP3    H119081   0.480   3.702   3.841  0.6516  2.0892 -0.2642
 6376TIP3    H219082   0.583   3.651   3.743  0.0650 -0.3443  0.3485
 6377TIP3   OH219083   6.515   2.980   3.700 -0.2910  0.2530 -0.2124
 6377TIP3    H119084   6.545   2.896   3.666  2.1444  0.8792  0.2684
 6377TIP3    H219085   6.543   3.044   3.635  0.5399  0.9845  0.8304
 6378TIP3   OH219086   7.721   3.983   5.379  0.0190  0.0855 -0.3069
 6378TIP3    H119087   7.721   3.891   5.353  0.8171  0.4744 -1.7201
 6378TIP3    H219088   7.629   4.010   5.371 -0.1683 -0.5077 -0.1565
 6379TIP3   OH219089   6.391   1.793   2.679 -0.2885  0.1791 -0.0907
 6379TIP3    H119090   6.366   1.795   2.587  1.4314  0.4409 -0.5583
 6379TIP3    H219091   6.366   1.879   2.713  1.4086  1.0230 -0.9425
 6380TIP3   OH219092   1.209   1.155   3.435  0.7536 -0.4745  0.1901
 6380TIP3    H119093   1.244   1.210   3.504  0.9740 -0.8597  0.3863
 6380TIP3    H219094   1.114   1.170   3.438  0.8335  0.0679  0.0836
 6381TIP3   OH219095   6.681   4.488   4.799 -0.4616  0.1862  0.0645
 6381TIP3    H119096   6.635   4.408   4.775  0.8771 -0.7219  0.4751
 6381TIP3    H219097   6.773   4.470   4.778  0.0669  1.0434  1.5860
 6382TIP3   OH219098   4.885   2.534   4.912  0.4641  0.2021  0.0191
 6382TIP3    H119099   4.807   2.502   4.959 -0.5121  0.8070 -1.1605
 6382TIP3    H219100   4.892   2.476   4.837  1.3265 -0.0221  0.2739
 6383TIP3   OH219101   4.008   5.982   4.645 -0.3326  0.5579  0.4212
 6383TIP3    H119102   3.913   5.990   4.653 -0.4831 -1.1078  0.4396
 6383TIP3    H219103   4.041   5.998   4.734 -0.6183  0.8094  0.4834
 6384TIP3   OH219104   6.382   2.839   6.088 -0.0843  0.5129 -0.4197
 6384TIP3    H119105   6.286   2.830   6.091 -0.2494  2.2311 -0.0088
 6384TIP3    H219106   6.397   2.921   6.042  1.1653  0.7575  0.3842
 6385TIP3   OH219107   5.504   1.722   2.653  0.1538 -0.2036 -0.0372
 6385TIP3    H119108   5.449   1.764   2.587 -0.8377 -0.5307  0.5662
 6385TIP3    H219109   5.537   1.795   2.706 -0.2168 -0.0453 -0.0178
 6386TIP3   OH219110   0.461   1.926   4.093  0.1335  0.4217  0.1353
 6386TIP3    H119111   0.456   1.997   4.158  0.2504  0.2518  0.3302
 6386TIP3    H219112   0.491   1.970   4.013 -1.3221  0.8698 -0.1803
 6387TIP3   OH219113   6.330   3.797   3.998  0.1604  0.0011  0.2696
 6387TIP3    H119114   6.402   3.800   4.061 -0.3759  1.0581  0.8341
 6387TIP3    H219115   6.355   3.859   3.930  0.6230 -0.9593 -0.4525
 6388TIP3   OH219116   6.085   2.395   3.998  0.5511  0.1134 -0.4193
 6388TIP3    H119117   6.014   2.432   3.946  0.8937  0.3732 -0.7010
 6388TIP3    H219118   6.113   2.318   3.949  0.6701  0.1870 -0.4685
 6389TIP3   OH219119   4.990   0.912   4.130  0.0009  0.2370 -0.0231
 6389TIP3    H119120   4.982   0.821   4.102 -0.4583  0.1422  0.4082
 6389TIP3    H219121   4.918   0.925   4.192 -0.3764  1.0954 -0.6252
 6390TIP3   OH219122   0.645   3.703   2.050 -0.2427 -0.1148  0.0563
 6390TIP3    H119123   0.727   3.660   2.076  0.5089  0.2788 -1.6242
 6390TIP3    H219124   0.578   3.662   2.105  0.8375 -1.6678  0.2338
 6391TIP3   OH219125   6.084   3.508   3.792 -0.2934  0.1710 -0.5760
 6391TIP3    H119126   6.109   3.564   3.719 -2.7484  0.4958 -1.2056
 6391TIP3    H219127   6.016   3.558   3.838 -0.2190 -0.9056  0.7354
 6392TIP3   OH219128   4.815   2.392   4.666  0.1107  0.4986 -0.1853
 6392TIP3    H119129   4.818   2.298   4.688  1.3225  0.4914 -0.3716
 6392TIP3    H219130   4.722   2.409   4.647  0.1495 -1.0743 -1.9527
 6393TIP3   OH219131   6.920   4.010   5.011 -0.1781  0.4626  0.1713
 6393TIP3    H119132   6.873   3.926   5.014 -2.5506  1.6666 -1.5481
 6393TIP3    H219133   6.935   4.025   4.918  1.3829  1.3679  0.5498
 6394TIP3   OH219134   5.168   5.439   3.976 -0.0794 -0.1678  0.1401
 6394TIP3    H119135   5.142   5.379   3.906  2.2603 -0.7309 -0.2653
 6394TIP3    H219136   5.180   5.523   3.932 -0.2511 -0.1220  0.1770
 6395TIP3   OH219137   7.199   2.802   5.950 -0.2655 -0.1853  0.5046
 6395TIP3    H119138   7.211   2.745   5.874 -0.9794 -0.1616  0.3753
 6395TIP3    H219139   7.234   2.752   6.023 -1.4107 -1.0210  0.4835
 6396TIP3   OH219140   2.882   6.801   0.116  0.5211  0.3961  0.0976
 6396TIP3    H119141   2.916   6.724   0.070  1.1868  1.4530 -1.2238
 6396TIP3    H219142   2.811   6.833   0.061  1.9322  2.2131 -0.7007
 6397TIP3   OH219143   0.509   0.711   3.915  0.3649  0.1699  0.0492
 6397TIP3    H119144   0.517   0.704   3.820 -1.2819 -0.9421 -0.0295
 6397TIP3    H219145   0.573   0.778   3.939  1.4256 -0.1392 -1.7329
 6398TIP3   OH219146   6.161   6.337   2.701 -0.1643 -0.2555  0.2047
 6398TIP3    H119147   6.166   6.342   2.797  1.0930 -3.3123  0.3646
 6398TIP3    H219148   6.247   6.367   2.671 -0.1342 -0.4545  0.0941
 6399TIP3   OH219149   0.893   2.187   4.526 -0.4158 -0.6116  0.6960
 6399TIP3    H119150   0.984   2.213   4.507 -0.0496 -2.0166  0.4791
 6399TIP3    H219151   0.887   2.191   4.621 -0.0918 -0.6379  0.7199
 6400TIP3   OH219152   6.674   3.765   2.612  0.0380 -0.4057 -0.2362
 6400TIP3    H119153   6.684   3.853   2.649 -1.2054 -0.2053 -0.3557
 6400TIP3    H219154   6.620   3.778   2.534  0.0825 -1.2453 -0.4131
 6401TIP3   OH219155   7.021   2.671   4.641  0.7583 -0.5275  0.0914
 6401TIP3    H119156   7.034   2.722   4.721 -1.5396  2.1930 -1.1933
 6401TIP3    H219157   6.933   2.635   4.650  1.0392 -1.3939 -0.5928
 6402TIP3   OH219158   1.428   4.039   3.040 -0.0920 -0.5300 -0.0091
 6402TIP3    H119159   1.496   4.012   3.102  0.6913 -3.8382 -2.1653
 6402TIP3    H219160   1.477   4.062   2.961 -1.2738  0.6503 -0.4146
 6403TIP3   OH219161   7.656   1.842   2.665 -0.6014 -0.5773 -0.0124
 6403TIP3    H119162   7.574   1.794   2.651 -0.7133 -0.1977 -0.7292
 6403TIP3    H219163   7.692   1.851   2.577 -0.4347  0.3895  0.1538
 6404TIP3   OH219164   7.177   3.164   4.971 -0.5433 -0.3981  0.2304
 6404TIP3    H119165   7.122   3.236   4.939 -0.9673 -0.4576  0.8194
 6404TIP3    H219166   7.207   3.120   4.891 -0.9370 -0.0580 -0.1116
 6405TIP3   OH219167   7.866   3.833   5.006 -0.1190 -0.2956 -0.0466
 6405TIP3    H119168   7.917   3.769   4.956 -0.5129  1.1574 -2.4397
 6405TIP3    H219169   7.776   3.800   5.003  0.3139 -1.7383  2.2986
 6406TIP3   OH219170   0.439   2.107   3.449  0.3661  1.0392  0.3862
 6406TIP3    H119171   0.477   2.151   3.373  0.2588  0.8069  0.1946
 6406TIP3    H219172   0.426   2.176   3.514  3.3228  0.7609  1.3680
 6407TIP3   OH219173   5.942   3.778   2.889  0.6708 -0.4750  0.7307
 6407TIP3    H119174   6.032   3.810   2.896 -1.0361  4.7006  0.7132
 6407TIP3    H219175   5.928   3.731   2.971  2.6178  0.7430  1.8218
 6408TIP3   OH219176   0.163   5.791   4.013 -0.0771  0.5340  0.1262
 6408TIP3    H119177   0.069   5.811   4.019 -0.0840  0.2687  1.0649
 6408TIP3    H219178   0.167   5.695   4.010  0.1254  0.5685 -0.7657
 6409TIP3   OH219179   7.718   1.005   5.757 -0.5163  0.1314 -0.1907
 6409TIP3    H119180   7.770   1.035   5.681 -0.1664 -0.4782 -0.1977
 6409TIP3    H219181   7.768   1.034   5.833  0.3026 -1.2188 -0.1940
 6410TIP3   OH219182   0.507   1.876   3.717  0.0875 -0.1244  0.0163
 6410TIP3    H119183   0.599   1.898   3.702  0.0263 -1.1916 -2.2056
 6410TIP3    H219184   0.460   1.921   3.647 -0.9203 -0.7146  0.3026
 6411TIP3   OH219185   7.808   2.561   2.268 -0.3838  0.2787 -0.4359
 6411TIP3    H119186   7.716   2.562   2.241 -0.0424  2.2698 -1.6770
 6411TIP3    H219187   7.838   2.471   2.251 -1.7670 -0.0462 -1.1979
 6412TIP3   OH219188   6.952   2.337   3.639 -0.4189  0.3275  0.3878
 6412TIP3    H119189   6.877   2.283   3.615  1.0704 -1.0685 -1.2690
 6412TIP3    H219190   6.980   2.302   3.724  2.0126 -3.2912 -1.7392
 6413TIP3   OH219191   1.835   3.964   2.385  0.1016 -0.6780  0.1553
 6413TIP3    H119192   1.889   3.953   2.463  1.0275  0.0101 -0.3702
 6413TIP3    H219193   1.745   3.973   2.418  0.3416 -1.5146  1.0560
 6414TIP3   OH219194   0.460   1.332   4.913  0.1855 -0.2159  0.2070
 6414TIP3    H119195   0.389   1.394   4.933  0.6610  0.2619  0.4214
 6414TIP3    H219196   0.427   1.282   4.839 -1.2638 -1.4663  1.6738
 6415TIP3   OH219197   1.202   2.194   4.561  0.0268  0.4302  0.4964
 6415TIP3    H119198   1.168   2.182   4.649  0.8867  1.1181  0.9393
 6415TIP3    H219199   1.297   2.185   4.571  0.0567 -0.3786 -0.5161
 6416TIP3   OH219200   7.152   1.063   4.602  0.1423  0.6013  1.0235
 6416TIP3    H119201   7.095   1.047   4.678  0.5206 -1.0886  0.9484
 6416TIP3    H219202   7.220   1.121   4.636 -0.6977  1.3306  1.5136
 6417TIP3   OH219203   0.266   1.512   4.973  0.1161 -0.4751  0.4204
 6417TIP3    H119204   0.220   1.488   5.054 -3.1604 -1.4103 -1.6217
 6417TIP3    H219205   0.228   1.596   4.947 -0.0118 -0.9439 -0.9590
 6418TIP3   OH219206   6.950   0.811   1.779 -0.0057  0.4830 -0.6452
 6418TIP3    H119207   6.896   0.838   1.705  0.6618 -0.2410 -1.4056
 6418TIP3    H219208   6.915   0.860   1.853 -2.8482 -1.2354 -0.7500
 6419TIP3   OH219209   7.241   3.329   4.618 -0.0305 -0.6270 -0.1197
 6419TIP3    H119210   7.197   3.253   4.657 -1.6377  0.3013 -0.0730
 6419TIP3    H219211   7.176   3.399   4.622  1.8398  1.1222  1.0034
 6420TIP3   OH219212   6.775   3.795   4.918  0.2839 -0.4886  0.1694
 6420TIP3    H119213   6.745   3.776   4.829  1.4689  0.4367 -0.4383
 6420TIP3    H219214   6.701   3.836   4.960 -0.8242 -2.3585  0.1143
 6421TIP3   OH219215   7.578   1.995   4.994 -0.2257 -0.1109 -0.2144
 6421TIP3    H119216   7.589   1.910   4.951 -1.3288 -0.1040 -0.5207
 6421TIP3    H219217   7.593   2.059   4.925  0.8384 -0.0459  0.0697
 6422TIP3   OH219218   6.605   3.427   2.466  0.3806 -0.1581  0.2522
 6422TIP3    H119219   6.536   3.384   2.516  0.5120 -0.6992 -0.0314
 6422TIP3    H219220   6.603   3.518   2.496  0.3959 -0.4567  1.1698
 6423TIP3   OH219221   1.634   2.353   4.324 -0.0895 -0.0140  0.1528
 6423TIP3    H119222   1.662   2.418   4.259  2.1658  1.4449  2.4816
 6423TIP3    H219223   1.635   2.270   4.277  3.1953  0.7576 -1.2564
 6424TIP3   OH219224   7.854   4.703   4.356 -0.6506  0.0695 -0.3591
 6424TIP3    H119225   7.903   4.629   4.320 -1.4332  0.0418 -1.4135
 6424TIP3    H219226   7.779   4.663   4.399 -0.3230  0.1716  0.3078
 6425TIP3   OH219227   7.317   2.976   2.435 -0.7176 -0.1954  0.0375
 6425TIP3    H119228   7.334   3.024   2.354 -1.3358 -1.0206 -0.5862
 6425TIP3    H219229   7.237   2.927   2.417 -1.5611  0.5705  1.5676
 6426TIP3   OH219230   0.609   6.565   2.113 -0.4480 -0.7179 -0.2991
 6426TIP3    H119231   0.602   6.473   2.137  0.5835 -0.3740  1.3966
 6426TIP3    H219232   0.698   6.573   2.077 -0.6492 -0.4400 -0.7436
 6427TIP3   OH219233   7.391   3.876   4.690 -0.3453  0.2368  0.0048
 6427TIP3    H119234   7.310   3.882   4.640  1.3122 -1.0546 -2.9234
 6427TIP3    H219235   7.377   3.935   4.765 -3.9985 -0.0787 -0.3469
 6428TIP3   OH219236   6.610   3.471   5.436  0.0705 -0.2117  1.0862
 6428TIP3    H119237   6.558   3.529   5.492 -0.2029 -0.1758  0.7943
 6428TIP3    H219238   6.700   3.499   5.450  0.0149 -0.2882  1.6088
 6429TIP3   OH219239   1.052   1.524   5.066  0.2230 -0.1948 -0.3051
 6429TIP3    H119240   0.983   1.591   5.070 -2.7461 -2.8412 -3.3694
 6429TIP3    H219241   1.052   1.484   5.153 -1.6579  0.3428 -0.0244
 6430TIP3   OH219242   0.317   2.182   5.475  0.4618 -0.0746  0.6722
 6430TIP3    H119243   0.365   2.194   5.557 -0.0846  0.3788  0.9262
 6430TIP3    H219244   0.232   2.223   5.491  0.7794  1.0628 -0.5371
 6431TIP3   OH219245   0.494   2.511   5.126  0.0662  0.2604 -0.1451
 6431TIP3    H119246   0.534   2.431   5.091  1.1221  0.5493  0.3848
 6431TIP3    H219247   0.534   2.522   5.213 -0.4673  1.0663  0.0032
 6432TIP3   OH219248   2.644   4.191   3.361 -0.0566 -0.1678 -1.2418
 6432TIP3    H119249   2.707   4.181   3.433  1.1501  1.2370 -2.0760
 6432TIP3    H219250   2.584   4.117   3.371 -0.9186  0.8944  2.2122
 6433TIP3   OH219251   0.888   3.547   6.149  0.3604 -0.2864 -0.0922
 6433TIP3    H119252   0.816   3.488   6.172 -0.6322  0.2414 -1.7403
 6433TIP3    H219253   0.959   3.490   6.123 -0.4921 -0.7807 -1.3763
 6434TIP3   OH219254   5.641   3.462   3.028 -0.0320 -0.3967  0.0766
 6434TIP3    H119255   5.587   3.391   2.994  0.6661 -0.8319 -0.1183
 6434TIP3    H219256   5.582   3.511   3.086 -0.6339 -0.8734 -0.1298
 6435TIP3   OH219257   0.287   2.869   3.264  0.5299 -0.0787 -0.5131
 6435TIP3    H119258   0.274   2.839   3.354  0.5969  2.2359  0.2849
 6435TIP3    H219259   0.263   2.962   3.265 -1.8791 -0.5616 -3.4305
 6436TIP3   OH219260   6.644   4.703   2.930  1.2236  0.2542  0.1975
 6436TIP3    H119261   6.701   4.721   2.855  2.7039  0.2809  1.2959
 6436TIP3    H219262   6.679   4.757   3.000  0.1564 -0.1385  1.0461
 6437TIP3   OH219263   6.654   3.612   3.104  0.2344 -0.2102  0.1856
 6437TIP3    H119264   6.718   3.621   3.174  1.1986  0.6466 -0.7848
 6437TIP3    H219265   6.582   3.670   3.128  0.1075 -0.6767  0.9455
 6438TIP3   OH219266   0.033   0.925   3.736 -0.2838  0.1907 -0.1128
 6438TIP3    H119267   0.123   0.953   3.724 -0.8447  2.3274  0.5364
 6438TIP3    H219268   0.040   0.845   3.789  1.1529  1.1325  1.1668
 6439TIP3   OH219269   0.474   2.238   5.933  0.5381 -0.1325  0.3440
 6439TIP3    H119270   0.451   2.159   5.884 -1.0479 -0.9033  2.2439
 6439TIP3    H219271   0.546   2.210   5.991  0.2045 -0.1130  0.7735
 6440TIP3   OH219272   1.126   4.513   4.504 -0.0530 -0.4704 -0.4149
 6440TIP3    H119273   1.201   4.504   4.445 -0.0796  0.1002 -0.5436
 6440TIP3    H219274   1.148   4.458   4.579 -1.0629 -3.0884 -1.9613
 6441TIP3   OH219275   7.782   1.080   4.201  0.4670  0.4439 -0.0327
 6441TIP3    H119276   7.699   1.122   4.225  0.7135  0.5371  0.6616
 6441TIP3    H219277   7.770   0.988   4.223 -0.4686 -0.0864 -2.5678
 6442TIP3   OH219278   6.673   2.361   4.723 -0.2301  0.0654 -0.0653
 6442TIP3    H119279   6.719   2.333   4.802  1.1608  0.6252 -0.6726
 6442TIP3    H219280   6.702   2.300   4.656 -0.2573  0.5253 -0.4942
 6443TIP3   OH219281   0.243   1.282   4.500 -0.4939  0.0829  0.1588
 6443TIP3    H119282   0.215   1.374   4.500 -0.4286  0.1125 -0.8462
 6443TIP3    H219283   0.174   1.237   4.452  0.6607 -0.0078 -1.4428
 6444TIP3   OH219284   7.457   1.739   3.803 -0.5893 -0.3068 -0.0623
 6444TIP3    H119285   7.437   1.795   3.728 -2.8149 -1.6095 -0.4926
 6444TIP3    H219286   7.543   1.701   3.782  0.0558  1.4205 -0.6539
 6445TIP3   OH219287   7.341   2.757   2.839 -0.3453 -0.6380 -0.7270
 6445TIP3    H119288   7.375   2.740   2.927 -0.9966 -0.3757 -0.4175
 6445TIP3    H219289   7.256   2.713   2.837 -2.0660  2.4530  0.0846
 6446TIP3   OH219290   5.732   3.355   4.529  0.4357  0.0408  0.3253
 6446TIP3    H119291   5.716   3.402   4.447  0.1981  0.9284  0.8756
 6446TIP3    H219292   5.744   3.423   4.595  1.1028 -0.6577  0.9528
 6447TIP3   OH219293   7.554   2.359   3.132  0.2721  0.1564  0.8471
 6447TIP3    H119294   7.635   2.307   3.138  0.3354 -0.1151 -1.5725
 6447TIP3    H219295   7.487   2.303   3.171  0.5941 -1.2061 -0.4895
 6448TIP3   OH219296   7.613   3.105   2.004  0.3646  0.5381  0.0564
 6448TIP3    H119297   7.606   3.133   1.913 -0.4033  0.3337  0.0492
 6448TIP3    H219298   7.626   3.186   2.054  1.6793  0.5710 -0.3181
 6449TIP3   OH219299   0.880   3.959   3.994  0.2979  0.2088 -0.1089
 6449TIP3    H119300   0.856   3.874   4.032 -0.4222  0.0528 -0.8913
 6449TIP3    H219301   0.826   4.022   4.041  0.8368  0.2331  0.4767
 6450TIP3   OH219302   7.161   4.946   5.339 -0.0469  0.1140 -0.5692
 6450TIP3    H119303   7.153   4.982   5.428  1.1468  1.3960 -0.9701
 6450TIP3    H219304   7.132   5.017   5.282 -1.3847 -0.9183 -1.2041
 6451TIP3   OH219305   6.589   2.767   4.928 -0.1125 -0.1413  0.0523
 6451TIP3    H119306   6.568   2.775   5.021 -0.8520 -1.5232  0.0240
 6451TIP3    H219307   6.503   2.764   4.885  0.2296  0.7205 -0.6981
 6452TIP3   OH219308   7.836   5.205   6.137  0.0539 -0.4941 -0.3042
 6452TIP3    H119309   7.897   5.140   6.103  1.8940  0.2069  1.5563
 6452TIP3    H219310   7.755   5.191   6.088  0.2804 -4.4262  0.3398
 6453TIP3   OH219311   1.652   4.156   4.591 -0.4780 -0.4862 -0.4499
 6453TIP3    H119312   1.566   4.134   4.555 -0.9261 -0.7263  0.7528
 6453TIP3    H219313   1.677   4.079   4.642  0.1736 -0.1654 -0.2825
 6454TIP3   OH219314   2.779   5.430   5.794 -0.0593  0.5167 -0.1747
 6454TIP3    H119315   2.818   5.345   5.816  0.5049  0.4475 -1.3774
 6454TIP3    H219316   2.839   5.494   5.830  1.8227  0.4235 -2.9459
 6455TIP3   OH219317   0.732   1.286   4.591 -0.0999  0.6078  0.3038
 6455TIP3    H119318   0.659   1.285   4.529  0.4141  2.9416 -0.3867
 6455TIP3    H219319   0.695   1.251   4.672 -1.6000  0.4425 -0.4287
 6456TIP3   OH219320   5.361   6.254   0.213  0.4274  0.7766  0.3056
 6456TIP3    H119321   5.310   6.184   0.171  1.8398  0.0731 -0.2794
 6456TIP3    H219322   5.323   6.335   0.178 -0.7251  0.2916  0.4072
 6457TIP3   OH219323   3.113   3.699   6.048  0.5352 -0.1864 -0.0514
 6457TIP3    H119324   3.157   3.779   6.021  2.5017 -0.2850  2.6794
 6457TIP3    H219325   3.083   3.659   5.966  2.2022  1.7937 -1.6749
 6458TIP3   OH219326   7.259   0.399   0.122  0.2921  0.5423 -0.3244
 6458TIP3    H119327   7.168   0.417   0.148 -0.0467 -0.2752 -0.8975
 6458TIP3    H219328   7.273   0.308   0.149  0.5759  0.3108 -1.2412
 6459TIP3   OH219329   1.924   6.537   0.310 -0.2699 -0.1631  0.3129
 6459TIP3    H119330   1.832   6.552   0.331  0.2026  2.2760  0.7893
 6459TIP3    H219331   1.923   6.492   0.225 -1.8945 -0.5866  0.5481
 6460TIP3   OH219332   6.883   3.519   5.469 -0.1326 -0.5412  0.4025
 6460TIP3    H119333   6.926   3.548   5.388  0.1906 -1.4930  0.2326
 6460TIP3    H219334   6.937   3.555   5.539 -1.0651  1.2964  0.2243
 6461TIP3   OH219335   1.233   2.705   5.115  0.3005  0.2228  0.0222
 6461TIP3    H119336   1.157   2.709   5.057  1.3133 -0.1999 -1.3266
 6461TIP3    H219337   1.211   2.635   5.177 -0.6419  0.4589 -0.0320
 6462TIP3   OH219338   5.029   6.483   0.944  0.0398 -0.0514  0.3172
 6462TIP3    H119339   4.980   6.562   0.968 -0.0582 -0.4666  1.5353
 6462TIP3    H219340   4.989   6.453   0.863 -0.5327  0.6315  0.3446
 6463TIP3   OH219341   0.276   1.054   0.791 -0.2916 -0.2306 -0.1364
 6463TIP3    H119342   0.207   1.065   0.725 -1.2156  1.9585  1.1153
 6463TIP3    H219343   0.341   1.120   0.769  0.3624 -0.8262 -0.0120
 6464TIP3   OH219344   4.295   0.092   0.123 -0.1456  0.2984  0.0016
 6464TIP3    H119345   4.306   0.048   0.039 -0.0003  0.2089  0.0682
 6464TIP3    H219346   4.212   0.059   0.157 -1.6778  2.4955 -1.4412
 6465TIP3   OH219347   5.693   0.304   0.291 -0.4318  0.4139 -0.0838
 6465TIP3    H119348   5.747   0.231   0.259 -1.3502 -0.2811 -0.0603
 6465TIP3    H219349   5.668   0.277   0.379 -1.8034  0.2011 -0.5398
 6466TIP3   OH219350   0.857   3.105   4.339  0.0692 -0.5022  0.2890
 6466TIP3    H119351   0.948   3.101   4.368 -0.3615 -0.2844  1.7255
 6466TIP3    H219352   0.830   3.013   4.336 -0.0614 -0.5038  1.2160
 6467TIP3   OH219353   2.820   3.562   2.810 -0.0057 -0.2087 -0.3841
 6467TIP3    H119354   2.796   3.590   2.898  1.1377 -1.0775  0.2175
 6467TIP3    H219355   2.915   3.578   2.804  0.0312 -0.6895 -1.2393
 6468TIP3   OH219356   2.496   2.078   6.140 -0.6976 -0.0830 -0.6516
 6468TIP3    H119357   2.529   2.059   6.228 -1.3464 -1.8196 -0.7614
 6468TIP3    H219358   2.538   2.012   6.084 -1.1389  0.3194 -1.4652
 6469TIP3   OH219359   2.237   2.829   5.909  0.1503  0.0455  0.4441
 6469TIP3    H119360   2.298   2.789   5.847 -0.6633  0.7675 -0.8436
 6469TIP3    H219361   2.152   2.790   5.888 -0.3346  1.1394  0.3334
 6470TIP3   OH219362   7.677   3.514   5.739  0.4586  0.3660 -0.1265
 6470TIP3    H119363   7.731   3.459   5.796 -0.1537  0.0072  0.1170
 6470TIP3    H219364   7.669   3.597   5.786 -0.0828  0.0558  0.3366
 6471TIP3   OH219365   1.227   3.629   5.139  0.4518 -0.0503 -0.0981
 6471TIP3    H119366   1.309   3.589   5.109  0.2352 -0.7291  0.2034
 6471TIP3    H219367   1.248   3.664   5.226  0.5072  0.0518 -0.1525
 6472TIP3   OH219368   7.486   2.259   0.623 -0.0689 -0.5400 -0.2497
 6472TIP3    H119369   7.415   2.273   0.561 -0.5809 -0.1219  0.4203
 6472TIP3    H219370   7.523   2.174   0.599  0.6840  0.2572 -2.0428
 6473TIP3   OH219371   3.537   5.511   6.190 -0.1656  0.7447  1.1375
 6473TIP3    H119372   3.595   5.435   6.203 -0.1467  0.7967  1.3667
 6473TIP3    H219373   3.596   5.581   6.161 -0.2070  0.6278  0.7679
 6474TIP3   OH219374   1.961   5.260   5.568 -0.1924 -0.0786  0.2281
 6474TIP3    H119375   1.926   5.250   5.656 -0.0955  1.4264  0.4597
 6474TIP3    H219376   2.053   5.232   5.574 -0.4910 -1.0505  0.3319
 6475TIP3   OH219377   2.600   6.563   1.582 -0.7755 -0.1556  0.2570
 6475TIP3    H119378   2.685   6.585   1.544 -0.0045 -1.3992  1.2331
 6475TIP3    H219379   2.608   6.589   1.673 -0.4292 -2.8358  1.0378
 6476TIP3   OH219380   4.263   6.788   0.438 -0.1146  0.5906  0.2934
 6476TIP3    H119381   4.344   6.804   0.485 -0.3618  0.1057  0.8890
 6476TIP3    H219382   4.214   6.728   0.494  0.5987 -1.8967 -1.6591
 6477TIP3   OH219383   7.557   4.123   4.816  0.1732 -0.5451 -0.5521
 6477TIP3    H119384   7.621   4.106   4.747 -0.0948  0.4776 -1.0578
 6477TIP3    H219385   7.590   4.201   4.860 -0.7083 -0.0454 -0.7845
 6478TIP3   OH219386   6.734   5.849   2.237 -0.4074 -0.4551 -0.0711
 6478TIP3    H119387   6.658   5.823   2.184 -0.0403 -1.0916 -0.2842
 6478TIP3    H219388   6.779   5.767   2.256 -1.5945 -0.4876  2.8909
 6479TIP3   OH219389   6.612   1.002   0.544 -0.1387 -0.0759  0.2327
 6479TIP3    H119390   6.651   0.967   0.464  0.5040 -1.0971  0.9830
 6479TIP3    H219391   6.670   1.075   0.569 -0.8147  0.7887 -0.6818
 6480TIP3   OH219392   7.125   0.510   1.551  0.5653 -0.2752 -0.4173
 6480TIP3    H119393   7.214   0.488   1.524  1.4969  1.9654  0.7031
 6480TIP3    H219394   7.104   0.447   1.620  0.6306 -1.8589 -1.8037
 6481TIP3   OH219395   7.769   3.732   3.425 -0.7302  0.0818 -0.2360
 6481TIP3    H119396   7.834   3.692   3.367 -1.6656 -0.3082 -1.0335
 6481TIP3    H219397   7.765   3.674   3.501  1.3159  1.1945  0.7496
 6482TIP3   OH219398   1.833   2.814   6.110  0.4134 -0.0558 -0.3985
 6482TIP3    H119399   1.833   2.827   6.015 -0.8714 -0.6038 -0.4810
 6482TIP3    H219400   1.803   2.898   6.145  0.0760 -0.1297 -0.5137
 6483TIP3   OH219401   6.065   3.795   6.166 -0.0383 -0.5410  0.0379
 6483TIP3    H119402   6.006   3.848   6.220  0.3475  0.7189 -0.7775
 6483TIP3    H219403   6.008   3.755   6.100  0.1796  1.6895 -1.5426
 6484TIP3   OH219404   7.114   4.758   2.319 -0.1854 -1.2399 -0.1033
 6484TIP3    H119405   7.041   4.736   2.262  0.5519  1.1325 -2.0699
 6484TIP3    H219406   7.075   4.814   2.387 -0.5178 -1.5159 -0.0650
 6485TIP3   OH219407   2.973   3.932   5.870 -0.0919 -0.3473 -0.2645
 6485TIP3    H119408   3.006   4.004   5.924 -2.8425 -0.1375  1.2327
 6485TIP3    H219409   2.981   3.964   5.780 -0.5646  1.5279  0.3319
 6486TIP3   OH219410   0.674   5.112   5.734 -0.2641 -0.3528 -0.6668
 6486TIP3    H119411   0.583   5.141   5.742 -0.1823  0.3498 -2.0484
 6486TIP3    H219412   0.673   5.054   5.657  0.3949 -0.5945 -0.4945
 6487TIP3   OH219413   7.797   3.078   6.118  0.1956  0.1912 -0.7698
 6487TIP3    H119414   7.794   2.985   6.095  0.2397  0.2912 -1.1857
 6487TIP3    H219415   7.729   3.089   6.185 -1.2529  0.2853 -2.2464
 6488TIP3   OH219416   7.433   2.536   4.769  0.5958 -0.3369 -0.6501
 6488TIP3    H119417   7.524   2.555   4.747  1.8570 -1.8746  3.0110
 6488TIP3    H219418   7.436   2.456   4.822 -2.8917 -0.4741 -0.5081
 6489TIP3   OH219419   1.626   5.019   0.574 -0.0912 -0.6304 -0.1512
 6489TIP3    H119420   1.554   4.965   0.605 -2.1339  2.6812  1.1297
 6489TIP3    H219421   1.675   5.042   0.654  0.2215  0.1345 -0.5513
 6490TIP3   OH219422   7.877   0.133   0.916 -0.2059  0.1898 -0.4672
 6490TIP3    H119423   7.878   0.111   0.823  4.0768  0.7372 -0.6842
 6490TIP3    H219424   7.868   0.049   0.961  2.9197 -0.7302 -1.4141
 6491TIP3   OH219425   4.506   4.808   0.642  0.3204 -0.0103 -0.3291
 6491TIP3    H119426   4.485   4.815   0.549  0.5782 -0.2720 -0.4095
 6491TIP3    H219427   4.428   4.838   0.687 -0.0120 -0.4157 -0.6291
 6492TIP3   OH219428   1.980   5.174   5.215  0.4638  0.2102 -0.2950
 6492TIP3    H119429   1.978   5.091   5.263  0.9222  0.4093  0.0773
 6492TIP3    H219430   1.888   5.196   5.200  0.3457 -0.5901 -0.7833
 6493TIP3   OH219431   1.706   2.188   5.927 -0.4051 -0.0804  0.1502
 6493TIP3    H119432   1.751   2.132   5.864  0.0776  0.4522  0.0165
 6493TIP3    H219433   1.737   2.158   6.012 -0.3113 -0.1614  0.0882
 6494TIP3   OH219434   2.306   4.922   4.350  0.0568  0.6197 -0.2296
 6494TIP3    H119435   2.211   4.920   4.339 -0.2891  1.0227  2.3238
 6494TIP3    H219436   2.325   5.011   4.380  0.9902  0.0188  1.0400
 6495TIP3   OH219437   1.689   5.634   3.066 -0.8440 -0.4903 -0.4584
 6495TIP3    H119438   1.601   5.662   3.090 -0.3008  1.5138 -0.7270
 6495TIP3    H219439   1.700   5.664   2.975  1.5625  2.9492  0.8708
 6496TIP3   OH219440   4.195   5.083   1.362 -0.0261 -0.1065 -0.7036
 6496TIP3    H119441   4.116   5.138   1.355 -0.7884 -1.1188 -0.0670
 6496TIP3    H219442   4.203   5.043   1.276 -0.5621 -0.4856 -0.5792
 6497TIP3   OH219443   2.429   4.322   5.852  0.0186  0.2140  0.1468
 6497TIP3    H119444   2.503   4.315   5.912  0.3710  1.7143 -0.0752
 6497TIP3    H219445   2.424   4.237   5.809 -0.2657 -0.9170  2.3237
 6498TIP3   OH219446   2.449   3.464   5.271  0.3088 -0.1736  0.4265
 6498TIP3    H119447   2.503   3.408   5.327  0.6246 -0.6497 -0.3494
 6498TIP3    H219448   2.430   3.411   5.194 -1.6739 -0.1942  0.8916
 6499TIP3   OH219449   1.194   1.931   5.316 -1.3755 -0.1199  0.2467
 6499TIP3    H119450   1.159   1.851   5.356 -0.9531 -0.3945  0.0662
 6499TIP3    H219451   1.264   1.958   5.375 -1.3110 -0.0595  0.1425
 6500TIP3   OH219452   1.042   3.140   6.196  0.0338  0.4943  0.1642
 6500TIP3    H119453   1.092   3.077   6.247 -0.4870  0.0815  0.1584
 6500TIP3    H219454   0.994   3.191   6.260 -1.9010 -1.0952  0.0162
 6501TIP3   OH219455   2.117   3.437   5.948 -0.2042  0.5089  0.5591
 6501TIP3    H119456   2.176   3.384   5.895 -1.8675 -0.5027 -0.3118
 6501TIP3    H219457   2.176   3.490   6.003  1.5222  0.7345 -1.4265
 6502TIP3   OH219458   6.438   1.879   3.566  0.0251  0.4498 -0.1421
 6502TIP3    H119459   6.411   1.814   3.502  1.2639 -0.1053 -0.1202
 6502TIP3    H219460   6.366   1.883   3.629 -0.2418 -0.5917 -0.3748
 6503TIP3   OH219461   1.068   0.994   4.090 -0.3197  0.0979  0.5157
 6503TIP3    H119462   1.000   1.059   4.110  0.0003  0.4270  0.5429
 6503TIP3    H219463   1.042   0.957   4.006 -0.5434  0.2103  0.5333
 6504TIP3   OH219464   1.031   3.535   4.959 -0.2124 -0.0617 -0.5719
 6504TIP3    H119465   1.083   3.567   5.033 -1.7362  0.4372  0.3096
 6504TIP3    H219466   1.022   3.441   4.975 -0.2144 -0.0210 -0.3323
 6505TIP3   OH219467   1.596   2.761   3.480  0.2581 -0.2762 -0.8574
 6505TIP3    H119468   1.507   2.785   3.503 -0.1663 -2.4598 -0.0947
 6505TIP3    H219469   1.588   2.716   3.395  0.8903  1.1996 -1.7240
 6506TIP3   OH219470   0.156   2.929   4.204  0.4279  0.3849  0.0218
 6506TIP3    H119471   0.195   2.923   4.291 -0.6081 -0.6720  0.4128
 6506TIP3    H219472   0.115   3.015   4.202  0.1969  0.2894  0.6782
 6507TIP3   OH219473   7.008   2.916   6.098  0.9525 -0.4236  0.0669
 6507TIP3    H119474   6.924   2.884   6.065  0.1064  0.3396  1.4497
 6507TIP3    H219475   7.071   2.894   6.029 -0.6295  0.3402 -1.6593
 6508TIP3   OH219476   0.026   0.161   0.440 -0.1219  0.6060  0.3101
 6508TIP3    H119477  -0.033   0.185   0.368  1.9278  0.0762 -1.5946
 6508TIP3    H219478   0.071   0.083   0.408  0.0970 -0.2327  2.6051
 6509TIP3   OH219479   7.843   2.272   4.614  0.0463  0.3761  0.4904
 6509TIP3    H119480   7.783   2.262   4.540  0.1177  0.6270  0.3996
 6509TIP3    H219481   7.930   2.270   4.574  0.1332 -1.0132  0.7293
 6510TIP3   OH219482   1.844   4.340   4.858  0.0586  0.0314  0.4433
 6510TIP3    H119483   1.904   4.266   4.855 -0.4711 -0.3720 -0.4249
 6510TIP3    H219484   1.863   4.383   4.941 -0.4170 -1.7689  1.5286
 6511TIP3   OH219485   1.004   5.392   3.697  0.4491  0.0098 -0.2133
 6511TIP3    H119486   0.958   5.327   3.750 -0.6552 -0.1107 -1.3007
 6511TIP3    H219487   1.025   5.462   3.759 -0.7877 -0.1454  0.4131
 6512TIP3   OH219488   7.263   4.103   4.234 -0.0204  0.1079 -0.2579
 6512TIP3    H119489   7.264   4.197   4.252 -0.3536 -0.0373  0.5436
 6512TIP3    H219490   7.267   4.096   4.139  1.6291  0.9030 -0.2563
 6513TIP3   OH219491   1.304   2.076   4.271  0.0832 -0.6647 -0.0460
 6513TIP3    H119492   1.234   2.098   4.209 -0.6705  0.1089  1.0651
 6513TIP3    H219493   1.262   2.020   4.336  0.5754 -0.4627  0.4467
 6514TIP3   OH219494   7.323   4.038   6.361  0.0642  0.1673 -0.0812
 6514TIP3    H119495   7.343   4.117   6.310 -0.2062 -0.3731 -1.0410
 6514TIP3    H219496   7.228   4.030   6.357 -0.0411  0.6291  1.2920
 6515TIP3   OH219497   0.295   5.761   4.857 -0.6917 -0.0673 -0.1364
 6515TIP3    H119498   0.283   5.776   4.951 -0.9407 -0.5483 -0.0892
 6515TIP3    H219499   0.378   5.804   4.836  0.5606 -1.9841  0.7689
 6516TIP3   OH219500   7.734   1.243   4.661  0.1488 -0.0939  0.1097
 6516TIP3    H119501   7.740   1.154   4.627 -0.0134 -0.6234  1.4096
 6516TIP3    H219502   7.758   1.299   4.588 -2.2875 -1.0642 -1.4895
 6517TIP3   OH219503   3.872   4.642   5.709  0.0933 -0.8331  0.4939
 6517TIP3    H119504   3.814   4.681   5.643 -0.3709  0.7310  1.7959
 6517TIP3    H219505   3.927   4.581   5.660  1.1885  1.8289 -1.7319
 6518TIP3   OH219506   2.569   4.777   6.107  0.2556  0.2704  0.3075
 6518TIP3    H119507   2.509   4.824   6.165 -0.2850 -1.1798  0.9653
 6518TIP3    H219508   2.623   4.724   6.165  0.1793 -0.6677 -0.4435
 6519TIP3   OH219509   0.318   1.656   3.532 -0.6278 -0.2086 -0.0069
 6519TIP3    H119510   0.224   1.668   3.543 -0.6859 -0.2542 -0.4501
 6519TIP3    H219511   0.339   1.706   3.453 -0.4414 -0.9673 -0.4358
 6520TIP3   OH219512   1.629   3.660   5.646 -0.4967 -0.1773  0.2463
 6520TIP3    H119513   1.560   3.720   5.619  0.9391  0.7292 -1.5269
 6520TIP3    H219514   1.592   3.613   5.721 -2.1588  1.9187  0.7902
 6521TIP3   OH219515   2.242   4.937   4.051 -0.7593  0.2393  0.0287
 6521TIP3    H119516   2.198   4.936   4.137 -1.5669  0.1812 -0.3817
 6521TIP3    H219517   2.313   4.874   4.060 -1.1164 -0.1001  0.5096
 6522TIP3   OH219518   7.000   4.058   4.742 -0.5884  0.6305 -0.0979
 6522TIP3    H119519   6.966   4.088   4.658 -0.1603 -0.7094 -0.7833
 6522TIP3    H219520   7.090   4.091   4.745 -0.9362  1.5450  0.3026
 6523TIP3   OH219521   2.655   2.632   6.256  0.2596  0.8260  0.4723
 6523TIP3    H119522   2.678   2.719   6.224 -0.2853  0.9440  0.3941
 6523TIP3    H219523   2.575   2.609   6.209 -0.0363  0.6150  1.0702
 6524TIP3   OH219524   1.096   2.854   4.896 -0.1610 -0.6592 -0.2253
 6524TIP3    H119525   1.162   2.799   4.853 -0.0585 -0.7693  0.0692
 6524TIP3    H219526   1.104   2.939   4.852  0.3339 -0.6069 -0.0412
 6525TIP3   OH219527   2.556   5.206   3.775  0.0258 -0.5808 -0.1399
 6525TIP3    H119528   2.471   5.194   3.733 -0.2984 -0.6028  0.5072
 6525TIP3    H219529   2.620   5.175   3.711 -0.5424 -1.8447 -0.1112
 6526TIP3   OH219530   3.055   7.085   0.100  0.3662  0.0733  0.1750
 6526TIP3    H119531   3.035   7.178   0.112 -1.2689 -0.1967 -0.1914
 6526TIP3    H219532   2.969   7.043   0.103  0.7795 -1.0711 -2.6993
 6527TIP3   OH219533   6.119   5.431   4.629  0.0231  0.0935 -0.3041
 6527TIP3    H119534   6.177   5.403   4.558  0.9410  1.3361 -0.0837
 6527TIP3    H219535   6.129   5.364   4.697 -0.9199 -1.1395 -1.3698
 6528TIP3   OH219536   7.545   4.987   6.315  0.4504 -0.3165 -0.1252
 6528TIP3    H119537   7.530   5.056   6.380  1.1885  1.0570 -1.3908
 6528TIP3    H219538   7.548   5.032   6.231  0.0657 -2.0089 -1.0741
 6529TIP3   OH219539   7.289   0.142   0.185 -0.7478  0.1775 -0.2207
 6529TIP3    H119540   7.279   0.119   0.277 -1.3555 -1.2868 -0.6332
 6529TIP3    H219541   7.265   0.062   0.137 -2.9187  1.6730 -1.7336
 6530TIP3   OH219542   1.382   4.004   4.883 -0.2194  0.3470 -0.3207
 6530TIP3    H119543   1.377   4.021   4.788  0.2563 -3.0398 -1.0128
 6530TIP3    H219544   1.473   4.026   4.906 -0.3560  1.2478 -0.6194
 6531TIP3   OH219545   0.399   5.059   3.356  0.1885 -0.3829  0.0517
 6531TIP3    H119546   0.424   5.122   3.288 -1.1758 -0.8266 -0.8836
 6531TIP3    H219547   0.353   4.990   3.308 -1.4461 -0.3267  1.5200
 6532TIP3   OH219548   7.735   3.589   4.233  0.3045 -0.1426 -0.3052
 6532TIP3    H119549   7.770   3.587   4.322  0.1577  0.8255 -0.2256
 6532TIP3    H219550   7.810   3.611   4.178  0.3557 -0.5657 -0.4100
 6533TIP3   OH219551   0.488   4.558   4.660  0.1130  0.0021 -0.3249
 6533TIP3    H119552   0.533   4.536   4.578 -0.7013  0.8233 -1.0043
 6533TIP3    H219553   0.410   4.607   4.632 -1.0233 -1.1071  0.8498
 6534TIP3   OH219554   7.002   1.151   0.506 -0.1708  0.0607 -0.1604
 6534TIP3    H119555   6.956   1.221   0.461 -0.5752  0.2044  0.4749
 6534TIP3    H219556   6.983   1.073   0.454  0.4473  0.4543 -0.9812
 6535TIP3   OH219557   4.453   7.289   0.909  0.4285 -0.2782  0.1201
 6535TIP3    H119558   4.455   7.318   0.818  0.5056 -0.3807  0.0901
 6535TIP3    H219559   4.432   7.196   0.904 -0.4812 -0.0918  0.2429
 6536TIP3   OH219560   2.121   2.907   6.143 -0.3666 -0.1824  0.1751
 6536TIP3    H119561   2.172   2.886   6.065 -0.0452  0.7808  0.1218
 6536TIP3    H219562   2.049   2.844   6.142  1.1350 -1.9383  0.5775
 6537TIP3   OH219563   1.641   2.909   4.613 -0.5782 -0.2942 -0.1686
 6537TIP3    H119564   1.557   2.923   4.657 -1.1063 -0.3875 -1.1142
 6537TIP3    H219565   1.697   2.981   4.643 -1.3183  0.3436 -0.3093
 6538TIP3   OH219566   0.030   4.747   5.181 -0.0284 -0.6121 -0.0675
 6538TIP3    H119567   0.043   4.665   5.134 -1.8371 -1.0221  0.1218
 6538TIP3    H219568   0.116   4.789   5.180  0.5084 -1.6972 -1.6850
 6539TIP3   OH219569   2.017   2.178   6.107 -0.5405  0.2213  0.3663
 6539TIP3    H119570   1.957   2.116   6.148 -0.6729  1.7519  2.5455
 6539TIP3    H219571   2.104   2.141   6.123 -0.7594 -0.8000 -0.7560
 6540TIP3   OH219572   3.386   3.163   6.250  0.0828  0.3827  0.1441
 6540TIP3    H119573   3.292   3.174   6.261 -0.0273 -0.8296  0.4805
 6540TIP3    H219574   3.399   3.163   6.155 -0.0313  2.2050  0.0967
 6541TIP3   OH219575   4.855   1.502   0.005  0.4400 -0.1831  0.1891
 6541TIP3    H119576   4.835   1.506   0.098 -0.8651 -1.6575 -0.0107
 6541TIP3    H219577   4.930   1.561  -0.006 -0.1977  0.9899  1.9357
 6542TIP3   OH219578   1.065   2.216   5.540  0.2189 -0.5195  0.6138
 6542TIP3    H119579   1.031   2.232   5.452  1.8289  1.6509  0.3527
 6542TIP3    H219580   0.993   2.240   5.598  0.3866  1.5908 -0.0143
 6543TIP3   OH219581   0.185   3.577   5.733 -0.2086 -0.0034 -0.2452
 6543TIP3    H119582   0.159   3.599   5.822  0.1383  0.7798 -0.3321
 6543TIP3    H219583   0.236   3.653   5.704 -2.1670  0.7174 -1.8866
 6544TIP3   OH219584   1.186   1.713   5.657  0.0431 -0.2611 -0.5835
 6544TIP3    H119585   1.142   1.794   5.632 -0.6601 -0.4847 -0.0729
 6544TIP3    H219586   1.195   1.664   5.575  0.3452  0.2734 -0.8704
 6545TIP3   OH219587   0.308   4.831   4.829 -0.1311 -0.3710 -0.4156
 6545TIP3    H119588   0.238   4.880   4.872  0.1730 -0.4673  0.1908
 6545TIP3    H219589   0.263   4.783   4.759 -0.6170 -0.1773 -0.2444
 6546TIP3   OH219590   7.887   2.978   5.693 -0.0024  0.0732 -0.9163
 6546TIP3    H119591   7.922   2.977   5.782  0.4182  0.0743 -1.0845
 6546TIP3    H219592   7.811   2.920   5.698 -0.2753  0.4548 -0.4388
 6547TIP3   OH219593   3.085   5.752   1.323  0.4740  0.0888  0.5204
 6547TIP3    H119594   3.131   5.741   1.241 -0.2172 -0.2602  0.1728
 6547TIP3    H219595   2.995   5.773   1.298 -0.1450 -1.6820  1.1689
 6548TIP3   OH219596   1.021   2.980   5.247  0.4599 -0.0963  0.1187
 6548TIP3    H119597   0.980   2.971   5.161 -1.4072 -0.6572  1.0329
 6548TIP3    H219598   0.985   3.062   5.282  1.4127  0.2675  0.2800
 6549TIP3   OH219599   2.915   7.404   0.365 -0.1176  0.1734 -0.6032
 6549TIP3    H119600   3.008   7.412   0.341 -0.7773  0.8602 -3.1291
 6549TIP3    H219601   2.913   7.331   0.427  2.2877  1.0659  0.6097
 6550TIP3   OH219602   7.135   3.045   5.212  0.0510 -0.2949  0.2439
 6550TIP3    H119603   7.157   3.102   5.138 -1.7118 -0.3805 -0.3798
 6550TIP3    H219604   7.048   3.010   5.190  0.2674 -1.7003  1.5322
 6551TIP3   OH219605   0.820   5.453   3.474  0.5340 -0.3849 -0.3060
 6551TIP3    H119606   0.892   5.408   3.517 -0.1195 -0.8213  0.3447
 6551TIP3    H219607   0.745   5.395   3.485 -0.6975  1.5603  1.9892
 6552TIP3   OH219608   0.143   0.214   6.369  0.1590  0.0999 -0.2157
 6552TIP3    H119609   0.081   0.187   6.301  0.0768 -1.0074  0.2982
 6552TIP3    H219610   0.120   0.161   6.445  1.1186  0.3872  0.2792
 6553TIP3   OH219611   7.254   4.354   4.307 -0.5197 -0.5201 -0.1233
 6553TIP3    H119612   7.215   4.430   4.349  2.7194  1.2027 -0.0741
 6553TIP3    H219613   7.291   4.387   4.225  3.1176 -1.4185  1.0617
 6554TIP3   OH219614   6.825   3.864   6.146 -0.5493 -0.3885 -0.5033
 6554TIP3    H119615   6.786   3.948   6.122  0.8536  0.1135 -1.0629
 6554TIP3    H219616   6.758   3.799   6.122 -0.9018  0.4301 -1.7791
 6555TIP3   OH219617   0.794   5.679   4.392  0.4782  0.6982 -0.3671
 6555TIP3    H119618   0.766   5.684   4.483 -1.7422  1.7351 -1.0870
 6555TIP3    H219619   0.872   5.623   4.394 -1.3002 -1.7754  1.7531
 6556TIP3   OH219620   1.278   2.380   5.483 -0.3069 -0.2832  0.1726
 6556TIP3    H119621   1.203   2.326   5.507  1.0965 -2.1253  0.4333
 6556TIP3    H219622   1.302   2.425   5.565  1.1319 -2.4679  0.9690
 6557TIP3   OH219623   7.760   1.612   4.832  0.1853  0.3106  0.0352
 6557TIP3    H119624   7.788   1.594   4.742 -1.6290 -1.3981 -0.2193
 6557TIP3    H219625   7.727   1.528   4.864 -3.9529  1.9990  0.5401
 6558TIP3   OH219626   0.787   4.336   5.259 -0.1903  0.4917  0.0096
 6558TIP3    H119627   0.824   4.299   5.179 -0.8486  1.1238 -0.6007
 6558TIP3    H219628   0.748   4.419   5.231 -0.3261  0.7730  1.0100
 6559TIP3   OH219629   2.410   4.621   3.946  0.0418  0.5083  0.4827
 6559TIP3    H119630   2.410   4.590   4.036 -0.2422  1.6723  0.8872
 6559TIP3    H219631   2.502   4.638   3.926 -0.0606  2.0076  1.1831
 6560TIP3   OH219632   1.502   4.864   4.137  0.5474  0.6896 -1.0757
 6560TIP3    H119633   1.515   4.779   4.095  0.0809  0.2628 -0.3671
 6560TIP3    H219634   1.411   4.886   4.118 -0.2241 -0.3384  1.1662
 6561TIP3   OH219635   7.095   3.997   5.515  0.3488  0.0883 -0.7333
 6561TIP3    H119636   7.019   3.944   5.489 -0.2361  0.5860 -0.0482
 6561TIP3    H219637   7.079   4.082   5.475  0.2257  0.3832 -0.0609
 6562TIP3   OH219638   4.061   0.919   1.072  0.1888 -0.3885 -0.1526
 6562TIP3    H119639   4.055   0.828   1.099  1.6440  0.1720  2.2085
 6562TIP3    H219640   3.976   0.939   1.032 -0.9318 -2.1454  1.3115
 6563TIP3   OH219641   0.094   3.714   6.322  0.3456  0.1064  0.1541
 6563TIP3    H119642   0.002   3.734   6.337 -0.1819  0.7155 -3.4176
 6563TIP3    H219643   0.138   3.799   6.318  0.7409 -0.0965  0.0807
 6564TIP3   OH219644   0.907   5.970   5.891  0.5157  0.2421 -0.2387
 6564TIP3    H119645   0.973   6.012   5.837 -1.0979  2.5032 -0.5452
 6564TIP3    H219646   0.915   6.012   5.977 -0.3580  0.4009 -0.2237
 6565TIP3   OH219647   2.426   3.405   2.604  0.2162  0.2994  0.3112
 6565TIP3    H119648   2.468   3.414   2.689  1.3050  0.2995 -0.2100
 6565TIP3    H219649   2.333   3.394   2.623  0.3665  1.0026  1.4607
 6566TIP3   OH219650   2.298   4.453   6.219  0.6649 -0.5518  0.4102
 6566TIP3    H119651   2.219   4.411   6.254  0.0788  0.3262  0.1468
 6566TIP3    H219652   2.370   4.399   6.252 -0.0378 -1.3327  0.6889
 6567TIP3   OH219653   7.745   2.246   4.858 -0.1485  0.0325 -0.0692
 6567TIP3    H119654   7.788   2.170   4.897  1.9361  1.2744  0.1005
 6567TIP3    H219655   7.770   2.242   4.766  0.2401  0.6948  0.0063
 6568TIP3   OH219656   1.445   4.177   5.268  0.3041  0.5289 -0.4109
 6568TIP3    H119657   1.400   4.151   5.188 -0.6020 -1.4199  0.7025
 6568TIP3    H219658   1.423   4.270   5.278 -0.2348  0.5857 -1.9820
 6569TIP3   OH219659   1.975   3.937   5.684 -0.1925  0.2388  0.3517
 6569TIP3    H119660   1.942   3.874   5.620 -0.7380  1.6446 -0.7633
 6569TIP3    H219661   1.995   3.884   5.761 -0.6645 -1.2981 -0.5611
 6570TIP3   OH219662   3.856   5.811   4.884  0.0982  0.5148  0.2898
 6570TIP3    H119663   3.948   5.790   4.900  0.5090  1.8186 -0.2016
 6570TIP3    H219664   3.827   5.855   4.964  0.8863  3.0874 -0.7822
 6571TIP3   OH219665   0.959   2.604   6.251 -0.0754  0.2683 -0.2756
 6571TIP3    H119666   1.052   2.584   6.248 -0.2632 -0.6756 -0.0190
 6571TIP3    H219667   0.923   2.540   6.313 -1.3521 -1.2424 -2.5178
 6572TIP3   OH219668   1.879   3.445   0.900 -0.4965  0.2858  0.3089
 6572TIP3    H119669   1.903   3.531   0.936 -1.1155  0.0067  1.4136
 6572TIP3    H219670   1.830   3.466   0.821  2.0207  0.8887 -1.1465
 6573TIP3   OH219671   3.755   5.377   0.242 -0.0522 -0.0194  0.9659
 6573TIP3    H119672   3.751   5.282   0.250 -0.7913 -0.1116 -0.3253
 6573TIP3    H219673   3.770   5.392   0.149 -1.7846  1.1568  0.8543
 6574TIP3   OH219674   3.630   3.951   5.245  0.1779 -0.2605  0.0353
 6574TIP3    H119675   3.666   4.019   5.187 -2.7943 -0.3263 -1.9681
 6574TIP3    H219676   3.671   3.870   5.215 -0.5760 -0.1502 -1.3258
 6575TIP3   OH219677   0.934   1.781   0.075 -0.2204  0.3565 -0.2992
 6575TIP3    H119678   0.985   1.720   0.129 -0.2506 -0.1471 -0.8368
 6575TIP3    H219679   1.000   1.828   0.023 -0.1451  1.2438  0.5665
 6576TIP3   OH219680   5.676   0.003   1.595 -0.1624 -0.0917  0.9907
 6576TIP3    H119681   5.609  -0.065   1.604  0.9289 -1.6647 -1.8937
 6576TIP3    H219682   5.635   0.069   1.539 -0.1232  0.0684  1.1530
 6577TIP3   OH219683   3.227   6.675   1.455 -0.2131  1.2647 -0.0882
 6577TIP3    H119684   3.175   6.709   1.529  1.2516  0.8861  1.1462
 6577TIP3    H219685   3.308   6.725   1.459  0.4163  0.2846 -0.6306
 6578TIP3   OH219686   3.348   5.353   0.911  0.4233  0.0297  0.1140
 6578TIP3    H119687   3.303   5.287   0.859 -1.0801  1.9384 -1.1043
 6578TIP3    H219688   3.292   5.431   0.905  2.4492  1.6211  0.9491
 6579TIP3   OH219689   7.661   5.196   3.854 -0.4845  0.0399  0.3838
 6579TIP3    H119690   7.742   5.146   3.842  0.0525  0.6021  1.5954
 6579TIP3    H219691   7.604   5.165   3.784  0.5889 -0.7462 -0.1678
 6580TIP3   OH219692   6.666   0.780   0.160 -0.1393  0.0540  0.0910
 6580TIP3    H119693   6.743   0.817   0.204 -0.1078  1.1971 -0.9043
 6580TIP3    H219694   6.591   0.818   0.205 -0.1807 -2.4035  2.2138
 6581TIP3   OH219695   7.032   3.928   3.993  0.1517  0.8241 -0.0839
 6581TIP3    H119696   6.946   3.940   3.953 -0.2297  0.7685  0.7109
 6581TIP3    H219697   7.041   3.833   4.002  0.0846  0.8547  0.2960
 6582TIP3   OH219698   2.375   5.118   6.289 -0.8279 -0.0621 -0.4265
 6582TIP3    H119699   2.381   5.204   6.246 -0.3461 -0.6110 -1.4858
 6582TIP3    H219700   2.446   5.067   6.250 -1.6582 -1.2194 -0.4563
 6583TIP3   OH219701   2.861   3.096   5.759 -0.1146 -0.4764  0.1660
 6583TIP3    H119702   2.849   3.146   5.678 -0.2141 -1.1397 -0.2299
 6583TIP3    H219703   2.839   3.006   5.735 -0.4790 -0.6155  1.0205
 6584TIP3   OH219704   2.341   3.777   4.914 -0.3297  0.0863  0.8153
 6584TIP3    H119705   2.387   3.727   4.981 -0.4197  0.7107  1.3486
 6584TIP3    H219706   2.396   3.854   4.900  0.4217 -0.7256 -0.8620
 6585TIP3   OH219707   1.315   4.548   5.073 -0.3004 -0.1028  0.2344
 6585TIP3    H119708   1.341   4.640   5.078  1.9853 -0.7014  0.0728
 6585TIP3    H219709   1.344   4.511   5.157  0.0411 -0.9640 -0.2562
 6586TIP3   OH219710   5.712   1.435   0.075  0.6025 -0.1570 -0.3611
 6586TIP3    H119711   5.795   1.402   0.111  0.4436 -0.9189 -0.6726
 6586TIP3    H219712   5.645   1.402   0.135  0.4925  0.1205 -0.3325
 6587TIP3   OH219713   1.845   2.671   3.552  0.0001  0.3518  0.0036
 6587TIP3    H119714   1.820   2.679   3.644  0.2646  0.9141  0.0222
 6587TIP3    H219715   1.782   2.726   3.505 -0.1955 -0.0108 -0.1614
 6588TIP3   OH219716   1.159   6.086   3.892 -0.0533  0.1775  0.5816
 6588TIP3    H119717   1.247   6.110   3.922  1.1589 -0.0446 -2.6491
 6588TIP3    H219718   1.157   5.990   3.895  0.2752  0.1281 -0.5399
 6589TIP3   OH219719   0.334   4.737   5.457 -0.2232 -0.1480 -0.0494
 6589TIP3    H119720   0.345   4.793   5.533 -1.7052  0.0577  0.0191
 6589TIP3    H219721   0.424   4.715   5.430  0.3115 -0.1279  1.6648
 6590TIP3   OH219722   1.906   5.527   5.175 -0.4278 -0.1360 -0.5885
 6590TIP3    H119723   1.871   5.615   5.168 -3.5876 -1.3724 -1.2328
 6590TIP3    H219724   1.955   5.513   5.095  1.4807  1.5803  0.2491
 6591TIP3   OH219725   5.243   0.247   3.217 -0.4150 -0.4011  0.1679
 6591TIP3    H119726   5.176   0.301   3.259 -0.3520 -0.0885 -0.1289
 6591TIP3    H219727   5.276   0.301   3.145 -0.8257 -1.1071 -0.5535
 6592TIP3   OH219728   2.223   3.185   6.199 -0.2031  0.3684 -0.4252
 6592TIP3    H119729   2.181   3.268   6.220 -0.1229  0.1668  0.5510
 6592TIP3    H219730   2.151   3.121   6.198 -0.3162  0.4978 -1.5087
 6593TIP3   OH219731   0.652   2.569   2.724 -0.6174  0.2742  0.1065
 6593TIP3    H119732   0.598   2.647   2.713 -0.5177  0.2360 -0.7309
 6593TIP3    H219733   0.738   2.602   2.749 -0.5044  0.4566 -0.5027
 6594TIP3   OH219734   2.047   3.523   3.000  0.2826 -0.0769 -0.0749
 6594TIP3    H119735   2.085   3.596   3.048 -1.2187  1.1705 -0.7496
 6594TIP3    H219736   2.026   3.558   2.914  0.7546 -1.6646 -0.8585
 6595TIP3   OH219737   2.376   5.385   5.129 -0.0259  0.2335 -0.7029
 6595TIP3    H119738   2.315   5.359   5.197  0.2982  1.2292 -0.0144
 6595TIP3    H219739   2.456   5.336   5.148 -0.2750 -0.2982 -1.0068
 6596TIP3   OH219740   1.815   4.522   6.198  0.3700  0.3014  0.1658
 6596TIP3    H119741   1.733   4.526   6.149  0.6806 -0.5082 -0.4320
 6596TIP3    H219742   1.803   4.584   6.270  0.4758  2.7249 -1.8342
 6597TIP3   OH219743   1.984   3.254   5.755 -0.1309  0.4497 -0.0733
 6597TIP3    H119744   2.025   3.249   5.669 -0.7200  1.1297 -0.3915
 6597TIP3    H219745   1.986   3.347   5.777 -1.0394  0.4190  0.1347
 6598TIP3   OH219746   1.494   0.745   0.458  0.5100 -0.0955  0.3494
 6598TIP3    H119747   1.468   0.705   0.542 -0.1008  0.4321  0.4144
 6598TIP3    H219748   1.420   0.800   0.434  0.3282 -0.9067 -0.9763
 6599TIP3   OH219749   6.804   7.191   0.342 -0.0170  0.1309  0.7070
 6599TIP3    H119750   6.877   7.160   0.289  0.2661  1.2192  0.4336
 6599TIP3    H219751   6.794   7.126   0.410 -0.4724 -1.3640 -0.7550
 6600TIP3   OH219752   0.054   1.951   4.654 -0.2685  0.2058  0.0123
 6600TIP3    H119753   0.103   2.031   4.638 -3.3889  1.8298 -1.8331
 6600TIP3    H219754   0.059   1.902   4.572 -1.3131  0.1989 -0.0605
 6601TIP3   OH219755   1.265   4.022   3.384 -0.1370  0.4687 -0.6748
 6601TIP3    H119756   1.190   4.048   3.331  0.5265  2.0362 -0.8685
 6601TIP3    H219757   1.334   4.082   3.359  0.7476 -0.0004  0.5923
 6602TIP3   OH219758   3.504   0.493   0.280 -0.4769  0.0671  0.1303
 6602TIP3    H119759   3.461   0.578   0.287 -1.4120 -0.3585 -0.4450
 6602TIP3    H219760   3.598   0.514   0.278 -0.7017  1.0809 -0.1045
 6603TIP3   OH219761   0.255   4.669   4.562 -0.2351  0.0317  0.6225
 6603TIP3    H119762   0.180   4.612   4.545  0.0728 -0.9001  2.2151
 6603TIP3    H219763   0.262   4.725   4.485 -1.6588 -0.8755 -0.1745
 6604TIP3   OH219764   0.310   6.612   5.609 -0.0205  0.1445  0.0531
 6604TIP3    H119765   0.324   6.520   5.632  0.6240 -0.0569 -1.0957
 6604TIP3    H219766   0.226   6.634   5.649 -0.0458 -0.8597  0.5834
 6605TIP3   OH219767   2.628   6.255   0.612 -0.4241 -0.3514 -0.3511
 6605TIP3    H119768   2.577   6.184   0.652 -0.3829 -0.7041 -0.9101
 6605TIP3    H219769   2.675   6.212   0.540 -0.1360  0.1779 -0.4752
 6606TIP3   OH219770   7.392   6.410   6.255  0.4800  0.4942 -0.0483
 6606TIP3    H119771   7.437   6.384   6.175  0.2928 -2.1275  0.6659
 6606TIP3    H219772   7.440   6.487   6.286  1.5753  0.5290 -1.7906
 6607TIP3   OH219773   1.468   5.501   3.712  0.2192 -0.1079 -0.4310
 6607TIP3    H119774   1.495   5.500   3.804 -1.1040 -0.2548 -0.0404
 6607TIP3    H219775   1.446   5.593   3.694  0.1131 -0.1468 -0.4986
 6608TIP3   OH219776   0.796   3.010   5.009  0.1830 -0.6064  0.1746
 6608TIP3    H119777   0.726   3.009   5.073 -1.1855  0.0571 -1.2816
 6608TIP3    H219778   0.752   3.001   4.924  1.7634  0.7027 -0.8223
 6609TIP3   OH219779   1.953   3.010   5.899 -1.1596  0.2803  0.5033
 6609TIP3    H119780   1.956   3.090   5.847  2.1487 -0.5122 -0.6943
 6609TIP3    H219781   2.010   3.028   5.974 -1.1528 -0.5929  0.7147
 6610TIP3   OH219782   7.177   0.991   0.786  0.3569 -0.2515 -0.1492
 6610TIP3    H119783   7.116   0.917   0.787  1.2854 -1.0213 -0.4002
 6610TIP3    H219784   7.239   0.971   0.717  1.9560 -0.3388  1.2742
 6611TIP3   OH219785   3.807   2.134   5.902 -0.1156 -0.0351  1.1572
 6611TIP3    H119786   3.860   2.114   5.980  0.4379 -1.3592  0.4475
 6611TIP3    H219787   3.778   2.049   5.870  1.0952  0.3606 -1.0843
 6612TIP3   OH219788   0.659   1.139   4.826  0.2142 -0.3194 -0.4241
 6612TIP3    H119789   0.704   1.079   4.885  2.9519  1.0194 -1.0553
 6612TIP3    H219790   0.594   1.183   4.880  3.1985  1.4618  1.8491
 6613TIP3   OH219791   0.221   2.874   5.220  0.1265 -0.4028 -0.3192
 6613TIP3    H119792   0.279   2.944   5.188 -1.8672  1.7029  0.4995
 6613TIP3    H219793   0.272   2.831   5.289  1.5758 -0.0843 -1.1649
 6614TIP3   OH219794   1.636   1.248   6.239  0.3279 -0.0335 -0.1563
 6614TIP3    H119795   1.723   1.236   6.276  0.3634  1.8575  0.4394
 6614TIP3    H219796   1.652   1.263   6.145  0.6265  0.0838 -0.0864
 6615TIP3   OH219797   2.351   3.564   6.046 -0.1965  0.1880 -0.4925
 6615TIP3    H119798   2.435   3.609   6.057  0.4179 -1.0720  0.0549
 6615TIP3    H219799   2.373   3.471   6.049 -1.7970 -0.1684  1.1206
 6616TIP3   OH219800   1.656   4.081   4.966 -0.3035  0.5400 -0.3331
 6616TIP3    H119801   1.688   4.164   5.003 -1.5264  1.2190 -0.7587
 6616TIP3    H219802   1.701   4.074   4.882 -1.0247  1.3375 -0.7949
 6617TIP3   OH219803   0.025   5.168   2.860  0.2143  0.0658 -0.2386
 6617TIP3    H119804   0.023   5.073   2.857  1.2371 -0.0063  0.8118
 6617TIP3    H219805   0.112   5.191   2.827  0.1932  0.5939  0.0573
 6618TIP3   OH219806   7.412   0.917   0.253 -0.3721  0.2141  0.0511
 6618TIP3    H119807   7.422   0.822   0.243 -0.1044  0.3473 -1.0857
 6618TIP3    H219808   7.392   0.948   0.164  1.6969  1.4804 -0.0105
 6619TIP3   OH219809   1.889   4.696   4.968 -0.2274 -0.1154  0.3638
 6619TIP3    H119810   1.884   4.705   5.063  1.2842 -1.7401  0.6286
 6619TIP3    H219811   1.934   4.612   4.955  0.7387  0.7176 -1.7686
 6620TIP3   OH219812   4.840   1.311   0.324  0.1399 -0.0954  0.0371
 6620TIP3    H119813   4.779   1.254   0.372  0.2819  0.5365  0.9777
 6620TIP3    H219814   4.844   1.273   0.236  0.1869 -1.5023  0.6404
 6621TIP3   OH219815   5.607   1.671  -0.021  0.3192  0.2719  0.0213
 6621TIP3    H119816   5.625   1.594   0.032 -2.5609 -0.5537 -0.1313
 6621TIP3    H219817   5.625   1.745   0.037  1.8542 -0.5047  0.5696
 6622TIP3   OH219818   1.719   4.020   5.372  0.3244  0.2638  0.4402
 6622TIP3    H119819   1.664   4.040   5.448 -0.1112  0.6269  0.0294
 6622TIP3    H219820   1.663   3.967   5.316  0.5761  0.1775  0.2743
 6623TIP3   OH219821   7.034   0.164   0.642 -0.5234  0.0536  0.6431
 6623TIP3    H119822   6.954   0.214   0.624  0.1485  1.4281  1.4166
 6623TIP3    H219823   7.062   0.194   0.729  0.5536 -0.8015  0.6003
 6624TIP3   OH219824   1.931   5.176   2.719  0.1596 -0.1255  0.4339
 6624TIP3    H119825   1.949   5.183   2.813 -0.0251 -2.2346  0.6529
 6624TIP3    H219826   1.836   5.163   2.714  0.1647  0.0236 -0.0483
 6625TIP3   OH219827   3.616   5.373   3.740 -0.3487 -0.7672 -0.9625
 6625TIP3    H119828   3.563   5.421   3.677 -0.3715 -1.5041 -1.5077
 6625TIP3    H219829   3.572   5.288   3.750 -1.1044 -0.1663  1.0724
 6626TIP3   OH219830   3.345   4.463   5.467  0.7101  0.2389  0.1195
 6626TIP3    H119831   3.381   4.462   5.556  2.1866  1.2626 -0.4520
 6626TIP3    H219832   3.350   4.372   5.438 -1.4272 -0.4408  1.7055
 6627TIP3   OH219833   2.704   4.801   5.567  0.4238  0.3808 -0.4112
 6627TIP3    H119834   2.712   4.890   5.600  1.8417 -0.6940  2.2116
 6627TIP3    H219835   2.609   4.785   5.565  0.1524  1.9418 -0.9789
 6628TIP3   OH219836   2.310   3.164   5.301 -0.1036  0.0238  0.0337
 6628TIP3    H119837   2.393   3.117   5.306  0.7716  1.6243  1.1747
 6628TIP3    H219838   2.317   3.217   5.222  0.0143  0.2085  0.1644
 6629TIP3   OH219839   7.429   4.022   4.441 -0.0553 -0.1911 -0.1622
 6629TIP3    H119840   7.370   3.967   4.492 -1.8450 -0.8116 -2.7890
 6629TIP3    H219841   7.376   4.052   4.367  1.4938  3.3631  0.0643
 6630TIP3   OH219842   2.850   3.910   4.781 -0.2578  0.3171 -0.0589
 6630TIP3    H119843   2.801   3.877   4.707 -0.6801  0.7049  0.0453
 6630TIP3    H219844   2.827   3.852   4.854  0.1746 -0.0769 -0.2352
 6631TIP3   OH219845   2.865   3.480   4.672 -0.3469  0.0448  0.1053
 6631TIP3    H119846   2.954   3.449   4.652 -0.6467 -0.8519  0.1317
 6631TIP3    H219847   2.874   3.520   4.759 -0.0465 -0.4068  0.2893
 6632TIP3   OH219848   3.371   5.555   2.758 -0.3894  0.0529 -0.1153
 6632TIP3    H119849   3.383   5.636   2.808 -0.4032  0.8444 -1.3807
 6632TIP3    H219850   3.393   5.485   2.821 -1.3404  0.9745  1.2785
 6633TIP3   OH219851   3.066   5.807   5.428  0.5978 -0.3831 -0.3872
 6633TIP3    H119852   3.057   5.757   5.348  1.2645  0.9082 -1.2853
 6633TIP3    H219853   3.139   5.766   5.474 -0.1317 -1.4606 -0.1723
 6634TIP3   OH219854   2.096   2.657   4.526 -0.5912 -0.3672 -0.1271
 6634TIP3    H119855   2.043   2.578   4.535 -1.0129 -0.0856 -0.1318
 6634TIP3    H219856   2.183   2.625   4.503 -1.1819 -0.7592 -1.9108
 6635TIP3   OH219857   3.362   4.324   6.083  0.0712 -0.3339 -0.3428
 6635TIP3    H119858   3.357   4.299   5.991  1.7610 -0.4938 -0.4052
 6635TIP3    H219859   3.371   4.419   6.082  2.0177 -0.4881 -0.4502
 6636TIP3   OH219860   2.955   5.038   5.438  0.0782  0.0303 -0.0098
 6636TIP3    H119861   2.939   5.011   5.347 -0.6633  0.7818 -0.1064
 6636TIP3    H219862   3.033   5.093   5.433 -0.6066  0.9793 -0.3580
 6637TIP3   OH219863   1.837   2.006   4.606  0.7908 -0.2481  0.4292
 6637TIP3    H119864   1.781   1.978   4.678 -0.9835  2.9777  0.3709
 6637TIP3    H219865   1.801   1.959   4.529  0.2876 -0.7532  0.9642
 6638TIP3   OH219866   1.933   5.005   3.589 -0.1302 -0.1526  0.4577
 6638TIP3    H119867   1.881   4.961   3.521  0.4432  0.6360 -0.5166
 6638TIP3    H219868   1.888   5.088   3.604  0.8985  0.6034 -0.4995
 6639TIP3   OH219869   2.123   3.671   4.782  0.1583  0.1544  0.4895
 6639TIP3    H119870   2.131   3.655   4.688 -0.5856 -0.1615  0.4798
 6639TIP3    H219871   2.211   3.697   4.809  1.4153 -3.6775  0.4467
 6640TIP3   OH219872   3.801   2.430   4.028 -0.1355  0.1686  0.3552
 6640TIP3    H119873   3.722   2.378   4.037  0.3804 -0.5114  1.0980
 6640TIP3    H219874   3.836   2.436   4.117  0.9469 -0.0237 -0.0416
 6641TIP3   OH219875   2.862   2.843   6.008  0.0619  0.4271 -0.0900
 6641TIP3    H119876   2.930   2.856   6.074  0.2134  1.4130 -0.4417
 6641TIP3    H219877   2.900   2.875   5.926  0.5646 -2.5020 -1.0574
 6642TIP3   OH219878   1.004   5.468   4.526 -0.1139 -0.2483  0.0197
 6642TIP3    H119879   1.020   5.459   4.620 -1.0344 -0.2997  0.1815
 6642TIP3    H219880   0.956   5.388   4.503  2.3881 -1.4779 -1.0278
 6643TIP3   OH219881   7.779   0.635   0.756  0.2295 -0.3603 -0.0476
 6643TIP3    H119882   7.740   0.548   0.744 -1.7417  0.5437 -0.4151
 6643TIP3    H219883   7.718   0.681   0.814  0.9247  0.9978 -0.3720
 6644TIP3   OH219884   4.805   3.111   4.486  0.6369 -0.0062 -0.0254
 6644TIP3    H119885   4.767   3.025   4.469  0.3617  0.0633  0.2281
 6644TIP3    H219886   4.795   3.159   4.403 -0.9473  0.4253  0.4036
 6645TIP3   OH219887   2.585   3.995   5.556 -0.0557  0.1238  0.0362
 6645TIP3    H119888   2.542   4.023   5.637  0.1335 -0.8864  0.4884
 6645TIP3    H219889   2.595   4.076   5.506 -1.0389  0.6114  0.6082
 6646TIP3   OH219890   1.770   5.037   4.105  0.4172 -0.2983  0.3552
 6646TIP3    H119891   1.744   4.956   4.147 -0.1266 -1.5582 -2.2969
 6646TIP3    H219892   1.824   5.010   4.031 -1.7049  1.5648 -1.9624
 6647TIP3   OH219893   2.501   5.117   3.429  0.5514  0.0137 -0.0812
 6647TIP3    H119894   2.456   5.201   3.414  1.2874  0.1995 -1.3285
 6647TIP3    H219895   2.431   5.056   3.452  0.0013  0.9555  0.8321
 6648TIP3   OH219896   4.151   4.471   3.855  0.4945 -0.5188 -0.0800
 6648TIP3    H119897   4.073   4.454   3.802  0.4075 -1.8134  0.4580
 6648TIP3    H219898   4.143   4.412   3.930  1.2536  0.3955  0.7423
 6649TIP3   OH219899   3.497   5.056   2.553  0.6691 -0.2918 -0.2783
 6649TIP3    H119900   3.426   5.081   2.494  1.0504 -1.8909 -1.4505
 6649TIP3    H219901   3.528   5.139   2.590  0.2555  0.7114 -2.1425
 6650TIP3   OH219902   2.228   4.601   5.028 -0.0142  0.1625  0.3197
 6650TIP3    H119903   2.280   4.533   5.070 -0.0371 -1.0370 -1.5490
 6650TIP3    H219904   2.137   4.573   5.038 -0.0247 -0.0932 -0.4487
 6651TIP3   OH219905   3.376   4.168   5.402  0.5234  0.0289 -0.1174
 6651TIP3    H119906   3.332   4.107   5.343 -0.2174 -0.1939  0.6626
 6651TIP3    H219907   3.466   4.172   5.369  0.5906 -1.4897 -0.1729
 6652TIP3   OH219908   1.320   4.729   4.635  0.0097  0.4806 -0.2116
 6652TIP3    H119909   1.401   4.712   4.586 -0.3281  0.1172 -0.6532
 6652TIP3    H219910   1.299   4.644   4.675 -0.7734  0.2762 -1.0397
 6653TIP3   OH219911   3.730   3.314   5.983  0.0393 -0.5393  0.6351
 6653TIP3    H119912   3.634   3.316   5.991 -0.0259 -1.7149  0.2294
 6653TIP3    H219913   3.756   3.240   6.039  0.5921 -1.0819 -0.3393
 6654TIP3   OH219914   4.332   4.458   2.390 -0.0019  0.0312 -0.4760
 6654TIP3    H119915   4.319   4.521   2.461 -1.6388 -1.0290  0.1930
 6654TIP3    H219916   4.299   4.503   2.312 -2.0484 -0.2995  0.1553
 6655TIP3   OH219917   7.313   3.079   0.005  0.4517  0.2206  0.3054
 6655TIP3    H119918   7.398   3.038   0.021  1.0369  1.9662  1.8568
 6655TIP3    H219919   7.250   3.008   0.011  1.5390 -0.6453  1.8559
 6656TIP3   OH219920   2.048   4.045   2.548  0.2256 -0.3088  0.1566
 6656TIP3    H119921   1.998   4.079   2.622  0.4217 -2.8240  1.5047
 6656TIP3    H219922   2.118   3.994   2.588  2.0336  0.6282 -1.7590
 6657TIP3   OH219923   2.110   5.814   2.857  0.5659  0.1431  0.8651
 6657TIP3    H119924   2.176   5.796   2.923 -0.2747  0.6342  1.8622
 6657TIP3    H219925   2.150   5.879   2.799  0.9251  0.4993  1.5126
 6658TIP3   OH219926   2.433   3.225   5.531  0.7136 -0.1148  0.2268
 6658TIP3    H119927   2.386   3.202   5.450 -0.8583 -1.0301  1.3646
 6658TIP3    H219928   2.393   3.169   5.598  1.4708  1.1791  1.7867
 6659TIP3   OH219929   2.522   5.030   5.241 -0.3636  0.7950 -0.3760
 6659TIP3    H119930   2.436   5.068   5.255 -0.3992  0.9589 -1.0403
 6659TIP3    H219931   2.505   4.948   5.194 -0.1279  1.0446 -0.9010
 6660TIP3   OH219932   4.435   2.587   3.905  0.5537  0.1344 -0.0085
 6660TIP3    H119933   4.530   2.577   3.911  0.1851 -1.8995  4.2033
 6660TIP3    H219934   4.414   2.655   3.969 -0.8951  0.2684 -0.6033
 6661TIP3   OH219935   1.405   4.217   5.832 -0.2081  0.4353  0.5021
 6661TIP3    H119936   1.316   4.183   5.822  0.0162  0.3272 -1.2801
 6661TIP3    H219937   1.454   4.144   5.869 -0.2971 -0.3694 -0.9363
 6662TIP3   OH219938   4.346   3.391   2.012 -0.1170 -0.2606 -0.5987
 6662TIP3    H119939   4.427   3.396   2.063 -0.8815 -0.5649  0.6664
 6662TIP3    H219940   4.365   3.442   1.933  1.6073 -1.0750 -0.7504
 6663TIP3   OH219941   7.329   4.914   6.476  0.2373  0.5015 -0.4692
 6663TIP3    H119942   7.405   4.926   6.420 -0.3734 -1.8941 -1.9061
 6663TIP3    H219943   7.283   4.839   6.437 -2.8937  1.9516  0.2828
 6664TIP3   OH219944   2.350   6.119   5.169  0.4824  0.0186  0.2389
 6664TIP3    H119945   2.354   6.081   5.257  0.6687  0.6249  0.4942
 6664TIP3    H219946   2.258   6.112   5.144  0.4318 -0.1719  0.4747
 6665TIP3   OH219947   4.285   3.252   4.761  0.4617 -0.9348 -0.4824
 6665TIP3    H119948   4.310   3.170   4.805  1.3685 -0.4469 -0.0849
 6665TIP3    H219949   4.366   3.283   4.720  0.5044  0.6044  0.7220
 6666TIP3   OH219950  -0.003   2.834   0.765 -0.3108  0.0889  0.5352
 6666TIP3    H119951   0.090   2.828   0.742 -0.5203  1.4431 -0.7645
 6666TIP3    H219952  -0.009   2.914   0.818 -0.9642  0.8068 -0.6160
 6667TIP3   OH219953   4.077   0.712   5.893 -0.0180  0.4272  0.0087
 6667TIP3    H119954   3.982   0.719   5.883 -0.0686 -0.9121 -0.5700
 6667TIP3    H219955   4.109   0.688   5.806  0.7084 -0.4532  0.5054
 6668TIP3   OH219956   1.739   4.480   5.315  0.4470  0.4949 -0.2892
 6668TIP3    H119957   1.663   4.539   5.322  0.1106  0.1346 -0.8605
 6668TIP3    H219958   1.793   4.502   5.391 -0.1270  0.9045  0.0096
 6669TIP3   OH219959   3.011   3.405   3.058 -0.2959  0.0663  0.6955
 6669TIP3    H119960   2.985   3.343   2.990 -0.1206 -0.3276  0.9929
 6669TIP3    H219961   3.077   3.360   3.110 -1.3583 -0.1132  1.9198
 6670TIP3   OH219962   2.623   4.576   2.869  0.3261  0.0714 -0.2047
 6670TIP3    H119963   2.708   4.599   2.906  0.1815  0.9607 -0.4214
 6670TIP3    H219964   2.642   4.504   2.808  0.6921 -0.7818  0.8945
 6671TIP3   OH219965   3.904   3.112   4.269  0.4373 -0.3521  0.4036
 6671TIP3    H119966   3.884   3.201   4.300  0.1114 -0.1628 -0.3246
 6671TIP3    H219967   3.896   3.057   4.347 -1.7116 -0.0913  0.4077
 6672TIP3   OH219968   2.722   2.343   5.701 -0.4281  0.0484 -0.2536
 6672TIP3    H119969   2.649   2.289   5.671 -1.1447 -0.6018  2.5419
 6672TIP3    H219970   2.771   2.286   5.761 -0.2691  1.9455  1.4621
 6673TIP3   OH219971   5.007   5.884   5.363 -0.3544  0.0487  0.3021
 6673TIP3    H119972   4.921   5.841   5.369 -0.4641  0.1260 -0.5550
 6673TIP3    H219973   5.063   5.819   5.322 -0.3909  0.5219 -0.5277
 6674TIP3   OH219974   3.278   3.747   5.378  0.2352  0.0497 -0.1437
 6674TIP3    H119975   3.302   3.793   5.298  1.0961 -2.0901 -1.1624
 6674TIP3    H219976   3.230   3.670   5.348 -2.8888  1.2341  1.6152
 6675TIP3   OH219977   2.559   3.359   4.894  0.1145  0.3406 -0.8172
 6675TIP3    H119978   2.584   3.350   4.802 -1.9713 -1.1905 -1.2810
 6675TIP3    H219979   2.622   3.305   4.942  0.6003  0.3391 -1.4630
 6676TIP3   OH219980   2.409   4.264   3.055  0.4184  0.2619  0.0139
 6676TIP3    H119981   2.358   4.184   3.064 -0.1929  0.6033 -0.3613
 6676TIP3    H219982   2.373   4.307   2.978  0.9803  0.7281  0.0036
 6677TIP3   OH219983   1.670   3.908   4.309  0.3312 -0.1682 -0.1003
 6677TIP3    H119984   1.633   3.868   4.230  1.0499  0.7572 -0.9223
 6677TIP3    H219985   1.625   3.865   4.381  0.2093 -1.5751 -0.9964
 6678TIP3   OH219986   2.484   5.534   3.808 -0.2011 -0.3030 -0.0980
 6678TIP3    H119987   2.405   5.553   3.858 -0.2706 -1.5238  0.2936
 6678TIP3    H219988   2.478   5.440   3.789  0.4132 -0.0953 -1.3696
 6679TIP3   OH219989   3.111   3.358   4.600 -0.0340 -0.3074  0.1321
 6679TIP3    H119990   3.174   3.392   4.664  2.0421 -3.4762 -0.1091
 6679TIP3    H219991   3.152   3.374   4.515 -0.9818  0.3850 -0.1961
 6680TIP3   OH219992   6.789   0.216   0.195 -0.7748 -0.4620  0.6515
 6680TIP3    H119993   6.852   0.280   0.162 -2.2859  0.7910  0.1458
 6680TIP3    H219994   6.787   0.148   0.127  0.2724 -0.6768  0.8276
 6681TIP3   OH219995   3.295   4.845   5.791  0.1158  0.0954 -0.7084
 6681TIP3    H119996   3.272   4.852   5.884  1.8261  1.5664 -0.3677
 6681TIP3    H219997   3.285   4.934   5.757  0.9580 -0.1379 -1.5791
 6682TIP3   OH219998   2.067   3.665   5.200 -0.2345  0.9659 -0.1478
 6682TIP3    H119999   2.097   3.730   5.136 -0.3947  2.4034  1.2092
 6682TIP3    H220000   2.143   3.650   5.256 -0.3083  0.2251 -0.2338
 6683TIP3   OH220001   3.394   5.667   4.426  0.0625 -0.6115 -0.6218
 6683TIP3    H120002   3.475   5.616   4.438  0.5740  0.1816 -0.6400
 6683TIP3    H220003   3.403   5.740   4.488 -0.6907 -0.5772 -0.5495
 6684TIP3   OH220004   3.046   3.283   4.945 -0.4579  0.0604  0.2014
 6684TIP3    H120005   2.987   3.328   4.885 -1.3593 -1.1791  0.1338
 6684TIP3    H220006   3.132   3.322   4.928 -1.0643  1.1346 -0.4554
 6685TIP3   OH220007   3.231   3.632   6.366 -0.1915 -0.0750  0.2728
 6685TIP3    H120008   3.225   3.725   6.346  1.1003 -0.0735 -0.0982
 6685TIP3    H220009   3.146   3.596   6.338 -1.5955  1.3633  2.5339
 6686TIP3   OH220010   0.748   4.876   3.201  0.1770  0.3641  0.3687
 6686TIP3    H120011   0.748   4.968   3.225 -0.2231 -0.0805  2.1643
 6686TIP3    H220012   0.687   4.870   3.127  1.6467  1.8145 -0.9919
 6687TIP3   OH220013   3.354   5.547   5.716  0.1036 -0.6418  0.0733
 6687TIP3    H120014   3.365   5.553   5.621 -0.6836 -2.3231 -0.1352
 6687TIP3    H220015   3.362   5.638   5.746  0.2150 -0.0688 -1.6096
 6688TIP3   OH220016   2.364   5.036   6.021  0.1650  0.1213  0.2718
 6688TIP3    H120017   2.452   5.035   5.984  0.0543 -0.3678  0.0251
 6688TIP3    H220018   2.323   4.955   5.990 -0.6109  0.6783 -0.1818
 6689TIP3   OH220019   1.455   3.502   4.305 -0.1344  0.3949 -0.0941
 6689TIP3    H120020   1.426   3.442   4.374  0.7157 -0.6423 -0.6239
 6689TIP3    H220021   1.467   3.446   4.229  1.0112  1.1930 -0.5080
 6690TIP3   OH220022   1.636   4.727   4.758 -0.5329  0.3014 -0.5536
 6690TIP3    H120023   1.609   4.667   4.688  1.1979 -0.5893 -0.4825
 6690TIP3    H220024   1.624   4.677   4.839 -1.4287  0.9213 -0.2995
 6691TIP3   OH220025   1.935   3.029   3.873 -0.2968  0.4430 -0.1647
 6691TIP3    H120026   1.850   2.993   3.898 -0.8132  2.9323  1.8746
 6691TIP3    H220027   1.914   3.095   3.806  0.1654  0.1464 -0.6032
 6692TIP3   OH220028   2.420   5.030   4.878  0.5395  0.3755 -0.0809
 6692TIP3    H120029   2.429   4.942   4.915 -0.9233  0.1035 -0.3285
 6692TIP3    H220030   2.347   5.069   4.926  1.7313  1.7762  0.6108
 6693TIP3   OH220031   0.849   3.322   4.543  0.4776  0.0184 -0.1936
 6693TIP3    H120032   0.857   3.258   4.472 -0.5475 -0.6483  0.2800
 6693TIP3    H220033   0.756   3.321   4.565  0.4199  1.8184 -0.2995
 6694TIP3   OH220034   1.450   5.600   6.317  0.2143  0.1232 -0.5310
 6694TIP3    H120035   1.364   5.608   6.276 -0.2865  0.6547  0.5916
 6694TIP3    H220036   1.486   5.688   6.316 -0.3517  0.3955  1.3134
 6695TIP3   OH220037   1.665   3.276   4.280 -0.8954  0.5716  0.0489
 6695TIP3    H120038   1.586   3.270   4.225 -0.4964  0.4959 -0.5243
 6695TIP3    H220039   1.707   3.357   4.253 -0.2151  0.0779 -0.4155
 6696TIP3   OH220040   7.096   7.175   0.186  0.5777 -0.5392  0.5097
 6696TIP3    H120041   7.066   7.254   0.140 -2.4392 -0.7693  1.9298
 6696TIP3    H220042   7.085   7.105   0.122  0.5166 -0.2355  0.1844
 6697TIP3   OH220043   0.697   1.265   0.192  0.6486  0.7604  0.5825
 6697TIP3    H120044   0.661   1.352   0.175 -0.7145  0.4759  1.9583
 6697TIP3    H220045   0.674   1.246   0.283  1.7340 -0.6580  0.5840
 6698TIP3   OH220046   2.919   4.646   5.470  0.2247  0.0724 -0.0086
 6698TIP3    H120047   2.845   4.697   5.502  0.6004 -0.0967  1.1946
 6698TIP3    H220048   2.994   4.704   5.481  0.4265 -0.1645 -0.1432
 6699TIP3   OH220049   3.096   6.864   5.081 -0.2404  0.0150 -0.4102
 6699TIP3    H120050   3.061   6.953   5.085  1.5210  0.6794  0.9874
 6699TIP3    H220051   3.190   6.874   5.100 -0.4332 -2.3771  2.2388
 6700TIP3   OH220052   2.702   3.279   5.128 -0.6073  0.0263 -0.1415
 6700TIP3    H120053   2.770   3.215   5.150  1.8474  2.8218  0.6127
 6700TIP3    H220054   2.734   3.362   5.164 -3.3562  1.8477 -1.7412
 6701TIP3   OH220055   3.034   4.936   3.278  0.2199 -0.5211  0.0522
 6701TIP3    H120056   2.949   4.981   3.277  1.1237  1.2498 -2.6347
 6701TIP3    H220057   3.034   4.884   3.198  1.0995 -1.6266  0.7719
 6702TIP3   OH220058   1.648   5.152   2.717  0.1205  0.1947 -0.6155
 6702TIP3    H120059   1.656   5.186   2.805  1.6731  0.0004 -0.6778
 6702TIP3    H220060   1.554   5.154   2.699 -0.1474  0.7501  0.8245
 6703TIP3   OH220061   2.631   4.945   3.950 -0.7199  0.4327 -0.0721
 6703TIP3    H120062   2.606   5.036   3.965 -0.7154  0.3674  0.3272
 6703TIP3    H220063   2.575   4.895   4.009  1.6021  0.3953  2.1462
 6704TIP3   OH220064   2.242   4.144   3.987 -0.5882 -0.4463 -0.3823
 6704TIP3    H120065   2.316   4.195   3.953 -0.5998 -1.4597 -1.9955
 6704TIP3    H220066   2.281   4.063   4.018 -0.6075  0.3917  1.9255
 6705TIP3   OH220067   1.594   5.536   4.853  0.4397 -0.6538  0.2074
 6705TIP3    H120068   1.617   5.541   4.946 -0.8657 -0.0124  0.5148
 6705TIP3    H220069   1.513   5.588   4.846 -0.1714 -1.7558 -1.0502
 6706TIP3   OH220070   2.126   4.262   5.785 -0.0082  0.0354  0.0827
 6706TIP3    H120071   2.068   4.190   5.808  0.6085 -0.5255 -0.1111
 6706TIP3    H220072   2.112   4.327   5.853  0.0642 -0.6185  0.7219
 6707TIP3   OH220073   1.704   5.753   5.747  0.5007  0.5032 -0.6037
 6707TIP3    H120074   1.699   5.791   5.835 -0.8675 -1.0330  0.0118
 6707TIP3    H220075   1.798   5.745   5.729  0.7883  1.1934  0.5596
 6708TIP3   OH220076   2.349   5.619   5.655 -0.5090  0.4946  0.3057
 6708TIP3    H120077   2.337   5.701   5.703  0.9246  0.6547  0.4334
 6708TIP3    H220078   2.380   5.557   5.721  0.9784  0.5802 -0.2961
 6709TIP3   OH220079   4.821   5.763   3.540 -0.2165 -0.1994 -0.1015
 6709TIP3    H120080   4.795   5.686   3.590  0.0151  0.3043  0.8176
 6709TIP3    H220081   4.758   5.830   3.565  0.8426  0.5026  0.7259
 6710TIP3   OH220082   2.536   4.310   6.282  0.4478  0.2925 -0.6333
 6710TIP3    H120083   2.609   4.274   6.332  1.5632  1.4348 -1.4097
 6710TIP3    H220084   2.571   4.325   6.194 -0.7166  0.8608 -1.0167
 6711TIP3   OH220085   6.570   5.634   4.349  0.1367 -0.0159  0.4896
 6711TIP3    H120086   6.488   5.585   4.359  0.2938  0.0416  2.2953
 6711TIP3    H220087   6.631   5.590   4.408  0.8569  1.1294  0.6104
 6712TIP3   OH220088   2.213   4.605   5.341 -0.0052  0.1601 -0.1508
 6712TIP3    H120089   2.230   4.511   5.343 -0.2489  0.0859 -1.0821
 6712TIP3    H220090   2.292   4.642   5.300  0.6270  0.4943  1.3604
 6713TIP3   OH220091   3.272   4.659   4.568  0.2272  0.5070  0.0670
 6713TIP3    H120092   3.199   4.699   4.617  1.0285  0.4044  1.3734
 6713TIP3    H220093   3.350   4.686   4.616  1.0201  0.2219 -1.0573
 6714TIP3   OH220094   6.441   0.277   5.664 -0.1866  0.2974 -0.2082
 6714TIP3    H120095   6.405   0.270   5.576  0.5390 -0.5666 -0.4350
 6714TIP3    H220096   6.532   0.248   5.656 -0.8786 -2.5095  1.3361
 6715TIP3   OH220097   1.952   4.433   5.096  0.3198 -0.0755 -0.3587
 6715TIP3    H120098   1.879   4.412   5.155  0.0165  0.0332 -0.6950
 6715TIP3    H220099   2.028   4.391   5.137 -0.1040 -0.9912 -0.4967
 6716TIP3   OH220100   1.088   5.787   5.648  0.4537  0.4663 -0.3263
 6716TIP3    H120101   1.140   5.868   5.650  0.2915  0.6016 -1.2769
 6716TIP3    H220102   1.000   5.816   5.626 -0.0380  0.2337  1.2689
 6717TIP3   OH220103   2.281   4.548   5.973 -0.0994 -0.2722 -0.4591
 6717TIP3    H120104   2.285   4.533   6.067 -2.8334 -2.8157 -0.6809
 6717TIP3    H220105   2.318   4.468   5.935 -0.2375  0.1855 -1.5772
 6718TIP3   OH220106   3.474   4.818   4.704 -0.1902  0.0567  0.6710
 6718TIP3    H120107   3.521   4.886   4.655 -0.4654 -1.5809 -1.9470
 6718TIP3    H220108   3.527   4.805   4.783  0.4804  2.4560  0.6611
 6719TIP3   OH220109   1.243   2.134   5.974 -0.2717 -0.5673  0.4092
 6719TIP3    H120110   1.292   2.073   5.919  0.2775 -2.3419  2.7488
 6719TIP3    H220111   1.204   2.196   5.913  2.9593 -0.4978 -1.7188
 6720TIP3   OH220112   2.518   4.487   4.595  0.1532  0.1962 -0.2482
 6720TIP3    H120113   2.439   4.433   4.595 -0.1014  0.5697  0.0639
 6720TIP3    H220114   2.487   4.573   4.567  0.5552  0.1853 -0.7256
 6721TIP3   OH220115   1.381   3.109   4.687 -0.7033  0.2351  0.2939
 6721TIP3    H120116   1.297   3.147   4.712  0.0567  3.3350 -1.6080
 6721TIP3    H220117   1.367   3.079   4.597  0.0505  0.2110  0.1853
 6722TIP3   OH220118   3.829   6.585   4.551  0.6078 -0.4679 -0.0299
 6722TIP3    H120119   3.763   6.623   4.608 -1.1702 -3.4488  0.0343
 6722TIP3    H220120   3.869   6.515   4.603  1.2513 -1.0701 -1.2975
 6723TIP3   OH220121   7.655   0.816   5.090  0.2178 -0.1160 -0.2390
 6723TIP3    H120122   7.608   0.796   5.171  1.0703 -0.0668  0.2766
 6723TIP3    H220123   7.614   0.760   5.024  0.3560 -1.0839  0.4854
 6724TIP3   OH220124   2.448   1.690   4.280 -0.0151  0.1638 -0.7000
 6724TIP3    H120125   2.461   1.768   4.225  1.9658  1.7819  1.9349
 6724TIP3    H220126   2.358   1.697   4.311 -0.0045  1.1483 -0.8801
 6725TIP3   OH220127   6.787   6.471   0.145  0.2625 -0.1726  0.0168
 6725TIP3    H120128   6.753   6.501   0.230  0.3848 -0.6437  0.2341
 6725TIP3    H220129   6.882   6.479   0.153  0.2182  1.1524 -0.5934
 6726TIP3   OH220130   4.629   3.514   6.054 -0.0929  0.3072  0.2222
 6726TIP3    H120131   4.586   3.540   5.973 -0.4547  2.6412  1.1264
 6726TIP3    H220132   4.722   3.511   6.032 -0.0663  2.1796  0.0103
 6727TIP3   OH220133   3.977   5.350   6.029  0.1829  0.5058 -0.3447
 6727TIP3    H120134   3.946   5.382   6.114  0.7660 -2.6606  1.1518
 6727TIP3    H220135   4.063   5.390   6.018 -0.0973  1.3096  0.3526
 6728TIP3   OH220136   2.641   2.814   2.352  0.1871 -0.3701 -0.9057
 6728TIP3    H120137   2.651   2.724   2.321  0.5210 -0.7528  0.2878
 6728TIP3    H220138   2.554   2.818   2.390  0.7016 -0.5780  0.3045
 6729TIP3   OH220139   2.527   4.837   4.661  0.5542 -0.1482  0.2630
 6729TIP3    H120140   2.475   4.902   4.708  1.0541 -0.2436  0.9561
 6729TIP3    H220141   2.466   4.801   4.596  0.5734  1.7474 -0.8461
 6730TIP3   OH220142   2.366   6.496   6.002  0.0068  0.0907 -0.1720
 6730TIP3    H120143   2.336   6.585   5.982 -1.6648 -0.4010  0.0231
 6730TIP3    H220144   2.378   6.496   6.097  0.9165  0.3710 -0.2859
 6731TIP3   OH220145   2.350   3.847   3.794  0.0166 -0.6904  0.3486
 6731TIP3    H120146   2.370   3.851   3.700 -0.4707 -1.4389  0.2101
 6731TIP3    H220147   2.432   3.821   3.835  0.1784 -0.5561  0.1099
 6732TIP3   OH220148   2.817   4.031   3.642  0.4348 -0.3223  0.8633
 6732TIP3    H120149   2.855   4.095   3.702 -0.5319  2.1139 -1.0624
 6732TIP3    H220150   2.726   4.022   3.671  0.3468 -0.2028  0.6231
 6733TIP3   OH220151   1.210   4.557   5.576 -0.0529 -0.1676  0.0992
 6733TIP3    H120152   1.279   4.623   5.584  0.7273 -0.7290 -1.7456
 6733TIP3    H220153   1.241   4.485   5.631 -0.3470  0.5269  1.1926
 6734TIP3   OH220154   4.128   5.411   2.427 -0.0288  0.7636 -0.5620
 6734TIP3    H120155   4.083   5.327   2.416  2.1964 -0.4137 -0.9832
 6734TIP3    H220156   4.102   5.441   2.514 -0.2292 -0.7407 -0.0857
 6735TIP3   OH220157   5.603   0.989   1.268  0.4575  0.6134 -0.3089
 6735TIP3    H120158   5.530   1.051   1.270 -0.5998 -0.5809 -1.4008
 6735TIP3    H220159   5.676   1.038   1.305 -1.0346  1.6348  1.3713
 6736TIP3   OH220160   2.657   5.753   3.595  0.5293 -0.9125 -0.0083
 6736TIP3    H120161   2.738   5.740   3.546  0.3581 -0.2687 -0.4664
 6736TIP3    H220162   2.641   5.847   3.590 -0.6994 -1.1396 -0.6334
 6737TIP3   OH220163   1.642   3.378   6.101 -0.5116  0.1622  0.1480
 6737TIP3    H120164   1.682   3.351   6.018 -0.4200 -0.3962  0.3720
 6737TIP3    H220165   1.611   3.467   6.084  0.7778  0.5923 -0.0458
 6738TIP3   OH220166   2.053   2.519   3.415  0.5021  0.2321  0.8303
 6738TIP3    H120167   1.981   2.531   3.477 -1.1064 -0.7025 -0.8300
 6738TIP3    H220168   2.013   2.477   3.339  2.5319  0.9944 -0.6965
 6739TIP3   OH220169   3.446   4.709   3.900 -0.9731 -0.0106 -0.3204
 6739TIP3    H120170   3.541   4.715   3.894 -1.0015  1.0801  0.1115
 6739TIP3    H220171   3.420   4.658   3.823 -0.2980  2.5121 -2.2880
 6740TIP3   OH220172   2.583   4.191   4.354  0.1078  0.0599 -0.1596
 6740TIP3    H120173   2.637   4.269   4.364  0.2628  0.0588 -0.9442
 6740TIP3    H220174   2.496   4.218   4.385  0.5502  0.0603  1.0906
 6741TIP3   OH220175   1.483   5.643   4.348  0.6243  0.0748  0.4549
 6741TIP3    H120176   1.525   5.725   4.322  0.3188 -0.0989 -0.6512
 6741TIP3    H220177   1.526   5.617   4.429  2.1457  0.2784 -0.2799
 6742TIP3   OH220178   2.080   3.190   5.495 -0.1021 -0.2949 -0.3618
 6742TIP3    H120179   2.159   3.148   5.461  0.9379  0.4189  1.0637
 6742TIP3    H220180   2.028   3.211   5.418  0.8228 -1.3365 -1.2860
 6743TIP3   OH220181   1.194   4.410   1.917 -0.0779 -0.6535  0.2294
 6743TIP3    H120182   1.121   4.354   1.888 -0.4467 -0.2223  0.3145
 6743TIP3    H220183   1.270   4.352   1.915 -0.5867 -1.3818  1.0858
 6744TIP3   OH220184   3.354   5.470   3.623 -0.0354 -0.7314 -0.5356
 6744TIP3    H120185   3.327   5.380   3.643 -1.0569 -0.3368 -0.1554
 6744TIP3    H220186   3.332   5.481   3.531 -0.3251 -0.7118 -0.4626
 6745TIP3   OH220187   2.729   5.917   1.846 -0.0830  0.6371 -0.4291
 6745TIP3    H120188   2.666   5.853   1.878  1.7520 -2.3613 -2.5485
 6745TIP3    H220189   2.790   5.930   1.918 -1.3294  1.2077  0.5416
 6746TIP3   OH220190   4.173   4.031   5.210 -0.2147 -0.1220  0.0774
 6746TIP3    H120191   4.267   4.036   5.226 -0.4056  1.6834  0.8515
 6746TIP3    H220192   4.136   4.096   5.270 -1.7659  0.5982 -1.6240
 6747TIP3   OH220193   7.880   3.500   5.155  0.5953  0.4366  0.0351
 6747TIP3    H120194   7.924   3.419   5.178 -1.4094 -1.2297 -1.8244
 6747TIP3    H220195   7.872   3.548   5.238  0.5474 -1.8825  1.4017
 6748TIP3   OH220196   1.335   4.456   4.729 -0.3823 -0.1053 -0.1049
 6748TIP3    H120197   1.285   4.410   4.796  0.6865 -1.8350 -0.4799
 6748TIP3    H220198   1.420   4.413   4.727  0.2812  1.1919 -1.2167
 6749TIP3   OH220199   1.848   3.937   6.347  0.5318 -0.0929 -0.1246
 6749TIP3    H120200   1.788   4.010   6.364  1.8753  1.1843 -0.7533
 6749TIP3    H220201   1.828   3.911   6.257  0.0792 -0.4726  0.0857
 6750TIP3   OH220202   4.107   5.695   4.135 -0.5178 -0.3103 -0.0700
 6750TIP3    H120203   4.044   5.719   4.068  0.0542 -0.4453 -0.6664
 6750TIP3    H220204   4.058   5.699   4.217 -0.5603  2.5458 -0.1785
 6751TIP3   OH220205   3.868   4.411   5.870  0.1296 -0.3703 -0.5044
 6751TIP3    H120206   3.783   4.435   5.834  0.2931 -0.0514 -0.6907
 6751TIP3    H220207   3.859   4.320   5.897  0.0529 -0.6695 -1.5060
 6752TIP3   OH220208   2.454   4.206   5.146  0.0738 -0.5371 -0.3277
 6752TIP3    H120209   2.459   4.195   5.241 -1.4880 -0.8622 -0.2641
 6752TIP3    H220210   2.474   4.299   5.132 -0.5910 -0.2758  0.4103
 6753TIP3   OH220211   3.556   3.035   5.002  0.6115 -0.2654  0.1148
 6753TIP3    H120212   3.483   2.994   4.956  2.7443 -2.4171 -1.4875
 6753TIP3    H220213   3.549   3.003   5.092 -1.1069  0.5604  0.3005
 6754TIP3   OH220214   2.238   4.650   4.722  0.1044  0.2220  0.0961
 6754TIP3    H120215   2.145   4.631   4.733 -0.0026  1.4370  1.5238
 6754TIP3    H220216   2.277   4.628   4.807  1.1963 -0.7163 -0.6384
 6755TIP3   OH220217   7.716   7.247   0.558 -0.0711 -0.4609 -0.3490
 6755TIP3    H120218   7.730   7.284   0.646  0.0024 -0.3894 -0.3907
 6755TIP3    H220219   7.650   7.179   0.571  0.7398 -1.2071 -0.0440
 6756TIP3   OH220220   1.693   5.576   6.214 -0.3199 -0.4232  0.2943
 6756TIP3    H120221   1.606   5.554   6.246  0.3880 -2.4048  0.9351
 6756TIP3    H220222   1.686   5.570   6.119 -1.0805  0.2160  0.3055
 6757TIP3   OH220223   3.642   4.196   4.376  0.1271 -0.2950  0.5382
 6757TIP3    H120224   3.597   4.239   4.449 -0.8016 -1.0409  0.4017
 6757TIP3    H220225   3.612   4.105   4.379 -0.4653 -0.1642 -1.2130
 6758TIP3   OH220226   7.622   1.048   0.358  0.2764  0.1667 -0.2893
 6758TIP3    H120227   7.564   1.123   0.363  0.4311  0.3005 -0.4603
 6758TIP3    H220228   7.570   0.979   0.315  0.5014  0.5442 -1.1884
 6759TIP3   OH220229   1.130   4.384   5.000 -0.0395  0.2423 -0.1397
 6759TIP3    H120230   1.165   4.302   5.032 -0.0267 -0.0418 -0.8904
 6759TIP3    H220231   1.189   4.451   5.035 -0.6236  0.0190  1.3122
 6760TIP3   OH220232   3.610   4.488   3.511 -0.3679 -0.0913  0.7119
 6760TIP3    H120233   3.679   4.546   3.544 -0.2705  0.1691  0.0568
 6760TIP3    H220234   3.640   4.462   3.424 -1.6311  0.9356 -0.0393
 6761TIP3   OH220235   2.778   4.879   2.800 -0.1571  0.0581  0.4277
 6761TIP3    H120236   2.733   4.916   2.724 -0.5759 -1.0940  0.1090
 6761TIP3    H220237   2.838   4.815   2.763  0.5011  0.3538  0.9837
 6762TIP3   OH220238   3.902   3.104   4.803 -0.2482 -0.4386  0.1620
 6762TIP3    H120239   3.852   3.124   4.882 -1.1695  0.7310 -0.7056
 6762TIP3    H220240   3.837   3.080   4.737  0.1508  2.5997 -1.4345
 6763TIP3   OH220241   3.626   5.758   5.582 -0.0309 -0.7724 -0.5337
 6763TIP3    H120242   3.685   5.697   5.538  0.8438 -0.7605  0.6232
 6763TIP3    H220243   3.659   5.764   5.671 -0.2929  1.1289 -0.5398
 6764TIP3   OH220244   1.438   5.478   5.347 -0.3921  0.2157 -0.3135
 6764TIP3    H120245   1.361   5.533   5.366 -0.3567 -0.0331  0.6024
 6764TIP3    H220246   1.505   5.509   5.409  0.8593  1.6694 -2.3388
 6765TIP3   OH220247   2.287   5.862   5.771 -0.2172  0.4857  0.7354
 6765TIP3    H120248   2.296   5.878   5.865 -1.3731  0.4709  0.8632
 6765TIP3    H220249   2.265   5.948   5.734  0.0995  0.4658  0.5047
 6766TIP3   OH220250   2.917   4.311   4.504  0.0115 -0.2778  0.5641
 6766TIP3    H120251   2.864   4.390   4.515 -1.1105 -1.0098  0.5921
 6766TIP3    H220252   2.897   4.258   4.581  0.2187 -0.8791  0.2109
 6767TIP3   OH220253   3.165   4.498   3.352 -0.2254  0.4901  0.2077
 6767TIP3    H120254   3.192   4.556   3.424 -0.7018 -0.1836  0.9359
 6767TIP3    H220255   3.070   4.507   3.349 -0.3882 -0.9312  0.9117
 6768TIP3   OH220256   3.173   3.658   1.998 -0.3807  0.0689  0.0108
 6768TIP3    H120257   3.139   3.747   2.010 -1.2095 -0.4206  1.3319
 6768TIP3    H220258   3.133   3.607   2.068  1.1523 -1.0620  0.0882
 6769TIP3   OH220259   2.336   2.546   6.293 -0.3299 -0.3289  0.1079
 6769TIP3    H120260   2.319   2.518   6.203 -2.2380  1.6950 -0.2134
 6769TIP3    H220261   2.266   2.507   6.344 -0.9298  0.8617  0.2245
 6770TIP3   OH220262   3.618   6.598   4.132  0.1332 -0.0756 -0.6254
 6770TIP3    H120263   3.638   6.625   4.042 -0.5595  0.0694 -0.7396
 6770TIP3    H220264   3.681   6.646   4.185 -0.4989  1.1087 -0.9071
 6771TIP3   OH220265   6.819   0.274   0.930  0.8801  0.0227 -0.2539
 6771TIP3    H120266   6.898   0.223   0.948  0.0973 -0.7055  1.2992
 6771TIP3    H220267   6.751   0.229   0.980 -0.5396  0.5727 -1.6739
 6772TIP3   OH220268   2.164   2.588   2.754  0.3718  0.0359  0.1259
 6772TIP3    H120269   2.195   2.511   2.706 -0.4559 -0.4849  0.4277
 6772TIP3    H220270   2.082   2.613   2.711  0.2481  0.2966  0.5038
 6773TIP3   OH220271   3.291   3.115   5.862 -0.4142 -0.0644  0.2037
 6773TIP3    H120272   3.322   3.032   5.898 -0.4052 -0.5670 -0.9329
 6773TIP3    H220273   3.226   3.090   5.796 -0.3184  0.8261 -0.2405
 6774TIP3   OH220274   3.282   4.276   3.692 -0.0807 -0.0965  0.1571
 6774TIP3    H120275   3.226   4.231   3.755  0.9172 -0.6424  0.6662
 6774TIP3    H220276   3.274   4.223   3.612  0.4286 -0.6981  0.5018
 6775TIP3   OH220277   3.183   6.326   4.971  0.1570 -0.1520 -0.1153
 6775TIP3    H120278   3.164   6.358   5.059  0.1126  2.2974 -0.9651
 6775TIP3    H220279   3.116   6.259   4.954 -1.1710  0.8910  0.9039
 6776TIP3   OH220280   2.816   4.916   4.401  0.0344  0.2846 -0.2845
 6776TIP3    H120281   2.813   4.960   4.486  1.1408  1.3574 -0.7856
 6776TIP3    H220282   2.749   4.959   4.349 -0.7200 -0.4486  0.0799
 6777TIP3   OH220283   3.267   4.133   3.452  1.1470 -0.2462 -0.5026
 6777TIP3    H120284   3.243   4.050   3.409  0.0677 -0.4714  0.5008
 6777TIP3    H220285   3.252   4.199   3.385 -0.7263 -0.5730 -0.4545
 6778TIP3   OH220286   7.705   0.727   0.318  0.2826 -0.3033 -0.3531
 6778TIP3    H120287   7.706   0.652   0.258  3.3700  1.9807 -3.3476
 6778TIP3    H220288   7.787   0.720   0.367 -0.8475 -0.5334  1.5190
 6779TIP3   OH220289   3.254   3.049   5.320  0.1604 -0.4144  0.2173
 6779TIP3    H120290   3.346   3.074   5.319  0.0142  0.1299  0.1279
 6779TIP3    H220291   3.207   3.129   5.342 -0.4618 -0.1654 -1.9118
 6780TIP3   OH220292   1.066   6.813   5.010  0.1320 -0.2113 -0.4147
 6780TIP3    H120293   1.103   6.736   4.968  2.7221  1.2576 -0.9184
 6780TIP3    H220294   1.065   6.791   5.103 -0.0592 -1.2125 -0.6495
 6781TIP3   OH220295   4.704   5.663   4.885  0.5796 -0.4125 -0.5247
 6781TIP3    H120296   4.674   5.662   4.976  0.0627  0.6980 -0.6688
 6781TIP3    H220297   4.637   5.714   4.839  2.0383  1.0206 -1.0885
 6782TIP3   OH220298   2.116   1.293   6.250 -0.6938  0.3844 -0.2209
 6782TIP3    H120299   2.136   1.204   6.277 -0.5586  0.2455 -0.7725
 6782TIP3    H220300   2.189   1.318   6.193 -1.0990  0.5836 -0.6581
 6783TIP3   OH220301   1.003   4.046   5.169  0.0523  0.0334  0.1666
 6783TIP3    H120302   1.011   4.076   5.260 -1.4217 -0.1483  0.3736
 6783TIP3    H220303   0.924   3.993   5.169 -0.5449  0.8910 -1.4503
 6784TIP3   OH220304   1.517   4.685   3.187  0.2378 -0.4006 -0.2935
 6784TIP3    H120305   1.592   4.736   3.158  0.6022 -0.8898 -0.2205
 6784TIP3    H220306   1.549   4.636   3.264 -0.2549 -0.3324 -0.0444
 6785TIP3   OH220307   5.015   1.830   0.753  0.3009 -0.6191 -0.2481
 6785TIP3    H120308   4.972   1.751   0.786  2.1483 -1.5239  0.0490
 6785TIP3    H220309   5.108   1.813   0.764  0.8023  0.7918 -2.0643
 6786TIP3   OH220310   3.430   5.884   4.569 -0.5152 -0.6514  0.0277
 6786TIP3    H120311   3.465   5.866   4.657  0.1370  0.7141  0.0708
 6786TIP3    H220312   3.355   5.941   4.584 -0.6053 -0.6878 -0.2770
 6787TIP3   OH220313   2.961   4.924   2.411  0.3400 -0.0494  0.5265
 6787TIP3    H120314   2.952   5.015   2.382  0.7980 -0.2166 -0.1731
 6787TIP3    H220315   3.046   4.896   2.375 -0.1285 -0.9738  0.1287
 6788TIP3   OH220316   2.592   3.055   2.848 -0.5909 -0.1420  0.0791
 6788TIP3    H120317   2.629   3.115   2.783 -1.1770 -1.7158 -1.7500
 6788TIP3    H220318   2.652   2.980   2.847 -0.8756 -0.3861  1.0284
 6789TIP3   OH220319   2.040   4.156   3.789 -0.2270 -0.3096  0.3128
 6789TIP3    H120320   2.011   4.068   3.813 -1.3190 -0.1282 -0.3049
 6789TIP3    H220321   2.114   4.174   3.847 -0.7326 -1.1787  1.2417
 6790TIP3   OH220322   2.128   5.143   4.963 -0.5715 -0.2572 -0.4398
 6790TIP3    H120323   2.092   5.057   4.939 -0.0506 -0.3888 -0.7788
 6790TIP3    H220324   2.085   5.165   5.045 -1.8270 -0.1539 -1.1206
 6791TIP3   OH220325   0.482   1.635   0.912 -0.3896 -0.1110 -0.0605
 6791TIP3    H120326   0.567   1.680   0.909  0.0023 -0.9309 -2.5619
 6791TIP3    H220327   0.422   1.701   0.947  0.5126  1.8338 -2.0282
 6792TIP3   OH220328   1.726   4.975   3.395  0.4498 -1.3386  0.1066
 6792TIP3    H120329   1.713   4.908   3.329  2.2808 -1.2900 -0.3144
 6792TIP3    H220330   1.710   5.057   3.350  0.5085 -1.3673  0.0342
 6793TIP3   OH220331   1.639   3.001   4.323  0.7343 -0.0003 -0.0368
 6793TIP3    H120332   1.655   3.093   4.303  0.0868  0.1752  0.2259
 6793TIP3    H220333   1.666   2.992   4.414 -0.3968  0.2434  0.3378
 6794TIP3   OH220334   2.037   3.241   4.219  0.0018  0.1407 -0.0324
 6794TIP3    H120335   2.131   3.241   4.234  0.4312  2.2400 -2.4405
 6794TIP3    H220336   2.006   3.318   4.267 -0.3546  0.0167 -0.0626
 6795TIP3   OH220337   2.060   5.373   3.322 -0.2243 -0.1011  0.0307
 6795TIP3    H120338   2.004   5.429   3.377  0.1113  0.3167 -0.0533
 6795TIP3    H220339   2.100   5.433   3.259  0.4207 -0.3796  0.1718
 6796TIP3   OH220340   3.101   3.567   5.265  0.2439  0.2815  0.2293
 6796TIP3    H120341   3.117   3.590   5.173 -1.0047 -0.8232 -0.2900
 6796TIP3    H220342   3.005   3.567   5.272  0.3304 -0.2404  1.3761
 6797TIP3   OH220343   1.839   0.396   0.284 -0.5540  0.2576  0.5299
 6797TIP3    H120344   1.792   0.411   0.366  0.8261 -1.0614  1.5780
 6797TIP3    H220345   1.931   0.399   0.307 -0.1275 -3.6830 -0.2411
 6798TIP3   OH220346   1.401   3.254   6.078  0.2389 -0.2605  0.2782
 6798TIP3    H120347   1.413   3.207   5.996  0.5940 -2.0838  1.3411
 6798TIP3    H220348   1.490   3.280   6.104  0.1680 -0.0030  0.2660
 6799TIP3   OH220349   1.334   3.103   5.811  0.2647 -0.6325 -0.1319
 6799TIP3    H120350   1.259   3.070   5.762  1.1178  0.1636 -2.0187
 6799TIP3    H220351   1.379   3.025   5.843  0.2408 -1.1947 -1.4559
 6800TIP3   OH220352   2.637   3.448   3.969 -0.4706 -0.2763  0.2286
 6800TIP3    H120353   2.650   3.439   3.874 -0.6860 -0.6534  0.2339
 6800TIP3    H220354   2.676   3.369   4.006 -0.2669 -0.0648  0.4669
 6801TIP3   OH220355   3.856   5.809   0.817  0.3339  0.2749 -0.3006
 6801TIP3    H120356   3.815   5.772   0.895  0.2598 -1.5046 -1.1474
 6801TIP3    H220357   3.785   5.813   0.752  1.2789 -2.2345 -1.5781
 6802TIP3   OH220358   4.282   4.319   2.042  0.5068 -0.3529 -0.0212
 6802TIP3    H120359   4.291   4.409   2.071  0.5476 -0.6123  0.7788
 6802TIP3    H220360   4.305   4.266   2.119  0.2640 -1.0393 -0.4135
 6803TIP3   OH220361   2.064   0.748   3.561 -0.0770  0.1747  0.0893
 6803TIP3    H120362   1.989   0.703   3.521  0.2975  1.0201 -1.6079
 6803TIP3    H220363   2.025   0.822   3.608 -0.7444 -2.0737  3.2676
 6804TIP3   OH220364   2.177   3.960   2.837 -0.3600  0.7021 -0.5530
 6804TIP3    H120365   2.236   3.960   2.912  0.9587 -1.1901 -1.5633
 6804TIP3    H220366   2.099   4.006   2.868  0.4696  0.6343  1.7125
 6805TIP3   OH220367   1.584   4.186   3.723 -0.0586 -0.2091 -0.4452
 6805TIP3    H120368   1.522   4.242   3.676 -1.7365 -1.4700  0.2066
 6805TIP3    H220369   1.617   4.125   3.657 -2.0054 -1.6284 -0.1619
 6806TIP3   OH220370   3.014   4.518   4.114 -0.6424  0.1731 -0.3463
 6806TIP3    H120371   3.105   4.526   4.141 -0.8507 -0.9973  0.7692
 6806TIP3    H220372   2.975   4.602   4.137 -0.3746 -0.1370  1.3506
 6807TIP3   OH220373   3.286   3.555   4.441 -0.2582 -0.1574 -0.1334
 6807TIP3    H120374   3.326   3.613   4.506  0.8273  1.6405 -2.3166
 6807TIP3    H220375   3.359   3.504   4.406 -0.7101 -0.5772 -0.4765
 6808TIP3   OH220376   6.971   1.953   0.763  0.3162 -0.1467  0.2139
 6808TIP3    H120377   6.949   2.041   0.731  1.2829  0.3417  0.9001
 6808TIP3    H220378   6.911   1.896   0.715  0.0763  0.8213 -0.6777
 6809TIP3   OH220379   0.307   5.714   5.729 -0.8793 -0.3589  0.2311
 6809TIP3    H120380   0.227   5.730   5.680 -0.7508 -1.9617 -0.5417
 6809TIP3    H220381   0.281   5.658   5.802 -0.2700 -2.0188 -0.7887
 6810TIP3   OH220382   6.138   6.611   0.804 -0.6158  0.0676 -0.6129
 6810TIP3    H120383   6.069   6.653   0.753 -0.3118  0.6026 -0.5883
 6810TIP3    H220384   6.116   6.518   0.803 -1.4314  0.2593 -0.4565
 6811TIP3   OH220385   1.232   4.152   5.080 -0.1107  0.3087  0.0130
 6811TIP3    H120386   1.148   4.113   5.106 -0.2172  0.1318 -0.5717
 6811TIP3    H220387   1.267   4.091   5.015  0.5951  0.2526  0.4422
 6812TIP3   OH220388   4.252   5.067   4.608 -0.0518 -0.2468  0.4150
 6812TIP3    H120389   4.231   5.159   4.590  3.1174  0.3020 -0.6549
 6812TIP3    H220390   4.187   5.018   4.557 -1.3440  1.3692  0.4611
 6813TIP3   OH220391   1.885   4.586   3.517 -0.0945  0.1100 -0.7967
 6813TIP3    H120392   1.876   4.529   3.594  1.3674 -1.4789 -1.7705
 6813TIP3    H220393   1.941   4.658   3.546  0.9934 -0.8259 -0.5405
 6814TIP3   OH220394   2.305   3.907   3.503  0.1373 -0.2045  0.0708
 6814TIP3    H120395   2.300   3.998   3.531 -1.5251 -0.2967  0.1537
 6814TIP3    H220396   2.370   3.907   3.433  1.3358  0.7438  1.1458
 6815TIP3   OH220397   2.909   4.240   3.790 -0.1644  0.2675  1.0183
 6815TIP3    H120398   2.948   4.309   3.736  1.1990  0.1004  1.7586
 6815TIP3    H220399   2.971   4.228   3.862 -0.4883 -1.5890  1.0134
 6816TIP3   OH220400   5.621   6.406   2.372  0.0903 -0.0179 -0.4517
 6816TIP3    H120401   5.648   6.315   2.358 -1.2415 -0.5976  0.6572
 6816TIP3    H220402   5.693   6.458   2.337  0.9211 -1.4994 -0.9897
 6817TIP3   OH220403   3.714   5.980   3.721 -0.8670  0.1679 -0.0896
 6817TIP3    H120404   3.737   6.002   3.630  1.1187 -0.3907  0.2562
 6817TIP3    H220405   3.798   5.975   3.766 -1.7251 -1.3887  1.3664
 6818TIP3   OH220406   3.969   3.356   5.550 -0.4629 -0.0835 -0.0156
 6818TIP3    H120407   3.967   3.328   5.459  0.0312 -3.0422  0.8253
 6818TIP3    H220408   3.885   3.328   5.586  0.7709 -2.2330  1.2994
 6819TIP3   OH220409   5.164   4.122   4.533 -0.4767  0.2333  0.3245
 6819TIP3    H120410   5.117   4.153   4.610  1.2833 -0.4667  1.7382
 6819TIP3    H220411   5.151   4.191   4.467 -1.4382  1.1776  1.4761
 6820TIP3   OH220412   3.226   3.843   4.477  0.0738  0.2803  0.1007
 6820TIP3    H120413   3.217   3.938   4.470  3.9514  0.6549 -1.1432
 6820TIP3    H220414   3.237   3.813   4.387  0.3834 -1.1474  0.5969
 6821TIP3   OH220415   2.291   4.951   3.446 -0.0396 -0.8874 -0.0725
 6821TIP3    H120416   2.274   4.858   3.436 -2.2219 -0.5628  0.3142
 6821TIP3    H220417   2.218   4.994   3.402  1.2558  0.6556 -0.7723
 6822TIP3   OH220418   3.704   3.521   4.973 -0.2725  0.0390  0.4090
 6822TIP3    H120419   3.792   3.526   4.935 -0.5690 -0.3852 -0.3609
 6822TIP3    H220420   3.652   3.478   4.905 -1.1790  0.7009  0.6781
 6823TIP3   OH220421   2.190   0.586   1.070  0.0629 -0.6639 -0.1081
 6823TIP3    H120422   2.213   0.586   1.163 -0.1835  0.6183 -0.0427
 6823TIP3    H220423   2.268   0.553   1.026  1.3286  1.7131  0.2910
 6824TIP3   OH220424   0.032   1.510   0.359  0.1984 -0.6372  0.4634
 6824TIP3    H120425  -0.051   1.541   0.323  0.4144 -0.0130  0.4955
 6824TIP3    H220426   0.024   1.415   0.361 -0.4792 -0.5794  0.3780
 6825TIP3   OH220427   5.152   5.283   3.758 -0.2879  0.3479 -0.7247
 6825TIP3    H120428   5.186   5.300   3.670  0.7474 -0.7644 -0.5569
 6825TIP3    H220429   5.134   5.189   3.758 -1.6626  0.6062 -0.2147
 6826TIP3   OH220430   1.837   5.807   5.330 -0.0510  0.3362  0.0405
 6826TIP3    H120431   1.816   5.887   5.378 -0.5917  0.7370 -0.8597
 6826TIP3    H220432   1.932   5.804   5.328 -0.0081  2.1061 -1.8064
 6827TIP3   OH220433   3.804   1.044   4.270 -0.4945  0.0083 -0.5829
 6827TIP3    H120434   3.869   1.111   4.291 -1.1593  0.4176  0.2009
 6827TIP3    H220435   3.856   0.966   4.249  0.2636  0.5638 -0.7708
 6828TIP3   OH220436   4.663   6.479   4.724 -0.5467 -0.2501  0.6205
 6828TIP3    H120437   4.714   6.551   4.762 -0.6354  0.0083  0.2550
 6828TIP3    H220438   4.713   6.401   4.745  0.7040  0.1138 -0.8659
 6829TIP3   OH220439   3.169   4.717   6.446  0.3411 -0.4147  0.5625
 6829TIP3    H120440   3.166   4.648   6.380  0.1906 -1.8417  2.0400
 6829TIP3    H220441   3.083   4.715   6.488  0.6942 -0.0417  1.3266
 6830TIP3   OH220442   7.296   5.442   2.352  0.2951 -0.3535 -0.0887
 6830TIP3    H120443   7.304   5.398   2.437 -2.0979  0.5840  0.6570
 6830TIP3    H220444   7.386   5.445   2.319  1.0526 -2.1743  1.6554
 6831TIP3   OH220445   5.918   3.143   4.637 -0.2740  0.0668  0.0874
 6831TIP3    H120446   5.996   3.183   4.599  0.0943 -0.2403  0.5075
 6831TIP3    H220447   5.845   3.193   4.600  0.2377  2.3774  2.0163
 6832TIP3   OH220448   5.700   2.642   1.650 -0.7756 -0.0150  0.3197
 6832TIP3    H120449   5.606   2.635   1.635 -0.7521  0.5386 -0.0880
 6832TIP3    H220450   5.712   2.727   1.692 -0.3395  0.4036 -0.6427
 6833TIP3   OH220451   4.951   4.716   4.806  0.3301  0.1429  0.0149
 6833TIP3    H120452   4.869   4.712   4.757  1.4396 -2.0629 -1.7431
 6833TIP3    H220453   4.924   4.729   4.897 -1.9466 -0.4951 -0.5506
 6834TIP3   OH220454   6.323   5.889   2.491 -0.0088 -0.4735  0.4081
 6834TIP3    H120455   6.328   5.913   2.584 -0.3192 -0.8177  0.5163
 6834TIP3    H220456   6.312   5.794   2.492  0.1298 -0.4924  0.0138
 6835TIP3   OH220457   6.873   4.576   3.573  0.3019  0.0900 -0.3606
 6835TIP3    H120458   6.889   4.489   3.536 -2.0285  0.0688 -1.3744
 6835TIP3    H220459   6.778   4.586   3.573  0.4643  2.0236  1.2181
 6836TIP3   OH220460   4.764   5.128   3.829 -0.4219 -0.3458  0.4991
 6836TIP3    H120461   4.811   5.083   3.900 -0.2710  1.4665  1.6022
 6836TIP3    H220462   4.728   5.207   3.871  1.5626  1.9489 -1.9012
 6837TIP3   OH220463   4.632   4.699   4.063 -0.9381  0.3416  0.9394
 6837TIP3    H120464   4.702   4.671   4.003 -1.5542  1.2019 -0.1867
 6837TIP3    H220465   4.661   4.667   4.148 -0.0462 -0.9189  0.2026
 6838TIP3   OH220466   3.191   0.119   0.177 -0.0499  0.0751 -0.0921
 6838TIP3    H120467   3.179   0.032   0.215  0.9925 -1.5594 -3.3633
 6838TIP3    H220468   3.229   0.170   0.249 -0.9221 -2.0537  1.9730
 6839TIP3   OH220469   3.910   4.176   4.325  0.1899 -0.6662  0.0410
 6839TIP3    H120470   3.928   4.085   4.349 -1.2791 -1.4998 -1.9258
 6839TIP3    H220471   3.816   4.187   4.342 -0.2755 -0.4427 -2.5265
 6840TIP3   OH220472   2.934   5.744   4.123 -0.3538  0.0533  0.0512
 6840TIP3    H120473   2.993   5.729   4.049 -1.3207 -0.6432 -0.5933
 6840TIP3    H220474   2.922   5.657   4.162 -1.9389 -0.0222 -0.5840
 6841TIP3   OH220475   3.522   3.414   4.326  0.1822  0.4254 -0.1973
 6841TIP3    H120476   3.478   3.368   4.254  1.6909 -0.6826 -0.4348
 6841TIP3    H220477   3.586   3.351   4.359  0.2828  1.3288  1.4004
 6842TIP3   OH220478   4.171   5.470   3.378  0.0671 -0.1061  0.1763
 6842TIP3    H120479   4.098   5.509   3.426 -0.5947 -1.3998  0.2284
 6842TIP3    H220480   4.241   5.461   3.442  0.0035  0.3955  0.3176
 6843TIP3   OH220481   3.141   4.589   5.781  0.3587 -0.4274  0.0452
 6843TIP3    H120482   3.071   4.603   5.717 -0.4182  0.9146  1.1817
 6843TIP3    H220483   3.195   4.668   5.775 -0.4203  0.2719  1.9132
 6844TIP3   OH220484   5.333   6.069   3.997 -0.0338 -0.5183  0.5144
 6844TIP3    H120485   5.288   6.106   3.921  2.7906 -0.4567 -1.1934
 6844TIP3    H220486   5.336   5.975   3.979  0.3366 -0.5457  0.7094
 6845TIP3   OH220487   4.412   4.514   5.556  0.7243  0.3000  0.1153
 6845TIP3    H120488   4.336   4.571   5.546 -1.3762 -2.0148  2.0478
 6845TIP3    H220489   4.424   4.507   5.650  2.2254 -0.7966 -0.1440
 6846TIP3   OH220490   5.204   6.422   3.466  0.6497 -0.0572  0.3249
 6846TIP3    H120491   5.164   6.335   3.461 -0.7360  0.6407 -1.6586
 6846TIP3    H220492   5.240   6.436   3.378 -1.0651  2.2442 -0.0337
 6847TIP3   OH220493   6.846   4.719   2.731  0.8209 -0.2572 -0.6089
 6847TIP3    H120494   6.803   4.772   2.664  1.1676  1.7133  0.6810
 6847TIP3    H220495   6.903   4.659   2.681 -0.1650  0.0347 -2.1253
 6848TIP3   OH220496   7.248   5.364   3.348 -0.1122  0.3014  0.3141
 6848TIP3    H120497   7.264   5.404   3.433 -0.9801  0.4072  0.4327
 6848TIP3    H220498   7.311   5.405   3.289  1.3171 -0.6464  1.1492
 6849TIP3   OH220499   4.632   2.959   5.170 -0.2091 -0.2850 -0.0532
 6849TIP3    H120500   4.693   2.924   5.106 -0.2433  1.0392 -0.8134
 6849TIP3    H220501   4.659   2.918   5.253  1.4566 -0.0142 -0.4420
 6850TIP3   OH220502   3.511   5.134   3.817 -0.2410 -0.3023 -0.3924
 6850TIP3    H120503   3.559   5.093   3.888 -1.1207  1.2071  1.1105
 6850TIP3    H220504   3.436   5.077   3.801 -1.8955  1.0298  2.2244
 6851TIP3   OH220505   1.989   7.177   1.148  0.1270  0.5760 -0.1504
 6851TIP3    H120506   1.994   7.096   1.198  0.5037  0.9859  0.4927
 6851TIP3    H220507   1.898   7.184   1.121  0.2031 -0.3166 -0.6415
 6852TIP3   OH220508   6.561   3.457   4.747  0.1284  0.1066  0.4571
 6852TIP3    H120509   6.497   3.510   4.793  0.6480  0.0965  1.1922
 6852TIP3    H220510   6.541   3.367   4.772 -0.3914 -0.0105 -0.3423
 6853TIP3   OH220511   3.441   5.881   3.780  0.2113  0.2280 -0.5381
 6853TIP3    H120512   3.528   5.913   3.759  1.8221 -2.3340  1.9118
 6853TIP3    H220513   3.451   5.786   3.784 -3.3058 -0.3336 -2.7771
 6854TIP3   OH220514   5.875   5.728   4.429  0.0224  0.4909 -1.2839
 6854TIP3    H120515   5.966   5.714   4.451  0.0848  0.2166 -1.7188
 6854TIP3    H220516   5.827   5.709   4.510  0.1213 -1.9131 -1.7804
 6855TIP3   OH220517   6.401   4.268   3.881  0.0544 -0.2274  0.1827
 6855TIP3    H120518   6.440   4.353   3.860 -0.7975  0.8662  2.8559
 6855TIP3    H220519   6.320   4.266   3.831  0.4269  0.2335 -0.4443
 6856TIP3   OH220520   4.893   4.970   5.206 -0.4839 -0.4986  0.3280
 6856TIP3    H120521   4.938   5.034   5.150  2.9646 -2.6783  0.4307
 6856TIP3    H220522   4.879   5.016   5.289 -0.4679  0.9519 -0.4559
 6857TIP3   OH220523   3.668   3.536   3.556  0.1055  0.2598 -0.2718
 6857TIP3    H120524   3.745   3.593   3.561  0.8503 -0.6761 -0.7967
 6857TIP3    H220525   3.702   3.449   3.577 -0.5684 -0.3539 -1.6556
 6858TIP3   OH220526   6.855   3.289   4.716  0.1657  0.5291  0.8103
 6858TIP3    H120527   6.833   3.310   4.807 -0.7939  0.8278  0.5098
 6858TIP3    H220528   6.897   3.203   4.721  0.0925  0.5298  1.5298
 6859TIP3   OH220529   3.686   5.021   5.263 -0.2744  0.4924  0.2874
 6859TIP3    H120530   3.775   5.030   5.229 -0.8078 -0.6464 -1.4668
 6859TIP3    H220531   3.637   5.092   5.222 -1.0590 -1.2486 -1.8879
 6860TIP3   OH220532   5.861   6.303   3.019  0.0645  0.1780 -0.2145
 6860TIP3    H120533   5.794   6.327   3.083  0.4662  2.4770 -0.6120
 6860TIP3    H220534   5.835   6.348   2.939  0.7467 -0.9212 -1.0806
 6861TIP3   OH220535   4.080   3.267   3.578 -0.9273 -0.2235 -0.5166
 6861TIP3    H120536   4.050   3.289   3.489 -0.2674  2.5662 -0.0942
 6861TIP3    H220537   4.041   3.181   3.595 -4.4375  0.9634 -1.9409
 6862TIP3   OH220538   5.353   4.906   2.514 -0.7151 -0.2492  0.5506
 6862TIP3    H120539   5.263   4.890   2.543 -0.8119  0.6241  0.7220
 6862TIP3    H220540   5.374   4.993   2.546  0.3140 -0.5801  0.7994
 6863TIP3   OH220541   5.424   5.726   4.422  0.1304  0.6949 -0.3609
 6863TIP3    H120542   5.394   5.727   4.513 -0.8197 -1.3624 -0.6062
 6863TIP3    H220543   5.365   5.664   4.378  2.7547 -1.0348 -1.5931
 6864TIP3   OH220544   3.596   3.756   6.054 -0.2522  0.5963  0.0941
 6864TIP3    H120545   3.606   3.661   6.067 -2.2626  0.2577 -0.6430
 6864TIP3    H220546   3.546   3.784   6.131 -0.2403  0.9491 -0.0298
 6865TIP3   OH220547   4.272   3.904   3.059 -0.3399  0.1678 -0.5733
 6865TIP3    H120548   4.211   3.890   2.987  0.8047 -0.7070 -1.4070
 6865TIP3    H220549   4.346   3.950   3.019  1.3190 -2.3092 -0.5107
 6866TIP3   OH220550   5.896   6.741   2.471 -0.1154 -0.3240 -0.0333
 6866TIP3    H120551   5.850   6.678   2.415  0.1700 -1.7982  1.3215
 6866TIP3    H220552   5.850   6.823   2.459 -1.1770 -1.0549 -1.0522
 6867TIP3   OH220553   5.872   5.794   6.126  0.8478  0.2185  0.6510
 6867TIP3    H120554   5.966   5.809   6.138  0.4102  3.0478  0.9835
 6867TIP3    H220555   5.847   5.736   6.198  2.3480 -0.5825  0.5353
 6868TIP3   OH220556   3.758   4.785   2.874 -0.4070 -0.3840  0.2040
 6868TIP3    H120557   3.796   4.723   2.811  0.3608  1.0065 -0.7216
 6868TIP3    H220558   3.676   4.813   2.832  0.1121  0.5531 -0.1970
 6869TIP3   OH220559   5.130   4.419   5.293 -0.4851  0.4539 -0.2527
 6869TIP3    H120560   5.049   4.463   5.267 -1.5376  0.1347  2.4138
 6869TIP3    H220561   5.149   4.451   5.381  0.8813 -1.4479  0.1806
 6870TIP3   OH220562   4.332   5.342   4.009 -0.0522  0.2338 -0.0076
 6870TIP3    H120563   4.424   5.317   4.008  0.7361  2.9881  0.8245
 6870TIP3    H220564   4.313   5.372   3.920 -0.3782 -1.0472 -0.3834
 6871TIP3   OH220565   4.356   4.367   4.982 -0.0162 -0.1046 -0.0004
 6871TIP3    H120566   4.382   4.333   4.896 -0.4800 -1.6056  0.4341
 6871TIP3    H220567   4.311   4.449   4.962  1.5670  0.5392 -1.0367
 6872TIP3   OH220568   3.745   4.170   1.948 -0.2193  0.4798  0.2360
 6872TIP3    H120569   3.663   4.129   1.977 -0.4833  2.0762  1.8607
 6872TIP3    H220570   3.800   4.097   1.920 -1.6214 -0.7520  0.6243
 6873TIP3   OH220571   2.147   2.467   5.273  0.2607 -0.1414  0.1085
 6873TIP3    H120572   2.139   2.507   5.359  0.6311  1.6677 -0.6814
 6873TIP3    H220573   2.239   2.475   5.251  0.1750 -0.6281 -0.4554
 6874TIP3   OH220574   4.150   5.319   2.991  0.6271 -0.3477  0.0956
 6874TIP3    H120575   4.070   5.313   3.044 -0.5147 -2.6441 -1.8057
 6874TIP3    H220576   4.221   5.308   3.053 -0.6224 -0.7925  1.4756
 6875TIP3   OH220577   4.398   4.964   4.295  0.0307  0.3974 -0.0973
 6875TIP3    H120578   4.342   4.945   4.371 -0.2668 -2.5960 -1.0131
 6875TIP3    H220579   4.385   5.058   4.280 -0.5289  0.8976  3.0299
 6876TIP3   OH220580   6.127   3.481   2.135  0.3359  0.1706  0.0984
 6876TIP3    H120581   6.170   3.425   2.199 -1.0861 -2.3772 -1.1264
 6876TIP3    H220582   6.087   3.551   2.186 -0.1598 -1.4175  1.9111
 6877TIP3   OH220583   4.340   3.735   5.835 -0.6919 -0.2440  0.5618
 6877TIP3    H120584   4.414   3.702   5.783  0.9571  2.8665  0.8441
 6877TIP3    H220585   4.381   3.781   5.909 -2.8308  2.7766 -0.0420
 6878TIP3   OH220586   3.041   4.993   3.567  0.5125  0.3066 -0.4296
 6878TIP3    H120587   2.946   4.994   3.551  0.4555 -0.5294 -0.2073
 6878TIP3    H220588   3.077   4.952   3.488  0.4284 -1.8642  0.6288
 6879TIP3   OH220589   3.306   4.694   5.004  0.3192 -0.6059  0.5056
 6879TIP3    H120590   3.324   4.618   4.949  0.9269 -0.6480  0.7612
 6879TIP3    H220591   3.274   4.658   5.087  2.4625 -0.6540  1.3222
 6880TIP3   OH220592   3.082   3.421   4.305  0.1005 -0.1528 -0.0668
 6880TIP3    H120593   3.120   3.481   4.369 -1.4940 -0.7493  1.4786
 6880TIP3    H220594   3.045   3.478   4.237  1.0628  0.5039 -0.0514
 6881TIP3   OH220595   1.894   0.316   0.921  0.0955 -0.2267  0.4569
 6881TIP3    H120596   1.968   0.274   0.878 -0.5542 -0.8182 -0.1071
 6881TIP3    H220597   1.886   0.270   1.004  0.5862  0.0848  0.6775
 6882TIP3   OH220598   5.038   4.040   4.042  0.1592 -0.3940 -0.5180
 6882TIP3    H120599   4.997   4.041   3.955  1.7650  0.1715 -1.3044
 6882TIP3    H220600   4.982   4.097   4.095 -1.0236 -1.0004 -1.0902
 6883TIP3   OH220601   5.505   4.925   5.868 -0.5508  0.4812 -0.1266
 6883TIP3    H120602   5.593   4.895   5.887 -1.1026 -0.5005  0.9704
 6883TIP3    H220603   5.454   4.900   5.945 -1.8223  0.8546 -0.8309
 6884TIP3   OH220604   3.913   4.508   4.469 -0.0051 -0.2409 -0.2288
 6884TIP3    H120605   3.946   4.437   4.523 -2.1440 -1.1755 -0.0808
 6884TIP3    H220606   3.945   4.489   4.381 -2.5685 -2.7771 -0.6726
 6885TIP3   OH220607   5.761   5.251   1.415  0.5886  0.3343  0.4905
 6885TIP3    H120608   5.835   5.189   1.412 -1.0641 -1.6388 -1.2059
 6885TIP3    H220609   5.801   5.337   1.405  2.6586 -0.7025 -0.4835
 6886TIP3   OH220610   4.306   4.582   2.141  0.2249  0.1850  0.2863
 6886TIP3    H120611   4.221   4.599   2.100  0.7685  0.8192 -0.5976
 6886TIP3    H220612   4.368   4.631   2.087  1.4160 -1.9776 -0.3286
 6887TIP3   OH220613   7.632   4.949   4.910 -0.4981 -0.0342  0.0576
 6887TIP3    H120614   7.696   4.878   4.922 -0.7967 -0.1645  0.9435
 6887TIP3    H220615   7.675   5.010   4.850  1.0617  0.5978  1.7549
 6888TIP3   OH220616   3.146   5.740   3.377 -0.3931 -0.1932 -0.5778
 6888TIP3    H120617   3.105   5.785   3.450  0.5975 -0.3510  0.0917
 6888TIP3    H220618   3.096   5.659   3.367 -0.4358 -0.2384  0.0222
 6889TIP3   OH220619   5.015   3.793   5.153 -0.4885  0.5131 -0.6461
 6889TIP3    H120620   5.037   3.758   5.066  0.6372 -0.3769 -0.0224
 6889TIP3    H220621   4.950   3.732   5.188  1.2401 -0.8301  0.3122
 6890TIP3   OH220622   5.225   4.653   1.830 -0.3148  0.1294  0.0018
 6890TIP3    H120623   5.223   4.666   1.925 -0.8593  2.0511 -0.2644
 6890TIP3    H220624   5.229   4.558   1.820 -2.6964 -0.2424  1.9337
 6891TIP3   OH220625   3.996   3.863   4.905 -0.3944  0.0922  0.2625
 6891TIP3    H120626   4.066   3.927   4.892 -0.0944  0.2845  2.5573
 6891TIP3    H220627   4.014   3.826   4.992 -2.9043 -0.1506  0.6984
 6892TIP3   OH220628   6.539   3.817   2.368  0.2681 -0.5910 -0.0452
 6892TIP3    H120629   6.466   3.755   2.362 -0.9173  0.8712 -0.9679
 6892TIP3    H220630   6.498   3.903   2.371  1.9351  0.2269  0.0370
 6893TIP3   OH220631   3.123   3.001   5.678 -0.4148  0.1555 -0.3434
 6893TIP3    H120632   3.064   2.926   5.673 -0.3616  0.1531 -1.0368
 6893TIP3    H220633   3.089   3.061   5.611  0.6132 -0.0133 -1.0122
 6894TIP3   OH220634   6.279   5.016   3.454 -0.2696 -0.0554 -0.1908
 6894TIP3    H120635   6.366   5.053   3.437 -1.4668  2.0356 -2.0597
 6894TIP3    H220636   6.242   5.072   3.522 -0.6017 -0.2340 -0.2218
 6895TIP3   OH220637   4.003   3.545   4.498  1.0762  0.1438  0.2900
 6895TIP3    H120638   4.011   3.484   4.424  0.3199  1.4949 -0.9252
 6895TIP3    H220639   4.030   3.493   4.574  0.7135 -1.6303 -0.7512
 6896TIP3   OH220640   3.311   2.896   2.018 -0.3473 -0.6121 -0.0315
 6896TIP3    H120641   3.290   2.926   2.107 -1.4810 -2.1030  0.2237
 6896TIP3    H220642   3.241   2.931   1.964  0.2344  0.1258 -0.3112
 6897TIP3   OH220643   3.157   6.693   3.034  0.0718 -0.3057 -0.2043
 6897TIP3    H120644   3.198   6.676   2.949 -0.2411  1.2768 -0.6816
 6897TIP3    H220645   3.198   6.629   3.093  0.9978 -0.7694 -1.3254
 6898TIP3   OH220646   5.891   6.282   4.822  0.2387 -0.1687 -0.2025
 6898TIP3    H120647   5.900   6.307   4.915  0.4532  0.9013 -0.4961
 6898TIP3    H220648   5.806   6.317   4.796  0.5493  0.2658 -0.6313
 6899TIP3   OH220649   5.700   3.625   4.383 -0.3439  0.4955  0.3448
 6899TIP3    H120650   5.621   3.676   4.403  0.7787  1.9769  1.1443
 6899TIP3    H220651   5.759   3.642   4.457  1.1626  0.3323 -0.7902
 6900TIP3   OH220652   3.859   3.423   4.008  0.1769 -0.0392 -0.6576
 6900TIP3    H120653   3.815   3.339   4.006 -2.2628  1.1030  2.0613
 6900TIP3    H220654   3.806   3.480   3.951 -0.2900  0.6154  0.4226
 6901TIP3   OH220655   4.864   5.149   2.601  0.1578 -0.4770 -0.0123
 6901TIP3    H120656   4.911   5.155   2.518  0.1462  0.4342  0.0356
 6901TIP3    H220657   4.774   5.172   2.579  0.0332 -0.8221  0.1438
 6902TIP3   OH220658   4.100   2.386   4.913  0.0589 -0.3687 -0.3873
 6902TIP3    H120659   4.077   2.405   4.822 -0.4804 -1.6023 -0.5318
 6902TIP3    H220660   4.094   2.470   4.958 -1.2598 -0.0254 -1.1774
 6903TIP3   OH220661   4.481   5.854   1.806 -0.1168  0.1404  0.1908
 6903TIP3    H120662   4.413   5.922   1.801  1.1535  1.3969 -0.1832
 6903TIP3    H220663   4.507   5.854   1.898 -0.5689 -0.2908  0.3198
 6904TIP3   OH220664   5.289   4.466   2.576  0.3173 -0.4429  0.0767
 6904TIP3    H120665   5.273   4.513   2.495 -0.6796 -0.7346  0.1003
 6904TIP3    H220666   5.305   4.376   2.549 -0.9988 -0.7383  0.2765
 6905TIP3   OH220667   4.959   4.116   5.102 -0.3299 -0.0938  0.0462
 6905TIP3    H120668   5.049   4.116   5.070  0.4028 -1.1396  1.9704
 6905TIP3    H220669   4.918   4.191   5.060  1.8363  1.2132  0.1980
 6906TIP3   OH220670   3.490   3.135   5.659  0.4465  0.0666 -0.4567
 6906TIP3    H120671   3.416   3.185   5.694 -0.9577 -1.4692 -1.1545
 6906TIP3    H220672   3.486   3.148   5.565  0.7888 -0.3952 -0.5376
 6907TIP3   OH220673   5.057   4.626   4.103  0.5971 -0.4088 -0.2012
 6907TIP3    H120674   5.013   4.580   4.032  0.6033 -1.1616  0.2775
 6907TIP3    H220675   4.994   4.627   4.174  1.1640 -1.0516  0.3190
 6908TIP3   OH220676   2.823   4.324   5.816  0.4494 -0.2856  0.1572
 6908TIP3    H120677   2.917   4.334   5.827  0.2180  1.5028  0.7307
 6908TIP3    H220678   2.795   4.403   5.770 -0.7944 -0.6892  0.1904
 6909TIP3   OH220679   3.794   4.578   5.033  0.6526  0.4381  0.0757
 6909TIP3    H120680   3.872   4.615   4.992  0.4190 -0.8109 -1.5312
 6909TIP3    H220681   3.788   4.489   4.998 -1.8391  0.7286 -0.2921
 6910TIP3   OH220682   3.929   5.783   3.276  0.0477  0.0112  0.1366
 6910TIP3    H120683   3.993   5.714   3.260 -0.1523  0.0638 -0.9053
 6910TIP3    H220684   3.869   5.779   3.202 -0.9335  0.2221  0.9001
 6911TIP3   OH220685   5.354   4.742   3.433  0.0539  0.1530  0.7894
 6911TIP3    H120686   5.432   4.798   3.432  0.0041  0.2209  0.4324
 6911TIP3    H220687   5.287   4.794   3.388  0.4161 -0.7822 -0.8771
 6912TIP3   OH220688   4.935   6.202   3.020 -0.3100 -0.3560 -0.4579
 6912TIP3    H120689   4.960   6.206   2.928  0.8623  0.9045 -0.0998
 6912TIP3    H220690   4.906   6.291   3.041  1.1020 -0.1954  0.8461
 6913TIP3   OH220691   0.911   1.284   0.703  0.2818 -0.1053 -0.2566
 6913TIP3    H120692   0.955   1.202   0.681  0.9155  0.4035 -0.9207
 6913TIP3    H220693   0.894   1.278   0.797 -1.9137 -2.0532 -0.7633
 6914TIP3   OH220694   5.384   6.394   1.657  0.7301  0.0376 -0.1587
 6914TIP3    H120695   5.448   6.344   1.708  1.3426  0.5389 -0.4371
 6914TIP3    H220696   5.437   6.449   1.599  0.0442  0.0655 -0.7627
 6915TIP3   OH220697   5.690   4.531   3.525 -0.3172 -0.2928 -0.3584
 6915TIP3    H120698   5.637   4.478   3.584 -0.5859 -0.3184 -0.6254
 6915TIP3    H220699   5.632   4.552   3.452  0.2247 -0.8624 -0.9606
 6916TIP3   OH220700   5.592   4.462   2.525 -0.1674 -0.4998 -0.3146
 6916TIP3    H120701   5.499   4.478   2.544 -0.2616 -0.0291 -1.1416
 6916TIP3    H220702   5.622   4.408   2.598 -1.2028 -1.0308 -0.2646
 6917TIP3   OH220703   5.828   4.646   3.964  0.2816  0.2504  0.6471
 6917TIP3    H120704   5.916   4.682   3.979  0.4433  0.1571 -0.0611
 6917TIP3    H220705   5.785   4.711   3.909  1.0533 -1.2875 -1.8222
 6918TIP3   OH220706   3.244   4.642   5.272  0.4759  1.0792 -0.8161
 6918TIP3    H120707   3.310   4.576   5.291  0.0895  0.4934 -1.4829
 6918TIP3    H220708   3.213   4.670   5.358  0.5422  0.2892 -0.5298
 6919TIP3   OH220709   4.492   3.737   1.979  0.6404  0.3064 -0.0423
 6919TIP3    H120710   4.422   3.795   1.950  1.1159  1.3429  0.8215
 6919TIP3    H220711   4.572   3.773   1.940  0.7331 -0.7506 -0.8623
 6920TIP3   OH220712   3.508   4.071   4.717  0.5807 -0.1470  0.0752
 6920TIP3    H120713   3.529   4.016   4.642 -1.0252 -2.0204  0.9681
 6920TIP3    H220714   3.428   4.117   4.692 -0.3733 -1.3353  0.9082
 6921TIP3   OH220715   3.075   5.551   2.065  0.1153  0.1399  0.6786
 6921TIP3    H120716   3.144   5.500   2.023 -0.7873 -0.0673 -0.5881
 6921TIP3    H220717   3.014   5.572   1.994  1.2021  4.2878  0.7968
 6922TIP3   OH220718   3.261   5.208   3.637  0.0188  1.2104  0.0267
 6922TIP3    H120719   3.335   5.165   3.595  0.8066  2.1936  0.3712
 6922TIP3    H220720   3.184   5.166   3.600  0.6363  2.8517 -3.3403
 6923TIP3   OH220721   4.437   4.918   3.419  0.0028  0.5488 -0.4448
 6923TIP3    H120722   4.462   4.840   3.467  2.0373  2.0150  0.9447
 6923TIP3    H220723   4.520   4.962   3.398 -1.1455  3.1679  0.2498
 6924TIP3   OH220724   4.238   4.667   4.432 -0.1431 -0.2883 -0.3869
 6924TIP3    H120725   4.186   4.718   4.370  1.1932  0.0577 -1.2407
 6924TIP3    H220726   4.237   4.578   4.397  0.5809 -0.1000 -0.8959
 6925TIP3   OH220727   0.643   2.856   0.931 -0.4528 -0.0363  0.7269
 6925TIP3    H120728   0.623   2.787   0.868 -1.7335  1.6234 -0.7044
 6925TIP3    H220729   0.737   2.847   0.947  0.2239  0.4951 -2.6288
 6926TIP3   OH220730   4.383   3.094   5.983 -0.6710  0.3825  0.2277
 6926TIP3    H120731   4.290   3.077   6.001 -0.8291  0.9209 -0.0652
 6926TIP3    H220732   4.420   3.116   6.068 -1.7217  4.3396 -0.2570
 6927TIP3   OH220733   4.799   3.913   4.983  0.4002  0.2372  0.2017
 6927TIP3    H120734   4.731   3.912   5.050  0.0462  0.2688 -0.1567
 6927TIP3    H220735   4.871   3.962   5.023 -0.5148  1.8694 -0.1091
 6928TIP3   OH220736   5.576   5.379   4.505  0.0727 -0.5927  0.9862
 6928TIP3    H120737   5.542   5.337   4.585  1.3420 -0.8723  1.3919
 6928TIP3    H220738   5.660   5.415   4.532  0.4848 -0.6439 -0.2231
 6929TIP3   OH220739   1.672   1.851   0.480  0.6790  0.7638  0.5142
 6929TIP3    H120740   1.590   1.870   0.434 -0.3897 -0.6359  1.7992
 6929TIP3    H220741   1.720   1.934   0.479  0.7295  0.8038 -3.1419
 6930TIP3   OH220742   5.075   3.041   4.166 -0.0424  0.1832  0.5746
 6930TIP3    H120743   5.160   3.084   4.171  0.4372 -0.5930 -0.8964
 6930TIP3    H220744   5.090   2.953   4.199 -0.0833 -0.2276 -0.4966
 6931TIP3   OH220745   3.239   4.140   4.390  0.1660  0.6472 -0.8548
 6931TIP3    H120746   3.239   4.225   4.434 -1.8781 -0.8563  2.2665
 6931TIP3    H220747   3.150   4.129   4.357  0.4219 -0.2260 -1.2771
 6932TIP3   OH220748   4.519   2.054   4.179 -0.1971 -0.1307 -0.0479
 6932TIP3    H120749   4.595   2.106   4.151  0.8264 -1.7126 -0.2814
 6932TIP3    H220750   4.552   2.001   4.251 -1.4809  0.2078  0.7990
 6933TIP3   OH220751   1.366   0.790   2.011 -0.0012 -0.4352  0.1225
 6933TIP3    H120752   1.283   0.812   1.968  0.2930  2.0759  0.7688
 6933TIP3    H220753   1.386   0.702   1.979 -0.9265  0.4525 -3.1725
 6934TIP3   OH220754   4.785   2.131   4.800 -0.0236 -0.3264 -0.2489
 6934TIP3    H120755   4.719   2.087   4.747 -0.1535 -0.2151 -0.1781
 6934TIP3    H220756   4.751   2.127   4.889 -0.9471  1.5731 -0.4812
 6935TIP3   OH220757   3.561   1.046   4.003  0.1256  0.1602 -0.2164
 6935TIP3    H120758   3.609   0.963   3.999  0.1889  0.1468  0.6762
 6935TIP3    H220759   3.477   1.023   4.044  0.1760  0.5487  0.1098
 6936TIP3   OH220760   1.943   3.486   4.320 -0.3302  0.4121 -0.5917
 6936TIP3    H120761   1.857   3.511   4.287 -0.9742 -0.4981  0.3471
 6936TIP3    H220762   1.973   3.561   4.370 -0.0035  1.2275 -1.9916
 6937TIP3   OH220763   3.343   4.131   4.112 -0.2541  0.4393 -0.2929
 6937TIP3    H120764   3.376   4.047   4.080  1.8506  0.6127  1.3398
 6937TIP3    H220765   3.318   4.113   4.203  1.8656  1.9759  0.6167
 6938TIP3   OH220766   3.300   5.400   2.272 -0.4611 -0.2203  0.0123
 6938TIP3    H120767   3.333   5.477   2.226 -0.8772 -0.4639 -0.6908
 6938TIP3    H220768   3.207   5.397   2.253 -0.0779 -2.1072 -1.7590
 6939TIP3   OH220769   2.759   5.037   3.548 -0.0368 -0.3521 -0.5796
 6939TIP3    H120770   2.706   4.965   3.582 -0.8118  0.1695 -0.6954
 6939TIP3    H220771   2.719   5.059   3.464  0.2675  0.1510 -0.5922
 6940TIP3   OH220772   4.874   5.060   3.177 -0.1467 -0.1306 -0.0347
 6940TIP3    H120773   4.859   5.123   3.107 -0.5078 -0.6747 -0.4505
 6940TIP3    H220774   4.926   5.108   3.242 -0.6942  0.6909 -0.1936
 6941TIP3   OH220775   4.729   5.596   4.114 -0.1436 -0.7636  0.1099
 6941TIP3    H120776   4.689   5.601   4.201  0.4465 -1.2458  0.4108
 6941TIP3    H220777   4.767   5.683   4.100 -0.8952 -0.4444  0.0128
 6942TIP3   OH220778   7.166   5.505   5.888  0.6160 -0.3543  0.2929
 6942TIP3    H120779   7.157   5.510   5.983 -1.6107 -0.6793  0.1202
 6942TIP3    H220780   7.189   5.594   5.861  0.2707 -0.0369  1.0398
 6943TIP3   OH220781   3.545   3.710   2.861 -0.2660 -0.2843 -0.8659
 6943TIP3    H120782   3.542   3.801   2.829  0.5004  0.1723  0.3284
 6943TIP3    H220783   3.557   3.658   2.782  3.9523  0.9849 -1.1962
 6944TIP3   OH220784   4.947   3.738   2.601  0.2738  0.0981 -0.5198
 6944TIP3    H120785   4.923   3.821   2.641 -1.6497 -0.3192 -0.7907
 6944TIP3    H220786   5.024   3.758   2.548 -0.6238  1.8701 -1.1671
 6945TIP3   OH220787   5.719   3.881   4.800  0.4648  0.8827  0.0867
 6945TIP3    H120788   5.667   3.869   4.880  2.0555  0.3585  1.0631
 6945TIP3    H220789   5.785   3.947   4.824  1.2312  0.3911 -0.6556
 6946TIP3   OH220790   5.653   5.783   2.584 -0.2920 -0.6255 -1.1852
 6946TIP3    H120791   5.577   5.796   2.526 -0.0370 -0.9754 -1.6023
 6946TIP3    H220792   5.669   5.689   2.581 -1.3786 -0.9091  0.8578
 6947TIP3   OH220793   6.193   4.633   1.233 -0.1615  0.5960 -0.1720
 6947TIP3    H120794   6.277   4.619   1.276  0.4600  0.8619 -1.2868
 6947TIP3    H220795   6.132   4.576   1.280  0.5994  0.5190  0.7412
 6948TIP3   OH220796   7.345   4.836   3.271 -0.8088  0.0697 -0.0592
 6948TIP3    H120797   7.371   4.870   3.356  1.3983  1.5606 -1.2904
 6948TIP3    H220798   7.337   4.913   3.215 -2.4803 -0.8638 -1.1655
 6949TIP3   OH220799   4.222   5.568   2.207 -0.5403  0.4531  0.1731
 6949TIP3    H120800   4.243   5.483   2.168 -0.2676  1.7484 -2.6252
 6949TIP3    H220801   4.184   5.546   2.292  0.0948 -2.4445 -0.2208
 6950TIP3   OH220802   2.636   4.831   3.700  0.2995 -0.4497  0.2512
 6950TIP3    H120803   2.647   4.888   3.776 -1.2655  0.1293  0.0711
 6950TIP3    H220804   2.675   4.747   3.726 -2.0018 -0.8870  2.4549
 6951TIP3   OH220805   3.748   3.723   5.177 -0.5414  0.8121  0.4306
 6951TIP3    H120806   3.730   3.641   5.131 -1.0352  1.1140  0.0741
 6951TIP3    H220807   3.843   3.734   5.173 -0.4754  0.2496  0.4960
 6952TIP3   OH220808   3.815   3.851   4.662  0.4924 -0.3386  0.1875
 6952TIP3    H120809   3.846   3.859   4.753  1.0235 -1.6989  0.1455
 6952TIP3    H220810   3.799   3.757   4.651  0.5624 -0.2011 -1.1745
 6953TIP3   OH220811   5.309   5.233   2.440  0.4466  0.1335 -0.6306
 6953TIP3    H120812   5.397   5.214   2.407  1.0215 -0.0919  0.9709
 6953TIP3    H220813   5.323   5.254   2.532 -1.3084 -0.9947 -0.0876
 6954TIP3   OH220814   5.344   5.962   2.869 -0.0771  0.1878  0.4472
 6954TIP3    H120815   5.431   5.998   2.886 -0.5156  1.5297 -0.0269
 6954TIP3    H220816   5.318   5.922   2.951  1.3119 -0.9138  0.3573
 6955TIP3   OH220817   6.244   5.096   2.606 -0.3545 -0.4856 -0.5005
 6955TIP3    H120818   6.335   5.071   2.625 -0.2295 -0.4070 -0.9814
 6955TIP3    H220819   6.227   5.059   2.520 -0.9075 -0.8172 -0.2505
 6956TIP3   OH220820   1.657   0.938   1.603 -0.4096  0.2574 -0.3712
 6956TIP3    H120821   1.610   0.875   1.548 -1.3559  1.9546 -1.5302
 6956TIP3    H220822   1.644   0.905   1.692 -3.3225  0.3442 -0.7108
 6957TIP3   OH220823   3.600   4.736   4.929 -0.2019 -0.6111 -0.3393
 6957TIP3    H120824   3.524   4.736   4.987 -0.3577  0.2404 -0.5265
 6957TIP3    H220825   3.659   4.670   4.965 -0.5112 -0.4289  0.4983
 6958TIP3   OH220826   3.313   2.939   3.426  0.3073  0.7138  0.4828
 6958TIP3    H120827   3.332   2.895   3.509 -0.5083 -3.2777 -1.3274
 6958TIP3    H220828   3.225   2.975   3.437  0.3589  0.5474  1.4681
 6959TIP3   OH220829   3.645   1.443   4.780  0.0617  0.1775  0.2133
 6959TIP3    H120830   3.716   1.472   4.837  1.2593  0.6045 -1.4647
 6959TIP3    H220831   3.651   1.500   4.703 -1.8359 -0.0674 -0.1255
 6960TIP3   OH220832   4.988   4.001   5.660 -0.5884 -0.0109  0.3212
 6960TIP3    H120833   5.040   4.067   5.705 -0.5217 -0.4806  0.9402
 6960TIP3    H220834   4.952   3.947   5.730 -0.6477 -0.6264 -0.1793
 6961TIP3   OH220835   4.412   4.155   3.403 -0.4205  0.0150  0.1865
 6961TIP3    H120836   4.322   4.125   3.389 -0.7207  0.6909  0.6025
 6961TIP3    H220837   4.404   4.223   3.471  0.5104 -0.5294  0.8547
 6962TIP3   OH220838   4.044   4.254   5.045  0.4947 -0.4139 -0.4024
 6962TIP3    H120839   4.089   4.169   5.040 -0.1851 -0.8831  1.2694
 6962TIP3    H220840   4.088   4.300   5.117 -0.4424 -0.1183 -0.0169
 6963TIP3   OH220841   5.202   3.748   4.415  0.4904 -0.4313  0.2359
 6963TIP3    H120842   5.278   3.737   4.358  0.3177 -0.5508  0.0305
 6963TIP3    H220843   5.137   3.686   4.382  0.0134  0.2254 -0.0820
 6964TIP3   OH220844   4.660   5.082   4.441 -0.5062  0.2593 -0.2292
 6964TIP3    H120845   4.629   5.127   4.519 -1.3854  0.0344 -0.4459
 6964TIP3    H220846   4.599   5.010   4.428  0.1690 -0.2579 -0.6006
 6965TIP3   OH220847   2.690   0.264   0.422  0.0314 -0.3362  0.0771
 6965TIP3    H120848   2.674   0.222   0.507 -1.2911 -0.7099 -0.3482
 6965TIP3    H220849   2.774   0.228   0.393  0.0931 -0.8237  0.8505
 6966TIP3   OH220850   6.317   2.835   4.354 -0.0762  0.2478 -0.0689
 6966TIP3    H120851   6.323   2.742   4.333 -0.3696  0.1650  0.2002
 6966TIP3    H220852   6.353   2.842   4.443  1.4630  0.6434 -0.7064
 6967TIP3   OH220853   4.418   4.640   3.875  0.5420  0.5978 -0.2683
 6967TIP3    H120854   4.356   4.583   3.920  1.7229 -0.4532  0.0639
 6967TIP3    H220855   4.479   4.668   3.943 -0.1596  2.4529 -0.3902
 6968TIP3   OH220856   3.525   3.211   3.297 -0.0539  0.4359 -0.1027
 6968TIP3    H120857   3.485   3.203   3.383  0.8687  1.0493  0.3931
 6968TIP3    H220858   3.479   3.284   3.255  0.8699  1.4843  0.6667
 6969TIP3   OH220859   3.586   7.098   4.141  0.0376  0.1813  0.4211
 6969TIP3    H120860   3.502   7.126   4.105 -0.0221  2.5213  2.2741
 6969TIP3    H220861   3.563   7.040   4.213  0.0043  0.6904  0.8232
 6970TIP3   OH220862   3.313   5.402   3.308  0.2054 -0.0578  0.1427
 6970TIP3    H120863   3.408   5.411   3.315  0.0173  1.1118  1.3221
 6970TIP3    H220864   3.297   5.308   3.313  1.2242 -0.1995  0.7881
 6971TIP3   OH220865   4.302   4.381   3.192  0.2532 -0.2679  0.3806
 6971TIP3    H120866   4.242   4.317   3.154  0.2682 -0.1600  0.1750
 6971TIP3    H220867   4.330   4.341   3.274  0.4256 -0.6215  0.1557
 6972TIP3   OH220868   6.987   5.275   2.437  0.2417 -0.2665  0.4030
 6972TIP3    H120869   7.034   5.318   2.508 -1.3288  0.0815  1.2743
 6972TIP3    H220870   6.971   5.186   2.469  2.3250 -1.1224 -0.8512
 6973TIP3   OH220871   4.726   4.458   4.779 -0.5484  0.3711 -0.2623
 6973TIP3    H120872   4.672   4.504   4.842 -2.1412 -0.5639 -0.9054
 6973TIP3    H220873   4.744   4.522   4.710  2.0914  1.7257  1.5702
 6974TIP3   OH220874   2.963   2.651   3.343 -0.1783  0.0370 -0.8024
 6974TIP3    H120875   2.919   2.717   3.396  1.1743  0.9791 -0.8331
 6974TIP3    H220876   2.938   2.568   3.384  1.9878  0.7886  2.2503
 6975TIP3   OH220877   4.131   5.009   4.138  0.3632  0.6477  0.0049
 6975TIP3    H120878   4.213   5.058   4.145  0.2754  0.4801  2.9449
 6975TIP3    H220879   4.158   4.919   4.119  0.7207  1.0803 -1.5516
 6976TIP3   OH220880   6.732   6.238   4.389  0.3656 -0.3793  0.2030
 6976TIP3    H120881   6.748   6.169   4.454  0.1980  0.6571  1.3556
 6976TIP3    H220882   6.817   6.282   4.379  0.3303 -0.3747 -0.0926
 6977TIP3   OH220883   4.874   4.524   5.262  0.7066  0.0965  0.3843
 6977TIP3    H120884   4.810   4.575   5.212  1.6459  2.1605  1.2413
 6977TIP3    H220885   4.829   4.501   5.343  0.2160 -0.6533 -0.0873
 6978TIP3   OH220886   6.127   2.898   3.577 -0.5558 -0.4119 -0.2137
 6978TIP3    H120887   6.172   2.814   3.588 -2.3646 -1.7206 -2.2357
 6978TIP3    H220888   6.166   2.955   3.643  2.0862 -2.2650 -0.0778
 6979TIP3   OH220889   3.857   3.999   2.687 -0.2426  0.2216 -0.2188
 6979TIP3    H120890   3.834   4.038   2.602  0.3022  0.2929 -0.3321
 6979TIP3    H220891   3.815   4.056   2.751  1.8346  1.9074 -0.3162
 6980TIP3   OH220892   5.416   4.784   2.895  0.0618  0.4666  0.1370
 6980TIP3    H120893   5.336   4.745   2.860  0.3067  1.6463 -1.8027
 6980TIP3    H220894   5.409   4.877   2.874  1.7856  0.6383  0.2626
 6981TIP3   OH220895   3.429   3.279   5.084  0.6761 -0.3553  0.1594
 6981TIP3    H120896   3.457   3.189   5.071  0.4476 -0.5376  0.9127
 6981TIP3    H220897   3.497   3.317   5.140  0.7302 -0.0785 -0.0892
 6982TIP3   OH220898   5.114   2.453   5.063 -0.3001 -0.3748 -0.8299
 6982TIP3    H120899   5.199   2.485   5.035 -0.1364  0.9557  1.0866
 6982TIP3    H220900   5.051   2.516   5.027 -0.0570  1.6010  2.0205
 6983TIP3   OH220901   3.058   6.017   4.091  0.0610  0.0470 -0.5274
 6983TIP3    H120902   3.097   5.989   4.174 -2.1137 -0.2999  0.3966
 6983TIP3    H220903   3.127   6.068   4.049  1.1224  0.4095  1.5697
 6984TIP3   OH220904   4.347   3.484   3.408  0.1489  0.2161  0.5509
 6984TIP3    H120905   4.304   3.401   3.386  1.1106 -0.1417 -0.0052
 6984TIP3    H220906   4.277   3.537   3.447 -0.1662 -1.3632  2.2512
 6985TIP3   OH220907   0.774   3.353   5.836  0.0726  0.0832 -0.0200
 6985TIP3    H120908   0.708   3.405   5.881 -1.4293 -0.5126 -1.4581
 6985TIP3    H220909   0.743   3.263   5.845  1.0210 -0.2576 -0.1667
 6986TIP3   OH220910   3.070   6.120   5.379 -0.5446  0.5020  0.3389
 6986TIP3    H120911   3.070   6.130   5.475  2.7171  0.4991  0.4004
 6986TIP3    H220912   3.005   6.052   5.362 -0.8403  0.1623  2.6165
 6987TIP3   OH220913   7.764   0.517   2.062 -0.6874 -0.0653 -0.0391
 6987TIP3    H120914   7.707   0.519   2.138  0.2512  0.6842  0.6632
 6987TIP3    H220915   7.781   0.424   2.046 -0.7792 -0.2154  0.7428
 6988TIP3   OH220916   2.155   1.060   6.343 -0.4349  0.4142 -0.1603
 6988TIP3    H120917   2.229   1.005   6.368 -1.3893  0.1895  2.3146
 6988TIP3    H220918   2.099   1.063   6.421 -2.3523  1.7012 -1.5203
 6989TIP3   OH220919   2.568   2.064   4.447  0.4210  0.0819 -0.8658
 6989TIP3    H120920   2.498   2.039   4.508  1.7827 -1.3208  0.1768
 6989TIP3    H220921   2.557   2.006   4.372 -0.2126  0.6382 -1.2074
 6990TIP3   OH220922   4.334   5.219   2.702  0.4300  0.0476 -0.0553
 6990TIP3    H120923   4.360   5.286   2.765  1.1151 -1.3473  1.1643
 6990TIP3    H220924   4.411   5.206   2.648  1.0841 -1.4653  1.2317
 6991TIP3   OH220925   4.378   1.225   5.059  0.2754 -0.0098  0.3922
 6991TIP3    H120926   4.306   1.280   5.028 -1.2605 -1.7291  0.8369
 6991TIP3    H220927   4.394   1.164   4.987  1.2433  0.3057  0.3318
 6992TIP3   OH220928   6.749   4.744   5.443  0.4267 -0.2662  0.6359
 6992TIP3    H120929   6.779   4.768   5.356  2.0672 -1.1424  0.9504
 6992TIP3    H220930   6.826   4.753   5.499 -0.9285  1.6874  2.2928
 6993TIP3   OH220931   6.124   5.704   4.584  0.4617  0.5159 -0.9116
 6993TIP3    H120932   6.082   5.622   4.610 -0.1998  0.9632 -0.5513
 6993TIP3    H220933   6.166   5.736   4.664 -0.1213  1.0235 -0.8021
 6994TIP3   OH220934   6.523   3.918   4.978 -0.6323 -0.0805 -0.8550
 6994TIP3    H120935   6.473   3.925   5.059 -0.6479  1.6265 -0.9738
 6994TIP3    H220936   6.533   4.009   4.949  0.9775 -0.5336 -1.7795
 6995TIP3   OH220937   4.820   4.777   5.036 -0.6720  0.5512 -0.4981
 6995TIP3    H120938   4.860   4.836   5.101  0.6313  0.1738 -0.9467
 6995TIP3    H220939   4.733   4.759   5.071 -1.2521  3.0658 -0.5367
 6996TIP3   OH220940   5.248   4.759   4.905  0.0025  0.7015  0.2726
 6996TIP3    H120941   5.200   4.684   4.940  0.4925  0.6461  0.8368
 6996TIP3    H220942   5.216   4.768   4.815  0.0898 -0.3066  0.1387
 6997TIP3   OH220943   4.902   4.782   6.327 -0.5944 -0.4649  0.2551
 6997TIP3    H120944   4.963   4.819   6.391  0.0026  0.4355 -0.8426
 6997TIP3    H220945   4.848   4.856   6.300 -0.1627 -0.6364 -1.0699
 6998TIP3   OH220946   5.285   4.402   3.307 -0.0285 -0.1377 -0.3897
 6998TIP3    H120947   5.299   4.308   3.308 -0.8820 -0.2628  0.9974
 6998TIP3    H220948   5.198   4.413   3.267 -0.8114 -0.0849  1.2741
 6999TIP3   OH220949   5.183   4.373   1.756  0.8630 -0.4779  0.4681
 6999TIP3    H120950   5.124   4.304   1.784 -1.8650  1.7731  0.5080
 6999TIP3    H220951   5.157   4.392   1.666  0.5905  1.4556  0.9264
 7000TIP3   OH220952   6.394   3.602   4.939  0.3932  0.0616  0.0283
 7000TIP3    H120953   6.465   3.587   5.002  0.9376  0.5830 -0.4522
 7000TIP3    H220954   6.328   3.650   4.989  0.1456 -0.8799  0.6207
 7001TIP3   OH220955   1.241   4.837   2.828  0.6091 -0.4252 -0.0323
 7001TIP3    H120956   1.282   4.784   2.896  1.6160 -0.4991 -0.6858
 7001TIP3    H220957   1.256   4.788   2.747 -0.2475 -0.1538 -0.3590
 7002TIP3   OH220958   5.777   4.475   4.633 -0.2108 -0.5794  0.2068
 7002TIP3    H120959   5.697   4.449   4.588 -0.5190  0.1129  0.3510
 7002TIP3    H220960   5.751   4.485   4.725  0.1828 -0.9694  0.3655
 7003TIP3   OH220961   0.990   3.475   4.104 -0.0879 -0.2489 -0.5091
 7003TIP3    H120962   0.995   3.571   4.112  0.1778 -0.2673 -0.4558
 7003TIP3    H220963   0.898   3.455   4.119  0.5439 -0.3895  3.4893
 7004TIP3   OH220964   5.677   6.323   6.194 -0.0282 -0.0637 -0.0295
 7004TIP3    H120965   5.732   6.316   6.116  0.3099  0.4016  0.1634
 7004TIP3    H220966   5.735   6.362   6.260 -0.7099  0.8230  0.0490
 7005TIP3   OH220967   6.681   5.493   2.366  0.1191  0.0217 -0.2285
 7005TIP3    H120968   6.679   5.401   2.339  1.4178 -0.2069  0.4379
 7005TIP3    H220969   6.746   5.533   2.310  0.5156  0.2386  0.3804
 7006TIP3   OH220970   6.845   3.247   3.719  0.3024  0.7986 -0.1920
 7006TIP3    H120971   6.815   3.329   3.758 -1.9327 -0.3087  0.4932
 7006TIP3    H220972   6.831   3.181   3.787  1.2893 -0.2993 -1.0271
 7007TIP3   OH220973   4.791   3.592   5.535 -0.1193  0.4368  0.3716
 7007TIP3    H120974   4.735   3.640   5.595 -2.0047 -0.0435 -0.9612
 7007TIP3    H220975   4.836   3.660   5.484  2.1785  0.8752  2.8301
 7008TIP3   OH220976   5.880   4.710   4.605 -1.0014  0.7553 -0.4150
 7008TIP3    H120977   5.874   4.732   4.512 -1.2697 -0.5160 -0.7103
 7008TIP3    H220978   5.848   4.620   4.610  0.8160  0.1386  0.6100
 7009TIP3   OH220979   5.744   4.000   5.724 -0.2485  0.0948  0.1960
 7009TIP3    H120980   5.705   4.084   5.699 -0.5228  0.2163  0.9878
 7009TIP3    H220981   5.832   4.022   5.753 -0.9161  0.3964  2.1364
 7010TIP3   OH220982   7.399   3.396   3.566  0.1543  0.5822 -0.0785
 7010TIP3    H120983   7.310   3.363   3.581 -0.0795  1.1480 -0.2057
 7010TIP3    H220984   7.453   3.317   3.559 -0.7334  0.1256 -2.5084
 7011TIP3   OH220985   5.622   4.855   3.816 -0.8559  0.0578  0.0925
 7011TIP3    H120986   5.551   4.919   3.816 -1.7138 -0.8633 -0.6997
 7011TIP3    H220987   5.701   4.906   3.832 -1.6478  1.1614  0.5201
 7012TIP3   OH220988   6.330   4.541   1.815  0.0983 -0.0534  0.5898
 7012TIP3    H120989   6.237   4.530   1.798  0.0164  0.1038  0.9259
 7012TIP3    H220990   6.347   4.487   1.892  0.2147  0.1884  0.7347
 7013TIP3   OH220991   3.922   1.206   5.690 -0.0858  0.2838 -0.0023
 7013TIP3    H120992   3.858   1.275   5.708  0.8956  2.0214 -2.7283
 7013TIP3    H220993   3.944   1.170   5.775 -2.4361  1.7146  1.2621
 7014TIP3   OH220994   6.529   4.197   3.479 -0.7744  0.4035  0.0343
 7014TIP3    H120995   6.436   4.203   3.459 -0.3888 -1.4859 -2.5198
 7014TIP3    H220996   6.536   4.125   3.541 -0.8754 -0.2026 -0.6626
 7015TIP3   OH220997   6.910   5.834   3.555 -0.5574  0.5663  0.3255
 7015TIP3    H120998   6.920   5.870   3.643 -2.7109 -0.7407  1.1556
 7015TIP3    H220999   6.878   5.906   3.502 -0.0628  1.1380  0.7989
 7016TIP3   OH221000   5.843   4.108   2.524  0.1199 -0.0545 -0.5703
 7016TIP3    H121001   5.775   4.135   2.585  0.0826 -0.3469 -0.4823
 7016TIP3    H221002   5.914   4.170   2.538 -0.8206  1.3538 -1.9343
 7017TIP3   OH221003   6.400   5.412   5.935  0.6866  0.1233  0.3094
 7017TIP3    H121004   6.364   5.352   6.000  0.7430 -0.7004 -0.4069
 7017TIP3    H221005   6.368   5.498   5.961 -2.4062 -0.6510 -0.6828
 7018TIP3   OH221006   7.316   4.365   4.032  0.1073 -0.0797  0.3538
 7018TIP3    H121007   7.273   4.298   3.979 -1.3015 -1.1412  2.7156
 7018TIP3    H221008   7.405   4.369   3.999 -0.4482 -1.4560 -1.3830
 7019TIP3   OH221009   7.084   5.629   4.993 -0.3454  0.3202  0.0696
 7019TIP3    H121010   7.120   5.707   4.950  0.6492 -0.5727 -0.7267
 7019TIP3    H221011   6.990   5.634   4.977 -0.1357  0.6998 -1.0572
 7020TIP3   OH221012   6.147   5.324   3.066  0.2200 -0.0455  0.2400
 7020TIP3    H121013   6.130   5.252   3.126 -1.6686 -1.1335 -1.5395
 7020TIP3    H221014   6.062   5.365   3.053  0.7406  0.6529 -1.0753
 7021TIP3   OH221015   5.670   4.775   2.546 -0.0017 -0.4690 -0.5702
 7021TIP3    H121016   5.625   4.692   2.526 -1.7515  0.0033  1.2950
 7021TIP3    H221017   5.599   4.838   2.557  1.3012  1.1248 -1.1975
 7022TIP3   OH221018   5.352   4.314   5.835 -0.0986 -0.0120 -0.4810
 7022TIP3    H121019   5.334   4.401   5.799  1.1587  0.7413  0.6845
 7022TIP3    H221020   5.384   4.264   5.760  2.0179  1.3986 -0.5652
 7023TIP3   OH221021   0.075   5.773   1.611 -0.2321  0.6167  0.0212
 7023TIP3    H121022   0.154   5.719   1.611 -0.3247  0.4818 -0.5892
 7023TIP3    H221023   0.106   5.861   1.587 -0.4306  0.3206 -1.3478
 7024TIP3   OH221024   7.445   5.610   4.660  0.1428  0.1465 -0.6569
 7024TIP3    H121025   7.404   5.693   4.683  1.1256  0.1368  1.2279
 7024TIP3    H221026   7.498   5.629   4.583 -2.5428  0.3942 -2.4798
 7025TIP3   OH221027   7.722   4.937   4.489  0.5737  0.2636 -0.2545
 7025TIP3    H121028   7.748   4.873   4.422  2.3364  0.1180  0.5264
 7025TIP3    H221029   7.704   5.017   4.440 -1.9813 -0.9043 -1.2731
 7026TIP3   OH221030   5.967   4.774   3.507  0.2469  0.3068 -0.1871
 7026TIP3    H121031   6.026   4.772   3.583  0.7297  0.5429 -0.5561
 7026TIP3    H221032   5.937   4.864   3.501  0.0783  0.2522 -0.1798
 7027TIP3   OH221033   5.531   4.353   3.661  0.3237 -0.0262  0.0375
 7027TIP3    H121034   5.540   4.316   3.749 -0.0947 -0.3654 -0.0618
 7027TIP3    H221035   5.443   4.328   3.633  0.5333 -0.0956 -0.5659
 7028TIP3   OH221036   7.054   6.703   2.668 -0.3836 -0.2084 -0.3775
 7028TIP3    H121037   7.054   6.794   2.638  2.1377  0.2269  0.7758
 7028TIP3    H221038   7.012   6.707   2.754  0.3675  0.0072 -0.0127
 7029TIP3   OH221039   2.989   0.866   0.355 -0.0777 -0.2273  0.2408
 7029TIP3    H121040   2.950   0.892   0.439  0.7127 -0.3118  0.6416
 7029TIP3    H221041   3.084   0.877   0.369  0.1593 -1.7815 -0.1059
 7030TIP3   OH221042   6.111   3.943   4.194 -0.6485 -0.0637  0.2288
 7030TIP3    H121043   6.080   3.887   4.265 -1.8414 -0.2315 -0.4053
 7030TIP3    H221044   6.108   3.886   4.117  0.5395  0.1481  0.0198
 7031TIP3   OH221045   5.856   4.150   5.239  0.7888 -0.7087  0.0067
 7031TIP3    H121046   5.816   4.063   5.244  0.1384 -0.4148  0.0055
 7031TIP3    H221047   5.787   4.206   5.203  1.6676 -0.4793 -1.3655
 7032TIP3   OH221048   7.687   0.074   1.585 -0.0931  0.4073  0.4446
 7032TIP3    H121049   7.641  -0.004   1.555  0.7032  0.0006  0.2782
 7032TIP3    H221050   7.653   0.145   1.531 -0.4182  0.0828  0.2251
 7033TIP3   OH221051   4.489   3.629   4.719  0.1391 -0.4030 -0.5217
 7033TIP3    H121052   4.536   3.712   4.721  0.5451 -0.6543  0.4645
 7033TIP3    H221053   4.550   3.566   4.758 -0.8052 -0.8373  0.2688
 7034TIP3   OH221054   7.644   3.175   3.603  0.8127  0.3766 -0.4716
 7034TIP3    H121055   7.682   3.253   3.643  0.9875  0.4251 -0.7253
 7034TIP3    H221056   7.708   3.106   3.619 -0.9219 -0.5537  2.7998
 7035TIP3   OH221057   5.594   6.575   3.081  0.0123 -0.2220  0.3193
 7035TIP3    H121058   5.613   6.492   3.038 -2.8988 -0.5194 -0.4458
 7035TIP3    H221059   5.579   6.636   3.008 -0.1682  0.4132  0.8911
 7036TIP3   OH221060   6.310   5.598   0.336  0.6281 -0.0454  0.2419
 7036TIP3    H121061   6.244   5.639   0.281  0.9651  0.6909  0.3894
 7036TIP3    H221062   6.301   5.641   0.421  0.5589 -0.7082  0.5751
 7037TIP3   OH221063   6.369   4.516   0.731  0.4755 -0.5752  0.4796
 7037TIP3    H121064   6.412   4.433   0.753  1.1787  0.0285  1.4429
 7037TIP3    H221065   6.363   4.563   0.815 -2.1800 -0.6698  0.3831
 7038TIP3   OH221066   6.202   6.572   3.143 -0.2574 -0.5513 -0.2465
 7038TIP3    H121067   6.108   6.584   3.155 -0.3268 -1.7297  0.4364
 7038TIP3    H221068   6.236   6.561   3.232  0.6499  0.6975 -0.4207
 7039TIP3   OH221069   7.215   5.487   5.249 -0.0034 -0.3151  0.4836
 7039TIP3    H121070   7.172   5.542   5.184 -0.9865 -1.3975  0.1941
 7039TIP3    H221071   7.169   5.507   5.331 -0.0746 -0.3945  0.4629
 7040TIP3   OH221072   0.432   5.024   4.351  0.8835  0.0335  0.8900
 7040TIP3    H121073   0.456   4.933   4.363  0.7353 -0.0649  0.4415
 7040TIP3    H221074   0.380   5.046   4.429 -0.0696 -0.6013  0.4466
 7041TIP3   OH221075   3.152   2.225   6.167 -0.5331  0.6543 -0.1105
 7041TIP3    H121076   3.248   2.226   6.167 -0.4966 -0.5501 -2.4367
 7041TIP3    H221077   3.128   2.171   6.092 -3.0496  0.5596  0.7099
 7042TIP3   OH221078   3.680   5.170   4.350  0.1771 -0.8203 -0.0868
 7042TIP3    H121079   3.600   5.163   4.298 -0.6022 -0.6354  1.0678
 7042TIP3    H221080   3.750   5.145   4.290 -0.9575 -3.1159 -0.5088
 7043TIP3   OH221081   5.221   6.055   1.844 -0.0556  0.7040 -0.0300
 7043TIP3    H121082   5.176   6.096   1.918 -1.5257  0.7482 -0.9245
 7043TIP3    H221083   5.176   6.090   1.767 -2.0701 -3.3691 -0.8261
 7044TIP3   OH221084   6.140   4.846   4.362  0.5796 -0.3997  0.4674
 7044TIP3    H121085   6.136   4.869   4.455  0.4492  1.9301 -0.0877
 7044TIP3    H221086   6.162   4.928   4.318  2.7519 -1.9027 -1.3776
 7045TIP3   OH221087   6.256   5.528   2.905 -0.4139 -0.5776  0.3788
 7045TIP3    H121088   6.228   5.451   2.955  1.6309 -1.4859  0.1692
 7045TIP3    H221089   6.201   5.599   2.938 -1.6798 -1.9229  1.2446
 7046TIP3   OH221090   4.208   2.762   2.856  0.2807 -0.4073 -0.5449
 7046TIP3    H121091   4.210   2.683   2.802  1.2548  0.3771 -1.6910
 7046TIP3    H221092   4.284   2.813   2.827  0.5957  0.2252  1.2898
 7047TIP3   OH221093   4.592   4.524   4.996 -0.1044  0.0934 -0.1672
 7047TIP3    H121094   4.542   4.472   5.059  0.3923 -0.2586 -0.0619
 7047TIP3    H221095   4.576   4.615   5.022 -2.0496  0.0529 -1.1593
 7048TIP3   OH221096   0.735   2.029   5.435  0.2916 -0.6416 -0.0997
 7048TIP3    H121097   0.673   1.973   5.482 -0.8250 -0.4233 -1.2992
 7048TIP3    H221098   0.776   2.082   5.504 -0.2931 -1.3233  0.7842
 7049TIP3   OH221099   0.375   2.736   5.405 -0.1370 -0.0988  0.0039
 7049TIP3    H121100   0.302   2.732   5.467  0.0648  0.8404  0.3148
 7049TIP3    H221101   0.437   2.671   5.437 -0.3225 -0.0752  0.4165
 7050TIP3   OH221102   5.057   4.889   1.546  0.2646  0.5877 -0.3137
 7050TIP3    H121103   5.061   4.875   1.451 -0.8533 -0.3219 -0.2405
 7050TIP3    H221104   5.021   4.807   1.581  3.8153 -0.3850  1.2678
 7051TIP3   OH221105   5.553   1.956   1.157  0.6362  0.5831 -0.2401
 7051TIP3    H121106   5.508   1.995   1.082 -0.0347 -0.2846 -0.3043
 7051TIP3    H221107   5.637   1.926   1.121  0.2180 -0.0466 -0.7000
 7052TIP3   OH221108   6.446   5.130   5.161 -0.6876  0.1314 -0.3287
 7052TIP3    H121109   6.446   5.133   5.256  2.2039  0.9941 -0.2888
 7052TIP3    H221110   6.501   5.204   5.135 -0.1151 -1.0556 -2.5998
 7053TIP3   OH221111   7.720   2.406   2.662  0.1739  0.3263 -0.2269
 7053TIP3    H121112   7.762   2.489   2.684 -1.3546  1.3814 -1.2315
 7053TIP3    H221113   7.753   2.384   2.575  0.4273 -0.0322 -0.0437
 7054TIP3   OH221114   6.593   5.872   5.263  0.0902 -0.0205 -0.6474
 7054TIP3    H121115   6.539   5.794   5.274  1.8770 -1.2737 -0.6562
 7054TIP3    H221116   6.625   5.866   5.173  0.9678  0.2598 -0.3535
 7055TIP3   OH221117   7.384   4.968   3.530  0.2149  0.6100  0.2566
 7055TIP3    H121118   7.302   4.937   3.569  0.8039 -0.9451  0.2855
 7055TIP3    H221119   7.449   4.960   3.600  1.2867 -2.2512 -0.9628
 7056TIP3   OH221120   5.927   3.929   3.665 -0.2334 -0.3198  0.5868
 7056TIP3    H121121   6.001   3.922   3.605 -0.5132  0.8582  0.0879
 7056TIP3    H221122   5.929   3.847   3.715  1.8763  0.0236  1.1183
 7057TIP3   OH221123   5.946   2.981   3.386  0.1864  0.2453  0.2041
 7057TIP3    H121124   6.003   3.029   3.327  0.9642 -0.2921  0.5077
 7057TIP3    H221125   6.006   2.934   3.445 -0.5658  0.1286  0.8945
 7058TIP3   OH221126   5.691   2.963   3.935 -0.5454 -0.6200  0.2980
 7058TIP3    H121127   5.774   2.928   3.902 -0.8008 -0.4337 -0.5467
 7058TIP3    H221128   5.716   3.041   3.983 -0.3435  0.1317 -0.9994
 7059TIP3   OH221129   5.048   3.718   4.908 -0.5662 -0.6246 -0.0826
 7059TIP3    H121130   4.973   3.719   4.849  0.2647 -0.6364 -1.1674
 7059TIP3    H221131   5.117   3.764   4.860  0.1673 -0.7597  0.8206
 7060TIP3   OH221132   4.158   4.842   3.226  0.4509  0.1453 -0.4737
 7060TIP3    H121133   4.248   4.874   3.226 -0.1348  1.8126 -0.8251
 7060TIP3    H221134   4.115   4.890   3.155 -0.4897 -1.3161 -0.9141
 7061TIP3   OH221135   7.739   3.759   3.912  0.2068  0.0765  0.0025
 7061TIP3    H121136   7.703   3.810   3.984  1.6456  0.9700  0.1000
 7061TIP3    H221137   7.664   3.744   3.854 -1.0849 -1.1103  1.9100
 7062TIP3   OH221138   6.626   4.336   5.089 -0.1977 -0.0111 -0.4164
 7062TIP3    H121139   6.567   4.354   5.162 -1.6127  0.4375 -1.6432
 7062TIP3    H221140   6.685   4.268   5.121 -1.7109 -0.8329  0.6649
 7063TIP3   OH221141   7.708   4.930   1.352  0.2734 -0.0670 -0.6404
 7063TIP3    H121142   7.639   4.865   1.366 -0.0084  0.7275  1.9266
 7063TIP3    H221143   7.667   5.014   1.373  1.6234  0.5544 -0.4385
 7064TIP3   OH221144   1.061   5.399   4.166  0.1272 -0.7142  0.3298
 7064TIP3    H121145   1.154   5.403   4.185  0.5336  1.1203 -1.7939
 7064TIP3    H221146   1.051   5.326   4.105  0.0374 -1.4093  1.1648
 7065TIP3   OH221147   4.578   4.627   2.493  0.0131 -0.0407 -0.2839
 7065TIP3    H121148   4.574   4.653   2.401 -3.5835 -0.7142 -0.3797
 7065TIP3    H221149   4.634   4.550   2.494 -0.5566 -0.4953 -2.0330
 7066TIP3   OH221150   0.062   4.774   5.474  0.4445 -0.6098  0.5369
 7066TIP3    H121151   0.016   4.790   5.391  0.9461  0.0289  0.3807
 7066TIP3    H221152   0.154   4.764   5.449  0.6406 -0.0902  1.0583
 7067TIP3   OH221153   0.700   5.961   1.122  0.4185 -0.4484  0.2581
 7067TIP3    H121154   0.691   6.049   1.158  0.1287 -0.4082  0.0875
 7067TIP3    H221155   0.709   5.974   1.028  1.4115 -0.5392  0.3371
 7068TIP3   OH221156   6.768   5.489   5.236  0.0505  0.3613  0.0750
 7068TIP3    H121157   6.694   5.499   5.295  1.3948 -1.3863  2.1504
 7068TIP3    H221158   6.816   5.572   5.243 -0.6778  0.7832  0.1368
 7069TIP3   OH221159   7.021   4.405   2.137 -0.5238 -0.0658 -0.0546
 7069TIP3    H121160   6.962   4.480   2.147  1.0062  1.3884 -1.5059
 7069TIP3    H221161   7.071   4.403   2.218  1.5463  2.4304 -1.1988
 7070TIP3   OH221162   4.829   5.333   4.621  0.0845  0.2328  0.0222
 7070TIP3    H121163   4.778   5.375   4.553  1.1785  0.1939 -0.8360
 7070TIP3    H221164   4.811   5.384   4.700 -1.0959  0.3479 -0.3125
 7071TIP3   OH221165   6.021   4.267   2.792 -0.4716 -0.2462  0.0101
 7071TIP3    H121166   6.002   4.340   2.733 -1.4548 -1.4805 -1.2320
 7071TIP3    H221167   6.115   4.273   2.809 -0.3385  0.6244 -1.0075
 7072TIP3   OH221168   6.132   3.325   6.197 -0.0248  0.1717 -0.0258
 7072TIP3    H121169   6.122   3.321   6.102 -0.5988  0.3477  0.0242
 7072TIP3    H221170   6.059   3.380   6.227 -0.7005 -1.0688  0.6552
 7073TIP3   OH221171   6.368   3.297   4.168 -0.4436 -0.0594 -0.7256
 7073TIP3    H121172   6.460   3.323   4.161 -0.3234 -0.4260 -0.5663
 7073TIP3    H221173   6.322   3.376   4.197  0.0149 -0.1930  0.4007
 7074TIP3   OH221174   0.304   3.310   4.931 -0.2628  0.1944  0.1327
 7074TIP3    H121175   0.236   3.259   4.974  0.8068 -0.7867  0.6828
 7074TIP3    H221176   0.312   3.389   4.984 -0.8406  0.2190  0.1805
 7075TIP3   OH221177   0.921   3.368   5.547  0.5314 -1.0302  0.2136
 7075TIP3    H121178   0.878   3.323   5.620  0.9354  1.5172  2.0673
 7075TIP3    H221179   0.861   3.439   5.525  1.7340 -0.1207 -0.1260
 7076TIP3   OH221180   5.989   4.322   4.508  0.0895 -0.1756  0.6289
 7076TIP3    H121181   6.064   4.380   4.520  1.0259 -1.3353  0.4980
 7076TIP3    H221182   5.922   4.356   4.567  0.0147  2.0373 -0.6650
 7077TIP3   OH221183   5.556   3.273   1.864  0.1373 -0.5294  0.3632
 7077TIP3    H121184   5.638   3.225   1.856 -0.3999 -1.6571  1.4120
 7077TIP3    H221185   5.549   3.294   1.957 -0.0780  0.8063  0.0598
 7078TIP3   OH221186   5.947   6.021   6.341 -0.0461  0.2902 -0.3012
 7078TIP3    H121187   5.997   6.048   6.264  1.1098 -1.6019 -0.2431
 7078TIP3    H221188   5.866   5.985   6.306  0.1418  0.1507 -0.5955
 7079TIP3   OH221189   5.012   4.453   3.284  0.4497 -0.5968  0.0334
 7079TIP3    H121190   4.927   4.413   3.269 -0.5783  1.9009 -1.2245
 7079TIP3    H221191   5.000   4.508   3.361  0.9580 -0.3732 -0.0412
 7080TIP3   OH221192   4.377   5.350   3.559  0.2065 -0.0343 -0.0996
 7080TIP3    H121193   4.366   5.259   3.588 -0.1239 -0.0354 -0.2288
 7080TIP3    H221194   4.465   5.353   3.522 -0.6348 -0.8708 -2.2257
 7081TIP3   OH221195   5.838   3.734   3.415 -0.0162  0.1910  0.0212
 7081TIP3    H121196   5.918   3.768   3.455 -0.8567  0.9445  1.0778
 7081TIP3    H221197   5.785   3.705   3.488 -1.9232  2.3536 -0.4402
 7082TIP3   OH221198   1.546   6.816   1.679 -0.1225  0.1096  0.4547
 7082TIP3    H121199   1.511   6.731   1.653  0.1865  0.0514  0.2245
 7082TIP3    H221200   1.605   6.797   1.751 -0.2841  0.1657  0.6025
 7083TIP3   OH221201   7.367   4.774   1.726 -0.1181  0.7012 -0.4838
 7083TIP3    H121202   7.413   4.859   1.727 -0.6795  1.0276 -1.7377
 7083TIP3    H221203   7.277   4.795   1.751 -0.1502  0.4016 -0.3461
 7084TIP3   OH221204   6.551   4.909   3.169  0.0830 -0.5938  0.3247
 7084TIP3    H121205   6.575   4.820   3.195 -0.4723 -0.9201 -0.2935
 7084TIP3    H221206   6.485   4.898   3.101  0.1568  0.2882  0.1023
 7085TIP3   OH221207   6.748   4.227   1.645 -0.0035 -0.0925 -0.3360
 7085TIP3    H121208   6.839   4.239   1.617  0.0798 -0.4024 -0.1861
 7085TIP3    H221209   6.722   4.314   1.676 -0.1965  0.3462 -1.6821
 7086TIP3   OH221210   6.610   6.402   6.200 -0.3698 -0.3349  0.0773
 7086TIP3    H121211   6.550   6.361   6.138  0.8033 -0.8977 -0.6923
 7086TIP3    H221212   6.674   6.448   6.146  0.6360 -0.7959  0.8574
 7087TIP3   OH221213   7.140   4.851   1.848 -0.1804 -0.2051 -0.4769
 7087TIP3    H121214   7.062   4.797   1.856  1.0661 -1.7048  2.1443
 7087TIP3    H221215   7.123   4.926   1.906 -0.8364  0.9726 -2.1401
 7088TIP3   OH221216   6.403   5.740   1.782 -0.3731  0.3000 -0.5467
 7088TIP3    H121217   6.495   5.737   1.807 -0.8684  0.6782  1.3923
 7088TIP3    H221218   6.356   5.705   1.858 -1.8049 -0.1310 -1.6147
 7089TIP3   OH221219   6.166   3.877   1.388 -0.0754  0.4426 -0.1648
 7089TIP3    H121220   6.246   3.900   1.340  0.1890 -0.6274 -0.2337
 7089TIP3    H221221   6.194   3.812   1.452 -0.9159 -0.0091 -0.2528
 7090TIP3   OH221222   5.171   5.427   4.937  0.1562  0.2175 -0.2192
 7090TIP3    H121223   5.246   5.412   4.994 -1.0727  0.2705  1.4261
 7090TIP3    H221224   5.153   5.341   4.899 -0.8079 -0.4428  1.6930
 7091TIP3   OH221225   6.336   3.221   1.911  0.1760  0.4758  0.7186
 7091TIP3    H121226   6.328   3.314   1.932 -0.4075  0.7489 -0.6540
 7091TIP3    H221227   6.332   3.177   1.996 -2.6955  1.5209  1.2067
 7092TIP3   OH221228   5.559   6.516   1.444 -0.1287  0.3282 -0.1654
 7092TIP3    H121229   5.510   6.438   1.419 -0.4840  0.4637  0.1085
 7092TIP3    H221230   5.555   6.573   1.368  1.5988 -0.6321 -1.0075
 7093TIP3   OH221231   5.357   7.402   3.713  0.3084 -0.0820 -0.0599
 7093TIP3    H121232   5.280   7.386   3.658 -0.0887  2.3043 -0.2449
 7093TIP3    H221233   5.322   7.409   3.802  0.4647 -0.2431  0.0131
 7094TIP3   OH221234   6.263   3.319   3.894  0.1625 -0.1735  0.2033
 7094TIP3    H121235   6.194   3.384   3.902 -0.9068 -1.3400  0.5652
 7094TIP3    H221236   6.298   3.311   3.983  1.3005  0.9586 -0.1129
 7095TIP3   OH221237   5.474   3.720   3.910 -0.1948 -0.3821  0.3021
 7095TIP3    H121238   5.402   3.681   3.959 -0.2167 -3.2100 -1.8362
 7095TIP3    H221239   5.446   3.717   3.819  0.6642  2.9318 -0.1338
 7096TIP3   OH221240   0.980   0.228   2.468  0.6740  0.1334  0.6488
 7096TIP3    H121241   0.954   0.221   2.376  0.2587 -0.3091  0.8048
 7096TIP3    H221242   0.898   0.225   2.517  1.0420 -1.7240  1.1618
 7097TIP3   OH221243   6.887   3.665   2.477 -0.0380  0.3032  0.1852
 7097TIP3    H121244   6.850   3.686   2.562  1.5115  1.2993  0.6376
 7097TIP3    H221245   6.913   3.749   2.440  3.3948 -0.4371  0.6796
 7098TIP3   OH221246   6.329   2.807   4.806  0.6357 -0.2043 -0.1666
 7098TIP3    H121247   6.278   2.726   4.815  2.0487 -0.9069  1.7004
 7098TIP3    H221248   6.269   2.876   4.836  0.0871 -0.7688  0.0504
 7099TIP3   OH221249   6.216   5.354   2.350 -0.2593  0.3387 -0.1813
 7099TIP3    H121250   6.213   5.269   2.307  0.7406  1.0616 -1.7203
 7099TIP3    H221251   6.139   5.400   2.317 -0.6214  0.1598  0.4009
 7100TIP3   OH221252   3.646   2.337   5.956 -0.1705  0.7170 -0.6503
 7100TIP3    H121253   3.702   2.414   5.955 -0.1487  0.7309  0.2970
 7100TIP3    H221254   3.707   2.263   5.952  0.0426  0.7048  1.8385
 7101TIP3   OH221255   6.201   5.183   2.110  0.0406 -0.1859 -0.0011
 7101TIP3    H121256   6.285   5.152   2.076  0.3738 -0.8389  1.3739
 7101TIP3    H221257   6.153   5.212   2.032  0.6910 -1.8166 -1.0393
 7102TIP3   OH221258   7.702   4.708   2.907  0.2653 -0.3146 -0.1835
 7102TIP3    H121259   7.709   4.702   3.002 -2.2806 -0.8351  0.0083
 7102TIP3    H221260   7.670   4.622   2.880 -0.1467  0.2078 -1.3955
 7103TIP3   OH221261   6.363   4.319   2.469  0.3526  0.2022 -0.0444
 7103TIP3    H121262   6.368   4.415   2.468  0.0605  0.2160 -0.0720
 7103TIP3    H221263   6.381   4.295   2.560 -1.2397  0.3680  0.3252
 7104TIP3   OH221264   5.840   4.674   3.222  0.0544 -0.3227 -0.2498
 7104TIP3    H121265   5.839   4.733   3.298  1.6063  0.3570 -0.7352
 7104TIP3    H221266   5.773   4.710   3.163 -0.5928 -0.3830  0.4404
 7105TIP3   OH221267   4.762   6.695   0.657 -0.0464 -0.7454 -0.1475
 7105TIP3    H121268   4.751   6.769   0.598  0.0130  0.9720  1.9094
 7105TIP3    H221269   4.847   6.658   0.634  0.9177  1.1815  0.1838
 7106TIP3   OH221270   7.239   2.615   4.989  0.6764  0.6265 -0.0786
 7106TIP3    H121271   7.279   2.594   5.073 -0.0121  0.6620  0.2669
 7106TIP3    H221272   7.312   2.619   4.927  1.0601 -0.6178  0.2718
 7107TIP3   OH221273   4.345   4.337   3.619  0.0247  0.3065 -0.9377
 7107TIP3    H121274   4.335   4.311   3.710  1.4498 -0.2513 -0.9297
 7107TIP3    H221275   4.255   4.338   3.584 -0.6480  1.5966  0.7344
 7108TIP3   OH221276   5.274   5.609   5.330  0.1542  0.4410  0.1107
 7108TIP3    H121277   5.207   5.591   5.265 -0.1697 -0.2235  0.6180
 7108TIP3    H221278   5.287   5.525   5.375  2.6755  0.0655 -1.2279
 7109TIP3   OH221279   5.539   5.539   3.972 -0.1474  0.4128 -0.0607
 7109TIP3    H121280   5.625   5.533   4.013  0.5060  1.0977 -1.2805
 7109TIP3    H221281   5.483   5.481   4.023  1.0005  0.0865  0.8421
 7110TIP3   OH221282   7.844   6.143   2.909  0.0695 -0.3300 -0.3797
 7110TIP3    H121283   7.822   6.061   2.863 -0.2032  0.7445 -2.2375
 7110TIP3    H221284   7.833   6.211   2.842  1.2337  1.1192  0.8722
 7111TIP3   OH221285   5.376   5.816   6.144 -0.6457 -0.1842 -0.1511
 7111TIP3    H121286   5.320   5.804   6.068  0.9123  1.8881 -1.6713
 7111TIP3    H221287   5.350   5.901   6.180 -0.4408 -0.5280  0.8348
 7112TIP3   OH221288   1.757   6.007   2.618  0.2146 -0.4896 -0.7034
 7112TIP3    H121289   1.727   5.916   2.629 -1.5500  0.2208  0.6445
 7112TIP3    H221290   1.815   6.021   2.693 -1.7835  0.3583  0.7430
 7113TIP3   OH221291   3.905   4.645   4.091 -0.1035  0.2212  0.4142
 7113TIP3    H121292   3.997   4.663   4.075  0.2052 -2.3399 -0.9140
 7113TIP3    H221293   3.905   4.568   4.149 -1.3961 -0.4264 -0.4208
 7114TIP3   OH221294   4.756   5.350   1.924 -0.0919  0.1631 -0.2027
 7114TIP3    H121295   4.751   5.345   1.829 -0.7048  1.2221 -0.2334
 7114TIP3    H221296   4.730   5.440   1.945 -1.2358 -0.4417  1.0480
 7115TIP3   OH221297   0.509   5.229   4.179 -0.0466  0.6416 -0.2776
 7115TIP3    H121298   0.576   5.284   4.220 -0.9404  1.3393  0.2667
 7115TIP3    H221299   0.495   5.157   4.241 -0.6474  1.1335  0.1596
 7116TIP3   OH221300   6.011   3.966   1.679  0.3757  0.8176  0.1926
 7116TIP3    H121301   5.940   3.997   1.736  0.5011 -0.6252  1.1451
 7116TIP3    H221302   5.965   3.928   1.604  0.1616  0.4499  0.5108
 7117TIP3   OH221303   7.240   4.108   3.945 -0.2487  0.1084 -0.3704
 7117TIP3    H121304   7.240   4.132   3.852 -0.7673 -0.4353 -0.5159
 7117TIP3    H221305   7.169   4.045   3.953 -0.2696  0.2284  0.4193
 7118TIP3   OH221306   4.919   3.439   5.327 -0.3196 -0.0055 -0.1459
 7118TIP3    H121307   4.887   3.524   5.298  0.5477 -0.0249 -1.2190
 7118TIP3    H221308   5.015   3.446   5.320 -0.0175  0.2223  3.4369
 7119TIP3   OH221309   5.512   3.631   3.226  0.4284  0.0972  0.3798
 7119TIP3    H121310   5.452   3.625   3.300  0.0715 -0.1621  0.0769
 7119TIP3    H221311   5.593   3.666   3.263 -0.1623  1.2025  0.6493
 7120TIP3   OH221312   6.136   4.602   3.755 -0.2649  0.2043  0.0239
 7120TIP3    H121313   6.106   4.615   3.845  0.0945  0.2995  0.1301
 7120TIP3    H221314   6.057   4.575   3.708 -0.3824 -0.1906  0.4399
 7121TIP3   OH221315   5.189   5.398   5.645  0.3292  0.0973 -0.6926
 7121TIP3    H121316   5.146   5.314   5.628 -1.6177  1.1611 -1.1079
 7121TIP3    H221317   5.203   5.399   5.740 -1.2179  0.0258 -0.4515
 7122TIP3   OH221318   5.945   5.509   3.086 -0.0470  0.0792  0.1920
 7122TIP3    H121319   5.882   5.545   3.148 -0.1709 -0.4936  0.4009
 7122TIP3    H221320   6.008   5.580   3.071  0.5031 -0.0910  1.6614
 7123TIP3   OH221321   7.570   3.848   3.268  0.1638  0.3041  0.1867
 7123TIP3    H121322   7.578   3.937   3.235 -0.4413  0.9501  1.7259
 7123TIP3    H221323   7.653   3.830   3.311 -0.1505  0.5592  0.9017
 7124TIP3   OH221324   4.991   3.656   3.495  0.7492  0.1673  0.0860
 7124TIP3    H121325   4.961   3.591   3.430 -0.2596  0.1719  0.5408
 7124TIP3    H221326   4.992   3.739   3.447  1.1707 -0.0269 -0.2494
 7125TIP3   OH221327   7.109   4.062   6.056  0.1925 -0.1433 -0.1272
 7125TIP3    H121328   7.125   3.978   6.098  1.5897  0.5863  0.8432
 7125TIP3    H221329   7.195   4.090   6.023 -0.1808  1.0516 -0.1288
 7126TIP3   OH221330   0.404   3.162   4.502 -0.2105 -0.4946 -0.2985
 7126TIP3    H121331   0.473   3.171   4.567 -1.5563 -0.7847  1.2117
 7126TIP3    H221332   0.418   3.075   4.465 -0.0945 -0.7760  0.3940
 7127TIP3   OH221333   5.686   6.045   5.989 -0.0698  0.1867 -0.0609
 7127TIP3    H121334   5.727   6.125   6.023  0.0677 -0.6133  1.7444
 7127TIP3    H221335   5.739   5.974   6.026 -0.1857 -0.7511 -1.6447
 7128TIP3   OH221336   7.297   4.677   2.515  0.0811 -0.3790  0.3753
 7128TIP3    H121337   7.282   4.586   2.540  1.7390 -0.8590 -0.2993
 7128TIP3    H221338   7.239   4.692   2.440  0.9005 -1.3543 -0.4687
 7129TIP3   OH221339   5.860   4.154   4.095 -0.4733  0.2692 -0.0581
 7129TIP3    H121340   5.920   4.109   4.154 -2.5057 -0.1615  1.7557
 7129TIP3    H221341   5.847   4.240   4.136 -1.1155  0.3334 -0.3978
 7130TIP3   OH221342   6.575   6.314   3.284 -0.4212  0.4595 -0.1007
 7130TIP3    H121343   6.671   6.311   3.275 -0.3093 -1.6572  1.2769
 7130TIP3    H221344   6.547   6.378   3.220  1.9018  0.7795 -0.8586
 7131TIP3   OH221345   7.058   2.724   3.216 -0.7588  0.1250  0.3982
 7131TIP3    H121346   7.089   2.719   3.306 -0.6834  0.4995  0.3973
 7131TIP3    H221347   7.121   2.673   3.165  0.7102  2.0676  0.1899
 7132TIP3   OH221348   6.906   3.256   3.083  0.1056  0.6131 -0.5046
 7132TIP3    H121349   6.893   3.175   3.034  1.6253 -0.7004  1.1735
 7132TIP3    H221350   6.980   3.299   3.041  0.9715 -0.1730  0.2116
 7133TIP3   OH221351   7.572   5.087   5.171  0.5984 -0.1752 -0.0826
 7133TIP3    H121352   7.496   5.143   5.155  1.5712  0.5367 -2.3319
 7133TIP3    H221353   7.563   5.016   5.107  1.5727 -0.3295 -0.0550
 7134TIP3   OH221354   5.509   3.427   2.609 -0.6481 -0.0798  0.2716
 7134TIP3    H121355   5.587   3.427   2.664 -0.6025 -1.1345  0.2068
 7134TIP3    H221356   5.506   3.340   2.570 -1.9777 -0.1167  0.4309
 7135TIP3   OH221357   0.658   3.907   4.840  0.0188  0.3800  0.5523
 7135TIP3    H121358   0.709   3.989   4.841  1.8465 -0.7132  0.0581
 7135TIP3    H221359   0.713   3.845   4.889 -1.2068 -0.6336  0.6514
 7136TIP3   OH221360   6.417   7.350   1.870  0.5722  0.0567 -0.3870
 7136TIP3    H121361   6.417   7.292   1.794  0.1206  0.8026 -0.9606
 7136TIP3    H221362   6.456   7.297   1.940 -0.5796 -1.2093 -0.6827
 7137TIP3   OH221363   7.123   2.877   1.326  0.8036  0.3148 -0.1486
 7137TIP3    H121364   7.092   2.966   1.307 -1.1833 -0.1152  0.9405
 7137TIP3    H221365   7.054   2.820   1.292  1.9478 -0.8099 -0.5987
 7138TIP3   OH221366   5.544   5.598   5.099 -0.4505 -0.5548  0.0117
 7138TIP3    H121367   5.598   5.596   5.178 -1.0945 -0.0645  0.4735
 7138TIP3    H221368   5.605   5.580   5.027  0.2225 -0.5504  0.5777
 7139TIP3   OH221369   5.721   4.066   3.134  0.5352 -0.1538 -0.0373
 7139TIP3    H121370   5.744   4.092   3.044  1.6224  1.3109  0.6421
 7139TIP3    H221371   5.638   4.019   3.125  1.3192 -1.2542 -1.9792
 7140TIP3   OH221372   2.794   0.247   3.831  0.1782  0.1616  0.1015
 7140TIP3    H121373   2.742   0.234   3.752  1.4939 -1.3229 -0.5424
 7140TIP3    H221374   2.733   0.231   3.903 -1.0463  1.5755 -0.5818
 7141TIP3   OH221375   0.366   4.967   5.590 -0.0232  0.1067 -0.2603
 7141TIP3    H121376   0.352   5.061   5.600  0.0591  0.0081  0.8306
 7141TIP3    H221377   0.320   4.927   5.664 -1.4957 -0.8434 -1.6567
 7142TIP3   OH221378   6.880   5.791   4.424 -0.2719  0.1394 -0.3471
 7142TIP3    H121379   6.797   5.807   4.379  0.1432  2.2254 -0.4199
 7142TIP3    H221380   6.906   5.877   4.457  2.5051 -0.2585 -1.4275
 7143TIP3   OH221381   0.059   5.188   1.580  0.1728 -0.3977  0.6844
 7143TIP3    H121382   0.095   5.131   1.649 -0.5055 -1.4343  0.1888
 7143TIP3    H221383  -0.032   5.201   1.605  0.1624 -0.0199  0.4533
 7144TIP3   OH221384   1.173   5.705   4.274 -0.4158  0.4483  0.3632
 7144TIP3    H121385   1.267   5.685   4.272 -0.3989  0.6216 -1.1136
 7144TIP3    H221386   1.130   5.625   4.245 -0.7418  0.3099  1.2168
 7145TIP3   OH221387   7.759   4.664   4.968  0.0295 -0.2003  0.3301
 7145TIP3    H121388   7.833   4.607   4.947  0.7482  0.9871 -0.3885
 7145TIP3    H221389   7.763   4.673   5.064  0.5741 -0.4582  0.3358
 7146TIP3   OH221390   7.503   0.536   1.063 -0.3168 -0.5410 -0.8546
 7146TIP3    H121391   7.430   0.569   1.010 -1.0564 -0.3906  0.2396
 7146TIP3    H221392   7.501   0.441   1.050 -1.4943 -0.6631  0.1439
 7147TIP3   OH221393   5.532   4.670   4.375  0.0579  0.2544  0.2553
 7147TIP3    H121394   5.624   4.695   4.379  0.0477  0.0816  2.1099
 7147TIP3    H221395   5.511   4.670   4.282  2.3489 -1.2160 -0.3041
 7148TIP3   OH221396   4.763   5.139   1.025  0.0892 -0.0294 -0.0005
 7148TIP3    H121397   4.852   5.107   1.012  1.0606  1.4905  2.4082
 7148TIP3    H221398   4.746   5.123   1.118 -1.9404  0.2479 -0.3031
 7149TIP3   OH221399   6.180   3.526   3.180 -0.0326 -0.6228 -0.0936
 7149TIP3    H121400   6.247   3.536   3.112  0.7591 -0.9976  0.6200
 7149TIP3    H221401   6.102   3.570   3.144  0.9469  0.8880 -0.4382
 7150TIP3   OH221402   5.607   2.915   4.636  0.4861 -0.1259 -0.1951
 7150TIP3    H121403   5.620   2.880   4.724 -0.1186  0.6018  0.1945
 7150TIP3    H221404   5.619   2.840   4.578 -3.4929 -1.6375  0.7720
 7151TIP3   OH221405   5.893   7.451   4.510 -0.2959 -0.0174 -0.0016
 7151TIP3    H121406   5.961   7.470   4.446 -1.7304 -2.2681 -2.3167
 7151TIP3    H221407   5.905   7.358   4.530 -0.7271  0.3371  1.9625
 7152TIP3   OH221408   0.094   2.690   4.345  0.3592 -0.4529 -0.2829
 7152TIP3    H121409   0.187   2.673   4.332 -0.1104 -2.9257 -0.5939
 7152TIP3    H221410   0.072   2.758   4.282  2.3244  1.4462  1.0195
 7153TIP3   OH221411   0.263   3.107   3.404  0.1535  0.0200 -0.7822
 7153TIP3    H121412   0.284   3.183   3.350 -2.2626  0.2202 -1.5106
 7153TIP3    H221413   0.228   3.144   3.485 -0.7649 -0.2855 -1.0296
 7154TIP3   OH221414   6.588   6.742   2.479  0.2129  0.3825 -0.3870
 7154TIP3    H121415   6.590   6.691   2.560  0.0157  1.4269  0.2816
 7154TIP3    H221416   6.580   6.677   2.410 -1.9085 -0.4172  0.5659
 7155TIP3   OH221417   7.900   3.253   2.641  1.1486  0.0550 -0.3623
 7155TIP3    H121418   7.849   3.325   2.603 -0.2768 -1.6693 -1.7766
 7155TIP3    H221419   7.943   3.212   2.566  2.8704  0.1154  0.5696
 7156TIP3   OH221420   6.952   5.129   4.031  0.4541 -0.3009  0.4086
 7156TIP3    H121421   6.938   5.175   4.114 -2.0870 -0.4988  0.1387
 7156TIP3    H221422   6.939   5.037   4.052 -1.7531 -0.2199 -0.4815
 7157TIP3   OH221423   1.330   6.487   0.306 -0.6136  0.9075 -0.3260
 7157TIP3    H121424   1.311   6.535   0.386 -2.6722 -0.8786  0.3120
 7157TIP3    H221425   1.293   6.399   0.321  0.5380  0.0072 -2.5306
 7158TIP3   OH221426   0.044   3.648   4.057  0.2895 -0.2764  0.2630
 7158TIP3    H121427   0.061   3.719   4.119  1.7705 -0.1375 -0.2742
 7158TIP3    H221428  -0.018   3.685   3.995  1.2322  0.6495 -0.1499
 7159TIP3   OH221429   6.239   4.362   2.933 -0.5582  0.0738  0.3058
 7159TIP3    H121430   6.171   4.429   2.943 -0.3638  0.2043  0.7322
 7159TIP3    H221431   6.268   4.343   3.022  1.3930  1.4678 -0.0106
 7160TIP3   OH221432   7.177   3.922   4.513 -0.0540  0.1381 -0.1986
 7160TIP3    H121433   7.117   3.854   4.542  0.9388 -0.3850  0.6588
 7160TIP3    H221434   7.133   3.963   4.439 -1.2987 -0.4806  0.1904
 7161TIP3   OH221435   4.894   2.590   5.560 -0.5293  0.2213  0.2318
 7161TIP3    H121436   4.922   2.681   5.569  0.4551  0.0286 -0.7268
 7161TIP3    H221437   4.888   2.577   5.465  1.4523 -1.3316  0.2956
 7162TIP3   OH221438   1.128   5.033   3.137  0.3775  0.0363 -0.0889
 7162TIP3    H121439   1.164   4.974   3.203 -1.4906  0.6462  1.5252
 7162TIP3    H221440   1.084   4.976   3.074 -1.5041 -0.3351  1.5155
 7163TIP3   OH221441   5.932   4.596   2.128 -0.1815 -0.2789  0.4744
 7163TIP3    H121442   5.970   4.668   2.178 -1.0350 -0.5047  1.4781
 7163TIP3    H221443   5.917   4.527   2.193 -1.3296 -0.5695 -0.0809
 7164TIP3   OH221444   6.361   5.095   1.812 -0.2433 -0.6011 -0.4582
 7164TIP3    H121445   6.280   5.143   1.795 -0.1787 -0.2603  0.1597
 7164TIP3    H221446   6.336   5.003   1.808 -0.2501 -0.5263 -2.2417
 7165TIP3   OH221447   3.957   2.628   3.239  0.8086  0.7823  0.0535
 7165TIP3    H121448   3.923   2.685   3.307 -0.8025  0.6440 -0.6154
 7165TIP3    H221449   3.950   2.680   3.159  0.2524  0.0063 -0.4036
 7166TIP3   OH221450   5.032   6.341   3.783 -0.8941 -0.0900 -0.1158
 7166TIP3    H121451   5.064   6.423   3.820  1.3165 -1.8855  2.1747
 7166TIP3    H221452   4.961   6.315   3.842  1.6581 -2.2033  2.2252
 7167TIP3   OH221453   6.921   5.051   4.370 -0.1138 -0.1650  0.2691
 7167TIP3    H121454   6.932   5.026   4.462  0.3572  1.1320  0.5785
 7167TIP3    H221455   6.969   4.984   4.321  0.7374 -0.1254  1.0404
 7168TIP3   OH221456   6.754   6.750   1.659 -0.3740  0.4737 -0.4088
 7168TIP3    H121457   6.688   6.815   1.634 -1.5719  0.3428  2.2362
 7168TIP3    H221458   6.815   6.798   1.715  0.7777  0.1496 -1.3614
 7169TIP3   OH221459   6.245   3.398   5.139  0.0465  0.6687  0.3608
 7169TIP3    H121460   6.191   3.348   5.200  1.6160 -1.1229  0.3201
 7169TIP3    H221461   6.218   3.489   5.152 -1.9808 -0.0498  1.3215
 7170TIP3   OH221462   6.722   3.535   2.805 -0.2035 -0.1382 -0.2259
 7170TIP3    H121463   6.728   3.560   2.897  1.1979  0.2939 -0.4276
 7170TIP3    H221464   6.705   3.617   2.759  0.1451 -0.2034 -0.4643
 7171TIP3   OH221465   6.830   4.693   4.275  0.9529  0.1997  0.0959
 7171TIP3    H121466   6.750   4.651   4.245  1.5526 -0.9470  0.0540
 7171TIP3    H221467   6.802   4.749   4.348 -0.3950  2.4559 -2.0670
 7172TIP3   OH221468   5.537   4.440   3.309 -0.1098 -0.0543  0.6063
 7172TIP3    H121469   5.448   4.462   3.334 -0.5478 -1.3295  0.2125
 7172TIP3    H221470   5.534   4.432   3.214  0.5243  0.3064  0.5500
 7173TIP3   OH221471   7.855   6.259   2.631  0.1395 -0.7065 -0.3675
 7173TIP3    H121472   7.785   6.235   2.570 -0.4585 -0.4663  0.2125
 7173TIP3    H221473   7.934   6.221   2.594 -0.3107 -1.0199 -1.0080
 7174TIP3   OH221474   1.703   6.226   3.111 -0.2322  0.3546 -0.3686
 7174TIP3    H121475   1.675   6.225   3.019 -0.4370  0.0703 -0.3044
 7174TIP3    H221476   1.623   6.205   3.160 -0.0542  0.2083 -0.1426
 7175TIP3   OH221477   4.182   5.056   2.866 -0.3683 -0.0246  1.0779
 7175TIP3    H121478   4.211   5.120   2.802 -0.6546  0.4490  1.4206
 7175TIP3    H221479   4.144   5.108   2.937 -0.9635 -0.5802  1.1759
 7176TIP3   OH221480   6.536   3.949   3.618 -0.0811  0.5384  0.5976
 7176TIP3    H121481   6.526   3.908   3.532 -0.4883 -1.4286  1.5508
 7176TIP3    H221482   6.610   3.904   3.657 -0.1385  1.1648  1.4278
 7177TIP3   OH221483   6.203   3.070   5.813 -0.2041 -0.1421  0.0811
 7177TIP3    H121484   6.175   3.098   5.726 -0.0641 -0.4705 -0.0677
 7177TIP3    H221485   6.298   3.076   5.811 -0.2846  2.0753  0.9532
 7178TIP3   OH221486   5.881   4.332   2.224 -0.3072 -0.2000  0.2581
 7178TIP3    H121487   5.862   4.371   2.309  0.0500  1.1114 -0.2520
 7178TIP3    H221488   5.973   4.307   2.228 -0.2410  0.0344  0.1853
 7179TIP3   OH221489   5.719   3.154   5.590 -0.3105  0.2796  0.6977
 7179TIP3    H121490   5.675   3.070   5.580  1.4986 -0.4167 -1.7564
 7179TIP3    H221491   5.651   3.219   5.573 -1.1245 -0.7150  0.1053
 7180TIP3   OH221492   6.953   5.340   2.876 -0.3158  0.3729 -0.2348
 7180TIP3    H121493   6.891   5.413   2.868 -0.5866  0.2599  0.8335
 7180TIP3    H221494   6.977   5.339   2.968  0.6987 -0.0707 -0.4984
 7181TIP3   OH221495   6.868   4.911   3.804  0.5002 -0.0514 -0.1859
 7181TIP3    H121496   6.800   4.951   3.750 -0.7620  0.5425  1.8029
 7181TIP3    H221497   6.915   4.986   3.841  2.1851 -0.4540 -1.4344
 7182TIP3   OH221498   5.789   4.413   1.299  0.4451 -0.1126 -0.2750
 7182TIP3    H121499   5.811   4.459   1.381  1.4423 -0.8625 -0.1004
 7182TIP3    H221500   5.852   4.340   1.296  0.2545 -0.2256 -1.5954
 7183TIP3   OH221501   5.100   5.138   2.904 -0.2257  0.2306  0.1293
 7183TIP3    H121502   5.086   5.043   2.905  0.4497  0.1361  0.8944
 7183TIP3    H221503   5.064   5.169   2.987 -0.5804  0.6672 -0.1836
 7184TIP3   OH221504   6.764   4.140   5.204  0.1587  0.1919 -0.4358
 7184TIP3    H121505   6.813   4.101   5.131  0.3012  0.7644 -0.6466
 7184TIP3    H221506   6.831   4.160   5.270  0.5615  3.1496 -1.6651
 7185TIP3   OH221507   6.080   3.322   4.224  0.3209  0.1249 -0.1972
 7185TIP3    H121508   6.121   3.400   4.187  0.7155  0.4824  0.9876
 7185TIP3    H221509   6.143   3.252   4.210 -0.2792 -0.1206 -1.7911
 7186TIP3   OH221510   4.626   4.625   2.187  1.0266  0.6965  0.4261
 7186TIP3    H121511   4.594   4.664   2.106  1.5634  1.5953  0.6450
 7186TIP3    H221512   4.686   4.555   2.158  1.0847  0.9012  0.0535
 7187TIP3   OH221513   4.651   4.528   3.369  0.1267  0.6539 -0.4144
 7187TIP3    H121514   4.672   4.601   3.312  1.2416  1.0836  0.5201
 7187TIP3    H221515   4.681   4.556   3.456 -1.0955 -0.1756  0.2901
 7188TIP3   OH221516   6.142   5.585   1.262  0.3320  0.4110  0.5055
 7188TIP3    H121517   6.184   5.668   1.237 -0.8261  0.7521 -0.3458
 7188TIP3    H221518   6.098   5.556   1.182 -1.9622  0.6088  1.6599
 7189TIP3   OH221519   7.221   5.609   1.107  0.3422  0.5836  0.2523
 7189TIP3    H121520   7.250   5.520   1.129 -1.2942  0.1705  0.7950
 7189TIP3    H221521   7.234   5.658   1.188 -1.4314  0.1370  0.8386
 7190TIP3   OH221522   6.205   3.070   5.098 -0.2204 -0.3061 -0.1203
 7190TIP3    H121523   6.139   3.053   5.031 -0.3191 -0.0070 -0.0983
 7190TIP3    H221524   6.210   3.165   5.103 -1.1602 -0.3190  1.2262
 7191TIP3   OH221525   0.032   3.110   6.355  0.2521 -0.4835  0.4104
 7191TIP3    H121526   0.012   3.082   6.265 -1.0626 -1.6233  1.0341
 7191TIP3    H221527   0.002   3.201   6.358  0.7093 -0.3001 -0.4368
 7192TIP3   OH221528   5.612   3.730   1.664  0.2333 -0.0256 -0.3134
 7192TIP3    H121529   5.541   3.718   1.726  1.5370 -2.0972  0.8504
 7192TIP3    H221530   5.673   3.790   1.707  1.3984 -1.8802  0.7095
 7193TIP3   OH221531   5.817   3.476   5.030 -0.3982  0.4953 -0.1920
 7193TIP3    H121532   5.752   3.407   5.019 -2.1747  2.1587 -0.3871
 7193TIP3    H221533   5.778   3.537   5.093  0.8428  1.6771 -0.5241
 7194TIP3   OH221534   2.315   1.020   2.803 -0.3786 -0.0987  0.0879
 7194TIP3    H121535   2.232   0.975   2.785  0.0596 -0.5869 -0.6952
 7194TIP3    H221536   2.358   0.967   2.870 -0.3207 -0.2905 -0.1030
 7195TIP3   OH221537   7.204   6.224   4.535  0.0429 -0.4667  0.0391
 7195TIP3    H121538   7.221   6.142   4.582 -0.4694  0.4499  1.8630
 7195TIP3    H221539   7.273   6.228   4.469 -0.4465 -2.8052 -0.6603
 7196TIP3   OH221540   1.277   4.652   2.619 -0.0615 -0.2554  0.1768
 7196TIP3    H121541   1.191   4.659   2.577  0.5596 -1.3104 -1.3388
 7196TIP3    H221542   1.293   4.557   2.623  1.7524 -0.0097 -1.0717
 7197TIP3   OH221543   1.082   1.455   3.958  0.2612  0.0909  0.1777
 7197TIP3    H121544   1.022   1.391   3.998 -0.0382 -0.6130 -1.3529
 7197TIP3    H221545   1.080   1.530   4.017 -0.2865 -0.8705  1.4031
 7198TIP3   OH221546   6.150   5.079   3.221 -0.3443  0.0045  0.3733
 7198TIP3    H121547   6.211   5.101   3.291  2.2478 -0.8166 -1.5627
 7198TIP3    H221548   6.184   4.998   3.184 -2.0128  0.1067 -1.4609
 7199TIP3   OH221549   0.881   5.275   2.526  0.0741  0.0375 -0.9438
 7199TIP3    H121550   0.966   5.239   2.500  0.4815  0.9102 -0.8347
 7199TIP3    H221551   0.887   5.368   2.504 -0.2356  0.4300  0.5974
 7200TIP3   OH221552   7.935   6.793   3.297  0.1773 -0.1905  0.3091
 7200TIP3    H121553   7.885   6.875   3.300  1.3900  0.5398  0.8606
 7200TIP3    H221554   7.872   6.725   3.321 -0.0892  0.9424  2.9279
 7201TIP3   OH221555   7.068   5.687   1.480  0.5714 -0.2175  0.4885
 7201TIP3    H121556   7.043   5.601   1.446  2.3303 -1.3459  1.9439
 7201TIP3    H221557   7.135   5.718   1.419  0.5621 -0.2694  0.4523
 7202TIP3   OH221558   0.182   4.335   4.473 -0.1703 -0.0022  0.2699
 7202TIP3    H121559   0.164   4.252   4.517 -1.7069 -0.7983 -1.7794
 7202TIP3    H221560   0.139   4.401   4.528  0.9177 -0.5598  1.8151
 7203TIP3   OH221561   7.101   3.435   3.819  0.7413  0.3366  0.6695
 7203TIP3    H121562   7.070   3.393   3.738  0.6410  0.9855  0.3692
 7203TIP3    H221563   7.167   3.374   3.853 -1.6841 -1.6495  1.9788
 7204TIP3   OH221564   6.722   5.827   3.297 -0.3007  0.6379  0.1567
 7204TIP3    H121565   6.680   5.850   3.214 -0.9891  0.9627  0.5891
 7204TIP3    H221566   6.755   5.910   3.331 -2.0061  0.8934  1.2876
 7205TIP3   OH221567   2.537   7.260   3.976  0.6712 -0.0418  0.3627
 7205TIP3    H121568   2.465   7.318   3.951 -0.4022 -0.8434  1.5207
 7205TIP3    H221569   2.616   7.304   3.944 -0.2758  1.1759 -0.3368
 7206TIP3   OH221570   6.626   4.516   4.307  0.3342  0.1979  0.0728
 7206TIP3    H121571   6.579   4.584   4.354 -0.0793 -0.3666  0.4917
 7206TIP3    H221572   6.584   4.434   4.335 -0.2644 -0.1198 -1.6597
 7207TIP3   OH221573   0.142   5.038   4.490 -0.5964 -0.6702 -0.7518
 7207TIP3    H121574   0.082   5.075   4.426 -2.7516 -1.0830  0.9930
 7207TIP3    H221575   0.153   5.106   4.556  0.8228 -0.6358 -0.9891
 7208TIP3   OH221576   2.740   0.104   0.669 -0.2310 -0.3615  0.3301
 7208TIP3    H121577   2.787   0.023   0.650  0.3906 -0.1033  0.7716
 7208TIP3    H221578   2.744   0.114   0.764 -0.0052  0.3642  0.2523
 7209TIP3   OH221579   0.044   1.610   2.306 -1.3666 -0.5286  0.0420
 7209TIP3    H121580   0.030   1.547   2.377  0.7205 -0.0128  0.9465
 7209TIP3    H221581   0.122   1.659   2.332 -1.4039  0.6485 -1.9324
 7210TIP3   OH221582   1.078   7.030   4.154  0.2945 -0.3993  0.0808
 7210TIP3    H121583   1.135   7.037   4.077  0.6417 -0.3442  0.3442
 7210TIP3    H221584   1.046   6.940   4.152  1.3679 -0.8051  0.6240
 7211TIP3   OH221585   6.991   5.267   2.162  0.0099  0.4847  0.3854
 7211TIP3    H121586   6.987   5.271   2.258 -0.7506  0.4905  0.3604
 7211TIP3    H221587   7.016   5.356   2.136  2.4023 -0.0965  0.6684
 7212TIP3   OH221588   7.562   4.943   2.776 -0.0831  0.1352 -0.9993
 7212TIP3    H121589   7.565   5.004   2.850  1.1279  0.6442 -1.4557
 7212TIP3    H221590   7.609   4.866   2.806 -1.4599 -0.5221 -0.4868
 7213TIP3   OH221591   6.621   5.979   3.018  0.3817 -0.1827  0.4966
 7213TIP3    H121592   6.592   5.925   2.944 -0.4787  1.7646 -0.6295
 7213TIP3    H221593   6.545   6.032   3.041  0.7808 -0.4285  2.5141
 7214TIP3   OH221594   0.011   4.233   3.855  1.0741  0.0173  0.1228
 7214TIP3    H121595  -0.015   4.272   3.938 -0.5727 -0.9252  0.0777
 7214TIP3    H221596   0.028   4.307   3.797  0.9067  0.6682  0.9084
 7215TIP3   OH221597   7.670   4.098   4.523 -0.3617 -0.2267 -0.6026
 7215TIP3    H121598   7.703   4.009   4.528  0.5361  0.0245 -1.8185
 7215TIP3    H221599   7.577   4.088   4.501 -0.4447 -0.8744  0.0383
 7216TIP3   OH221600   0.794   6.139   3.805 -0.0539 -0.3777 -0.4404
 7216TIP3    H121601   0.706   6.103   3.793 -0.7953  1.7145 -1.5895
 7216TIP3    H221602   0.849   6.063   3.822 -1.9543 -1.8004 -0.4539
 7217TIP3   OH221603   7.254   5.415   2.012 -0.8405 -0.1075 -0.1035
 7217TIP3    H121604   7.308   5.342   2.044 -1.2956 -0.8357 -0.9707
 7217TIP3    H221605   7.316   5.487   2.001 -0.1534 -0.7469 -0.4668
 7218TIP3   OH221606   7.576   3.705   2.989  0.1871 -0.7992  0.6725
 7218TIP3    H121607   7.564   3.643   3.060 -2.1824 -2.0387 -0.7397
 7218TIP3    H221608   7.548   3.789   3.026  0.2576 -1.1762  1.5902
 7219TIP3   OH221609   7.819   5.984   4.221 -0.2863  0.0570 -0.3068
 7219TIP3    H121610   7.810   5.894   4.192 -1.5141 -0.2287  0.9371
 7219TIP3    H221611   7.746   6.031   4.181  0.5756  0.5927 -1.2754
 7220TIP3   OH221612   6.690   5.246   2.197 -0.2760  0.1876  0.4594
 7220TIP3    H121613   6.779   5.235   2.163 -1.0793 -2.8477 -0.8523
 7220TIP3    H221614   6.637   5.264   2.119 -1.1105 -0.0871  0.9610
 7221TIP3   OH221615   7.743   6.176   2.359  0.0041 -0.8157  0.2081
 7221TIP3    H121616   7.687   6.136   2.426 -0.3926 -0.5538  0.0327
 7221TIP3    H221617   7.685   6.233   2.309  0.5740  0.0349  0.4899
 7222TIP3   OH221618   6.383   6.969   3.335  0.0870 -0.1145  0.0117
 7222TIP3    H121619   6.473   6.993   3.314  0.6133 -0.6785  1.5579
 7222TIP3    H221620   6.353   6.919   3.259  0.8096  0.7158 -0.8370
 7223TIP3   OH221621   6.961   6.239   2.968 -0.2527 -0.5570  0.3943
 7223TIP3    H121622   6.931   6.149   2.972 -1.0891 -0.4576 -2.6157
 7223TIP3    H221623   7.012   6.244   2.887 -0.6491  1.7946  0.2590
 7224TIP3   OH221624   6.265   5.880   3.247 -0.0128 -0.3283 -0.2390
 7224TIP3    H121625   6.314   5.857   3.326  0.7260 -1.8777 -1.1269
 7224TIP3    H221626   6.327   5.931   3.195 -1.1489  2.5038  1.0339
 7225TIP3   OH221627   0.212   4.352   3.212 -0.4979  0.2376  0.3683
 7225TIP3    H121628   0.187   4.426   3.157 -0.1749  0.2929  0.2947
 7225TIP3    H221629   0.289   4.383   3.261 -0.2107 -0.1328  0.1546
 7226TIP3   OH221630   6.328   5.412   3.311 -0.0699  0.3511  0.5034
 7226TIP3    H121631   6.291   5.380   3.228 -0.3914  0.7348  0.4965
 7226TIP3    H221632   6.273   5.487   3.334  0.0570  0.2811  1.0329
 7227TIP3   OH221633   0.467   3.227   3.897  0.0258  0.7323 -0.6173
 7227TIP3    H121634   0.382   3.200   3.864 -0.4125 -0.5524  1.4725
 7227TIP3    H221635   0.448   3.269   3.981  1.5749 -1.3057  0.8109
 7228TIP3   OH221636   0.100   3.979   2.924  0.2902 -0.5538  0.1484
 7228TIP3    H121637   0.044   3.958   2.998  0.5889  1.7100  1.0681
 7228TIP3    H221638   0.040   4.006   2.854  0.0423 -2.0880 -0.2390
 7229TIP3   OH221639   7.198   3.409   1.912  0.0653 -0.1355  0.1594
 7229TIP3    H121640   7.209   3.338   1.848  1.3537 -0.2733  0.5096
 7229TIP3    H221641   7.288   3.435   1.934 -0.3891  0.8702  0.8492
 7230TIP3   OH221642   5.289   4.470   4.263  0.2417 -0.0091  0.4481
 7230TIP3    H121643   5.325   4.391   4.225  0.1279 -0.0048  0.3303
 7230TIP3    H221644   5.276   4.529   4.188 -1.3933 -0.5527  0.2856
 7231TIP3   OH221645   6.560   3.411   1.747 -0.1584  0.4625  0.0500
 7231TIP3    H121646   6.540   3.347   1.678 -1.1392  0.7297  0.0826
 7231TIP3    H221647   6.481   3.413   1.801  1.6307 -1.9337  2.9336
 7232TIP3   OH221648   7.768   4.960   3.714 -0.1719 -0.5222  0.3798
 7232TIP3    H121649   7.686   4.911   3.712 -0.7231  0.3955  0.1778
 7232TIP3    H221650   7.820   4.917   3.782  0.1711 -2.6771 -1.1765
 7233TIP3   OH221651   0.337   5.302   3.983  0.6531 -0.6833  0.4702
 7233TIP3    H121652   0.411   5.298   4.042  1.4952  0.5703 -0.4639
 7233TIP3    H221653   0.277   5.234   4.014  1.1382 -0.1573  2.6439
 7234TIP3   OH221654   1.941   7.147   0.638  0.0150  0.0352 -0.3941
 7234TIP3    H121655   1.875   7.100   0.690  0.1687 -1.9158 -1.8860
 7234TIP3    H221656   2.005   7.177   0.702  0.3864 -2.6098  0.5571
 7235TIP3   OH221657   6.441   3.636   2.624 -0.0049  0.5040 -0.2035
 7235TIP3    H121658   6.371   3.691   2.661 -1.5560 -1.8558  0.4690
 7235TIP3    H221659   6.522   3.674   2.658 -1.1194  1.5557  1.3439
 7236TIP3   OH221660   7.533   4.505   5.136  0.0692 -0.8508 -0.3835
 7236TIP3    H121661   7.588   4.580   5.160  0.5011 -1.3768  0.2739
 7236TIP3    H221662   7.450   4.522   5.181 -0.2346 -0.1852 -1.1747
 7237TIP3   OH221663   7.312   5.519   4.357  0.1518 -0.5503 -0.3003
 7237TIP3    H121664   7.342   5.432   4.385  0.9671 -0.0052  0.5624
 7237TIP3    H221665   7.237   5.538   4.413 -0.6055 -1.0715 -1.1135
 7238TIP3   OH221666   6.752   6.096   4.155 -0.4544 -0.0431  0.0090
 7238TIP3    H121667   6.703   6.019   4.184  2.6711 -1.5103  1.6226
 7238TIP3    H221668   6.741   6.160   4.226  0.0780 -0.4136  0.4237
 7239TIP3   OH221669   6.557   4.689   2.291 -0.1695  0.1289 -0.6454
 7239TIP3    H121670   6.650   4.689   2.269  0.1861  0.3383  0.8243
 7239TIP3    H221671   6.515   4.740   2.221  0.6842 -0.7742 -1.8227
 7240TIP3   OH221672   7.142   5.742   3.354 -0.2274 -0.3440  0.1456
 7240TIP3    H121673   7.077   5.738   3.424 -0.3634 -0.2515  0.0233
 7240TIP3    H221674   7.220   5.778   3.396 -0.4177  0.0468  0.1663
 7241TIP3   OH221675   7.396   5.307   5.164 -0.2378 -0.0580  0.5617
 7241TIP3    H121676   7.345   5.381   5.195 -1.7821 -0.7634 -0.2338
 7241TIP3    H221677   7.466   5.346   5.111 -0.9787  0.8181  0.2377
 7242TIP3   OH221678   5.555   4.704   4.095 -0.0668  0.1271  0.1987
 7242TIP3    H121679   5.498   4.663   4.030 -1.6396 -0.0341  1.6531
 7242TIP3    H221680   5.643   4.690   4.060 -0.8974  0.9514 -2.4145
 7243TIP3   OH221681   7.374   6.928   2.120 -0.6106  0.3247 -0.3731
 7243TIP3    H121682   7.437   6.930   2.192 -0.6467 -0.4614 -0.3148
 7243TIP3    H221683   7.421   6.965   2.046  1.0520 -3.2138 -1.1968
 7244TIP3   OH221684   7.903   3.177   4.284  0.1478  0.2006  0.0540
 7244TIP3    H121685   7.815   3.186   4.319 -0.0031 -2.3592  0.3921
 7244TIP3    H221686   7.960   3.215   4.351 -0.3854 -1.7779  1.6708
 7245TIP3   OH221687   1.807   5.382   3.861 -0.2090  0.2707  0.1523
 7245TIP3    H121688   1.864   5.367   3.937 -2.6974  0.3329  2.0895
 7245TIP3    H221689   1.720   5.393   3.898 -1.2742  1.7108 -2.6364
 7246TIP3   OH221690   7.255   4.813   1.362  0.2540 -0.4041  0.1494
 7246TIP3    H121691   7.196   4.867   1.414  1.6171  0.5763  0.7164
 7246TIP3    H221692   7.319   4.780   1.426 -0.1427 -2.1060 -0.3073
 7247TIP3   OH221693   1.015   5.485   1.569  0.2076 -0.2669  0.0449
 7247TIP3    H121694   1.101   5.521   1.588  0.3094  0.8663 -2.2980
 7247TIP3    H221695   0.980   5.458   1.654  1.7683  1.7137  1.3596
 7248TIP3   OH221696   7.065   5.440   1.363  0.3306  0.2993 -0.3940
 7248TIP3    H121697   7.098   5.408   1.279 -0.1656 -2.4739  0.4070
 7248TIP3    H221698   7.115   5.390   1.428 -0.7632  0.9081  0.9176
 7249TIP3   OH221699   0.087   5.278   3.144 -0.1885  0.2484 -0.0073
 7249TIP3    H121700   0.170   5.283   3.095  1.0100 -1.8755  1.6974
 7249TIP3    H221701   0.108   5.315   3.230 -0.8755 -0.7074  0.5790
 7250TIP3   OH221702   6.968   6.608   2.111  0.2375 -0.3968 -0.6209
 7250TIP3    H121703   6.985   6.659   2.190  0.9392 -0.3067 -0.8222
 7250TIP3    H221704   7.032   6.640   2.048 -1.1209  0.3828 -1.6261
 7251TIP3   OH221705   7.755   5.380   2.951 -0.3071  0.5366 -0.4412
 7251TIP3    H121706   7.820   5.313   2.929 -0.5589  0.6806 -1.6427
 7251TIP3    H221707   7.765   5.392   3.046  0.4168 -0.4849 -0.3736
 7252TIP3   OH221708   7.390   5.525   2.962  0.3101 -0.2801 -0.3200
 7252TIP3    H121709   7.440   5.487   3.035 -0.2072 -0.4617 -0.0586
 7252TIP3    H221710   7.308   5.553   3.001  1.1985  2.3499 -0.2324
 7253TIP3   OH221711   5.975   5.549   2.752  0.5477  0.6260 -0.0877
 7253TIP3    H121712   5.988   5.541   2.846  1.6062 -0.9927 -0.3600
 7253TIP3    H221713   6.039   5.490   2.713 -0.9161  0.0859 -1.7868
 7254TIP3   OH221714   2.635   3.296   3.378 -0.1201 -0.1399  0.3142
 7254TIP3    H121715   2.590   3.322   3.297 -1.9759 -1.8663  0.7372
 7254TIP3    H221716   2.691   3.370   3.399  1.5273 -0.2338 -3.3468
 7255TIP3   OH221717   7.254   5.834   2.097 -0.4274 -0.9602 -0.3154
 7255TIP3    H121718   7.318   5.899   2.126 -2.3865  0.0360  1.8659
 7255TIP3    H221719   7.181   5.885   2.062 -1.4938 -1.9901  0.3739
 7256TIP3   OH221720   7.421   6.579   2.235 -0.0106 -0.0072 -0.1741
 7256TIP3    H121721   7.492   6.570   2.298 -0.3295 -0.9331  0.0562
 7256TIP3    H221722   7.342   6.587   2.288 -0.3917 -1.7703 -0.4536
 7257TIP3   OH221723   0.060   3.201   3.058 -0.1606 -0.0587 -0.1112
 7257TIP3    H121724   0.076   3.268   2.992  0.6478 -0.5216 -0.3927
 7257TIP3    H221725   0.117   3.225   3.131  0.1294 -0.4401 -0.2130
 7258TIP3   OH221726   7.351   1.254   2.530  0.6154 -0.5122 -0.2837
 7258TIP3    H121727   7.266   1.211   2.541  0.1910  0.5738  0.8100
 7258TIP3    H221728   7.329   1.347   2.516  1.6440 -0.0813  0.8788
 7259TIP3   OH221729   1.637   2.468   1.679  0.1364 -0.6621  0.1022
 7259TIP3    H121730   1.619   2.377   1.703 -0.0416 -1.2748 -2.2464
 7259TIP3    H221731   1.555   2.499   1.640  0.2739  0.4494  0.6753
 7260TIP3   OH221732   4.535   2.686   6.351 -0.0246 -0.6174  0.1028
 7260TIP3    H121733   4.511   2.593   6.351  0.8698 -0.8551  0.6384
 7260TIP3    H221734   4.452   2.732   6.364  0.1124 -1.5352  5.4775
 7261TIP3   OH221735   0.791   3.382   2.900 -0.5184 -0.3641  0.4614
 7261TIP3    H121736   0.717   3.390   2.960  0.8879  3.3048  1.7964
 7261TIP3    H221737   0.868   3.373   2.957  0.5114  0.0358 -0.8280
 7262TIP3   OH221738   6.155   6.330   3.028 -0.7993  0.0160  0.0938
 7262TIP3    H121739   6.067   6.315   3.063 -0.8164  0.6989  0.3453
 7262TIP3    H221740   6.183   6.412   3.068 -0.8684  0.8657 -1.5523
 7263TIP3   OH221741   6.140   6.098   1.629 -0.3637 -0.4805 -0.3276
 7263TIP3    H121742   6.205   6.065   1.690  0.0088 -0.5615 -0.7667
 7263TIP3    H221743   6.092   6.021   1.599 -0.3010 -0.4839 -0.4199
 7264TIP3   OH221744   1.385   0.220   2.791  0.0510  0.7353 -0.1740
 7264TIP3    H121745   1.302   0.177   2.768 -0.0657 -0.2636  1.9626
 7264TIP3    H221746   1.452   0.170   2.744 -0.3360 -0.1486  0.2005
 7265TIP3   OH221747   5.877   5.094   2.838 -0.6151  0.1462 -0.4834
 7265TIP3    H121748   5.969   5.081   2.863 -0.7896 -0.5778 -0.1953
 7265TIP3    H221749   5.846   5.006   2.815 -1.7112  0.1126  1.0642
 7266TIP3   OH221750   6.969   3.944   2.418  0.2153  1.1459 -0.2930
 7266TIP3    H121751   6.990   3.891   2.341 -1.8474  0.0079 -0.0985
 7266TIP3    H221752   6.899   4.002   2.390 -0.4898  0.7928  0.6979
 7267TIP3   OH221753   7.272   5.065   2.275 -0.2017  0.1803  0.7897
 7267TIP3    H121754   7.180   5.062   2.301 -0.4226  2.3122  0.2979
 7267TIP3    H221755   7.288   5.157   2.255  1.1752 -0.6724 -2.2163
 7268TIP3   OH221756   0.410   5.943   2.270 -0.2041  0.3116  0.2985
 7268TIP3    H121757   0.395   5.862   2.318  0.3749 -0.3893 -0.6774
 7268TIP3    H221758   0.324   5.965   2.233 -0.3343  0.0539  0.4445
 7269TIP3   OH221759   7.783   3.957   3.126 -0.1656  0.3029 -0.4982
 7269TIP3    H121760   7.704   4.005   3.099 -0.9964 -0.9678 -0.3743
 7269TIP3    H221761   7.831   4.019   3.181  0.0924  1.9033 -2.4600
 7270TIP3   OH221762   7.319   5.147   0.594 -0.2186 -0.2987 -0.8210
 7270TIP3    H121763   7.390   5.085   0.578 -0.3933 -0.6395 -0.2770
 7270TIP3    H221764   7.256   5.130   0.524 -0.2151 -0.6602 -0.7364
 7271TIP3   OH221765   0.664   1.550   4.868  0.3981  0.3076  0.6239
 7271TIP3    H121766   0.618   1.466   4.872  0.5904  0.2139  0.8876
 7271TIP3    H221767   0.599   1.614   4.898  0.2119  0.2701  0.3021
 7272TIP3   OH221768   7.624   4.439   1.167  0.7541 -0.0637 -0.8146
 7272TIP3    H121769   7.659   4.372   1.109  1.8832  0.3008 -0.5618
 7272TIP3    H221770   7.563   4.488   1.112  0.0337 -1.1845 -1.0458
 7273TIP3   OH221771   5.321   4.642   6.282 -0.0961 -0.0199  0.0558
 7273TIP3    H121772   5.381   4.622   6.211 -0.1272  1.4943 -0.4174
 7273TIP3    H221773   5.258   4.703   6.244 -0.0268  0.9307  1.4129
 7274TIP3   OH221774   6.639   5.180   1.293 -0.2200  0.2113  0.5230
 7274TIP3    H121775   6.626   5.264   1.337  2.3398  0.6743  0.4126
 7274TIP3    H221776   6.617   5.115   1.361  0.2463  0.9412  1.3836
 7275TIP3   OH221777   7.449   2.877   4.842  0.8484 -0.1644  0.6185
 7275TIP3    H121778   7.431   2.873   4.936 -1.8487 -2.1138  0.0606
 7275TIP3    H221779   7.495   2.795   4.823 -1.6202 -1.3884 -0.3118
 7276TIP3   OH221780   0.222   4.955   2.178 -0.6539 -0.5504  0.3256
 7276TIP3    H121781   0.156   4.953   2.247 -2.2752  2.2759 -1.0400
 7276TIP3    H221782   0.306   4.949   2.224 -1.7065  1.2324  2.5449
 7277TIP3   OH221783   7.323   6.271   3.260  0.1172 -0.0658  0.0294
 7277TIP3    H121784   7.313   6.364   3.238 -4.0571  0.2822  2.9288
 7277TIP3    H221785   7.371   6.271   3.342 -0.4517 -0.4251  0.3641
 7278TIP3   OH221786   0.491   4.637   4.061 -0.3022 -0.6730  0.0551
 7278TIP3    H121787   0.424   4.574   4.035 -0.2426 -0.8083  0.2324
 7278TIP3    H221788   0.552   4.638   3.988 -0.7382 -0.2106 -0.3120
 7279TIP3   OH221789   0.954   4.593   5.546 -0.7752 -0.8013  0.0884
 7279TIP3    H121790   0.913   4.525   5.493 -0.2079 -0.1632 -1.1913
 7279TIP3    H221791   1.044   4.561   5.561 -0.5808 -0.4364 -0.3134
 7280TIP3   OH221792   1.732   4.193   4.260 -0.3052  0.2116 -0.3854
 7280TIP3    H121793   1.821   4.213   4.289 -0.3406 -0.9105  0.5637
 7280TIP3    H221794   1.724   4.098   4.273 -1.1555  0.0729 -1.8392
 7281TIP3   OH221795   7.322   1.968   5.688 -0.1036 -0.2795 -0.0957
 7281TIP3    H121796   7.363   2.036   5.635  0.6705  0.0773  0.9396
 7281TIP3    H221797   7.379   1.960   5.765  0.8649 -3.3940 -1.0585
 7282TIP3   OH221798   0.525   4.206   4.335  0.0686 -0.6204 -0.0580
 7282TIP3    H121799   0.483   4.129   4.372 -1.1694  0.5655  1.0515
 7282TIP3    H221800   0.605   4.217   4.386 -0.5722 -0.2281  0.8776
 7283TIP3   OH221801   5.981   7.162   3.405 -0.1718 -0.0863 -0.1971
 7283TIP3    H121802   6.072   7.181   3.380  0.4092 -1.9908  0.4248
 7283TIP3    H221803   5.976   7.185   3.497 -0.5656  0.8153 -0.4370
 7284TIP3   OH221804   6.167   3.513   2.697 -0.1757 -0.6274  0.1074
 7284TIP3    H121805   6.076   3.540   2.688 -0.9523 -2.6021  1.5046
 7284TIP3    H221806   6.200   3.563   2.772 -0.6622 -1.2397  0.7320
 7285TIP3   OH221807   7.716   5.259   3.231  0.2958 -0.0760 -0.2947
 7285TIP3    H121808   7.810   5.246   3.215  0.3050 -0.9304  0.4245
 7285TIP3    H221809   7.702   5.222   3.318 -0.5798  0.6649 -0.1225
 7286TIP3   OH221810   2.754   0.894   0.107  0.1343 -0.2508  0.2811
 7286TIP3    H121811   2.740   0.912   0.014  1.1787 -1.4500 -0.1161
 7286TIP3    H221812   2.692   0.952   0.152  2.0736  2.9023 -1.0044
 7287TIP3   OH221813   6.074   6.941   2.506 -0.0168  0.6590 -0.0788
 7287TIP3    H121814   6.021   6.861   2.508 -0.9502  1.2762  0.1563
 7287TIP3    H221815   6.069   6.975   2.595  0.0762  1.1727 -0.2729
 7288TIP3   OH221816   1.197   3.818   4.941 -0.2321 -0.5151 -0.5782
 7288TIP3    H121817   1.213   3.769   5.022 -1.8955 -1.7836 -0.9966
 7288TIP3    H221818   1.272   3.878   4.935  0.7303 -1.4936  1.0698
 7289TIP3   OH221819   5.933   2.679   4.919  0.0621  0.4853 -0.1203
 7289TIP3    H121820   5.963   2.765   4.892 -3.2792  1.0761 -2.2778
 7289TIP3    H221821   5.997   2.618   4.882  1.2218  1.9252 -0.4899
 7290TIP3   OH221822   6.656   5.671   4.080 -0.0362 -0.6535 -0.1179
 7290TIP3    H121823   6.657   5.686   4.175  1.7354 -2.5382  0.1891
 7290TIP3    H221824   6.618   5.583   4.070 -1.5003  0.0735 -1.2700
 7291TIP3   OH221825   6.093   4.816   2.787  0.0400 -0.3146  0.2438
 7291TIP3    H121826   6.120   4.906   2.804 -0.5027  0.1279 -1.1734
 7291TIP3    H221827   6.003   4.812   2.820 -0.6362  0.2399 -1.4857
 7292TIP3   OH221828   1.172   3.213   1.519 -0.9319 -0.3013  0.4512
 7292TIP3    H121829   1.214   3.292   1.551  0.9522 -0.8350 -0.5818
 7292TIP3    H221830   1.154   3.161   1.597 -0.4838  0.3479  0.9884
 7293TIP3   OH221831   7.534   5.244   5.576  0.1833 -0.1165 -0.4933
 7293TIP3    H121832   7.459   5.288   5.535 -0.4572 -0.0473  0.7212
 7293TIP3    H221833   7.528   5.268   5.668  0.3773 -1.9671  0.0256
 7294TIP3   OH221834   6.774   6.087   5.188  0.0778  0.0415 -0.0538
 7294TIP3    H121835   6.695   6.078   5.136  0.4852  1.1409 -0.8873
 7294TIP3    H221836   6.845   6.058   5.131  0.3033 -0.6989  0.5988
 7295TIP3   OH221837   1.071   3.448   4.662  0.0329 -0.1097 -0.1571
 7295TIP3    H121838   0.989   3.418   4.621 -0.0285  2.0492 -1.6670
 7295TIP3    H221839   1.043   3.492   4.742 -0.0426 -1.9634  0.8617
 7296TIP3   OH221840   7.887   6.911   2.339  0.9879  0.3364  0.1842
 7296TIP3    H121841   7.801   6.875   2.316  1.1904 -0.0505  0.0428
 7296TIP3    H221842   7.870   6.964   2.417  0.7550 -0.3394  0.6005
 7297TIP3   OH221843   0.052   6.768   3.009  0.4704 -0.0517 -0.1416
 7297TIP3    H121844   0.055   6.787   3.102 -2.4414 -0.4969  0.0838
 7297TIP3    H221845   0.045   6.673   3.004 -0.4442  0.0397 -0.7586
 7298TIP3   OH221846   6.767   7.163   2.247  0.4031 -0.0712  0.1883
 7298TIP3    H121847   6.768   7.078   2.291 -3.0722 -0.0393  0.4480
 7298TIP3    H221848   6.820   7.220   2.302  2.6527 -2.0194  0.0794
 7299TIP3   OH221849   6.236   5.895   4.088 -0.6529 -0.1458  0.6625
 7299TIP3    H121850   6.299   5.827   4.063 -0.8113 -0.1380  0.2412
 7299TIP3    H221851   6.206   5.869   4.175 -0.9324 -0.7739  0.3820
 7300TIP3   OH221852   6.700   5.040   1.646 -0.4263 -0.2761  0.4794
 7300TIP3    H121853   6.630   5.097   1.615 -0.1533 -0.9464 -1.4406
 7300TIP3    H221854   6.775   5.099   1.656 -0.9341  0.2289  1.4219
 7301TIP3   OH221855   0.144   5.957   5.364  0.5362  0.2904 -0.1662
 7301TIP3    H121856   0.230   5.947   5.324  0.4667  1.1298 -0.5401
 7301TIP3    H221857   0.124   6.050   5.354  0.5494  0.5345  1.8782
 7302TIP3   OH221858   1.205   5.497   0.235 -0.2769 -0.3354  0.2622
 7302TIP3    H121859   1.225   5.407   0.259  0.1898 -0.5600 -0.9562
 7302TIP3    H221860   1.246   5.509   0.150  1.0294  1.5196  1.1152
 7303TIP3   OH221861   0.428   3.849   4.691  0.1826  0.4195  0.1413
 7303TIP3    H121862   0.359   3.853   4.758  0.2521 -0.4246  0.2641
 7303TIP3    H221863   0.509   3.868   4.739  0.2400 -0.2412  0.3199
 7304TIP3   OH221864   1.340   3.789   3.692  0.4586 -0.2797 -0.5142
 7304TIP3    H121865   1.315   3.700   3.716  0.3936 -0.2257 -0.3809
 7304TIP3    H221866   1.259   3.831   3.664  0.1830  0.2731  1.0964
 7305TIP3   OH221867   7.329   6.543   3.170  0.4520  0.3032  0.4855
 7305TIP3    H121868   7.264   6.536   3.100 -0.2543 -0.9174  1.2425
 7305TIP3    H221869   7.352   6.636   3.173 -1.3890  0.7805  0.3390
 7306TIP3   OH221870   7.552   3.757   1.458  0.4184 -0.4327 -0.0480
 7306TIP3    H121871   7.500   3.676   1.457  0.8136 -0.6892 -1.0163
 7306TIP3    H221872   7.487   3.827   1.461  0.0539 -0.7781  0.2174
 7307TIP3   OH221873   5.504   1.615   5.711 -0.2433 -0.0706 -0.5869
 7307TIP3    H121874   5.521   1.657   5.627  1.1002 -1.2625 -0.9373
 7307TIP3    H221875   5.457   1.535   5.689 -0.9546  0.2097 -0.1004
 7308TIP3   OH221876   7.043   5.050   2.016 -1.0234  0.2907  0.4240
 7308TIP3    H121877   6.957   5.009   2.030 -0.6349 -0.5020  0.5264
 7308TIP3    H221878   7.037   5.135   2.060 -1.4295 -0.1567  1.2362
 7309TIP3   OH221879   7.628   1.364   4.880  0.2149 -0.3657  0.0799
 7309TIP3    H121880   7.597   1.278   4.911  0.4287 -0.0339  1.2099
 7309TIP3    H221881   7.674   1.344   4.799  0.4845 -1.3629  0.4674
 7310TIP3   OH221882   6.033   3.542   4.871  0.7173 -0.0752  0.1834
 7310TIP3    H121883   5.954   3.513   4.915  0.8651 -0.7537  0.0096
 7310TIP3    H221884   6.077   3.599   4.934  0.2220  0.0963  0.3734
 7311TIP3   OH221885   1.598   0.697   3.316 -0.1033  0.2596 -0.0843
 7311TIP3    H121886   1.603   0.762   3.385 -0.1058 -0.9063  1.0287
 7311TIP3    H221887   1.555   0.742   3.243  0.9866  1.8549  0.2333
 7312TIP3   OH221888   2.078   6.262   3.391  0.2899 -0.8099 -0.0947
 7312TIP3    H121889   2.167   6.244   3.420 -0.0517 -0.0922  1.5013
 7312TIP3    H221890   2.048   6.333   3.448 -0.5739  0.4216 -2.0083
 7313TIP3   OH221891   6.960   3.956   4.287  0.3082  0.4728  0.2263
 7313TIP3    H121892   6.947   3.990   4.199 -0.8624 -0.4165  0.0371
 7313TIP3    H221893   6.966   3.861   4.275 -0.1705  0.3225  1.1237
 7314TIP3   OH221894   0.621   6.696   3.033 -0.4820 -0.3336 -0.8210
 7314TIP3    H121895   0.683   6.706   3.106 -1.1545  0.0438 -0.2996
 7314TIP3    H221896   0.537   6.680   3.076 -0.7744 -0.6998 -1.5290
 7315TIP3   OH221897   5.615   5.037   5.179 -0.2649  0.4158 -0.0499
 7315TIP3    H121898   5.536   4.986   5.164  1.6067 -1.9110 -2.4578
 7315TIP3    H221899   5.652   5.001   5.260 -0.1824 -0.3894 -0.4508
 7316TIP3   OH221900   5.761   3.093   0.814 -0.0151 -0.1652  0.4440
 7316TIP3    H121901   5.727   3.123   0.729 -0.9876  1.7059  1.4472
 7316TIP3    H221902   5.683   3.064   0.861  0.7355 -2.8077  0.0959
 7317TIP3   OH221903   1.887   4.854   5.664  0.1791  0.1094  0.4426
 7317TIP3    H121904   1.885   4.767   5.704 -3.0015  0.7440  1.8024
 7317TIP3    H221905   1.915   4.913   5.734 -0.4861  0.5533  0.3454
 7318TIP3   OH221906   1.375   5.131   3.927 -0.2502 -0.4763  0.0604
 7318TIP3    H121907   1.389   5.055   3.871  0.5724  1.6009 -2.6407
 7318TIP3    H221908   1.327   5.193   3.872 -0.4281  1.1877  2.0250
 7319TIP3   OH221909   6.979   6.387   5.719 -0.5834 -0.0334 -0.0603
 7319TIP3    H121910   6.972   6.365   5.626  0.6283 -1.2670  0.1123
 7319TIP3    H221911   6.948   6.477   5.725  0.4823  0.4903 -1.8673
 7320TIP3   OH221912   3.406   6.480   5.827  0.0489  0.5478  0.0095
 7320TIP3    H121913   3.348   6.532   5.771  1.5374  1.0559 -1.0830
 7320TIP3    H221914   3.493   6.491   5.788  0.7566 -0.8358  1.1687
 7321TIP3   OH221915   0.616   5.598   4.654 -0.1719  0.5550  0.1035
 7321TIP3    H121916   0.554   5.579   4.584  0.3066  0.5386 -0.3251
 7321TIP3    H221917   0.647   5.512   4.683 -2.1660  0.4517  1.9973
 7322TIP3   OH221918   1.629   3.739   4.535  0.5077  0.3341  1.0124
 7322TIP3    H121919   1.620   3.649   4.504 -1.4870  1.0668 -0.6934
 7322TIP3    H221920   1.708   3.739   4.588  0.3275 -2.5070  1.3486
 7323TIP3   OH221921   0.665   5.161   3.193 -0.4877  0.3313 -0.0299
 7323TIP3    H121922   0.642   5.253   3.180 -1.0181  0.4887  1.8775
 7323TIP3    H221923   0.733   5.144   3.127 -0.8419  1.8977 -0.8315
 7324TIP3   OH221924   7.688   5.368   4.683 -0.2864  0.3685 -0.5057
 7324TIP3    H121925   7.744   5.434   4.724  1.8125 -1.9153  0.4184
 7324TIP3    H221926   7.628   5.418   4.628  0.8339  3.0764  0.6529
 7325TIP3   OH221927   1.479   6.377   6.342 -0.6855 -0.1381 -0.7834
 7325TIP3    H121928   1.558   6.325   6.331 -0.7106 -0.6165  1.1091
 7325TIP3    H221929   1.412   6.330   6.293 -0.3904 -1.1498 -0.2341
 7326TIP3   OH221930   7.752   7.047   3.285 -0.7641 -0.0372 -0.0607
 7326TIP3    H121931   7.682   7.113   3.292 -1.6597 -1.2291  2.7919
 7326TIP3    H221932   7.833   7.097   3.298 -1.1751  1.0279 -1.3886
 7327TIP3   OH221933   0.614   3.639   4.128  0.0157  0.0562 -0.6620
 7327TIP3    H121934   0.608   3.675   4.216 -1.6554 -0.5274 -0.5059
 7327TIP3    H221935   0.586   3.711   4.071  1.8236  0.6735 -0.7915
 7328TIP3   OH221936   7.606   4.417   3.348 -0.0536  0.5173  0.3337
 7328TIP3    H121937   7.641   4.340   3.301 -0.3611  2.2556 -2.8928
 7328TIP3    H221938   7.669   4.434   3.417  0.8710 -1.6685  0.0649
 7329TIP3   OH221939   4.441   1.262   2.176  0.0829  0.0517  0.0774
 7329TIP3    H121940   4.408   1.210   2.102  0.3329 -0.4914  0.3439
 7329TIP3    H221941   4.455   1.349   2.139 -2.5190  0.5546  0.1695
 7330TIP3   OH221942   7.764   3.579   4.512 -0.0130 -0.1812 -0.3858
 7330TIP3    H121943   7.717   3.647   4.562  1.0915  0.0186  0.4021
 7330TIP3    H221944   7.701   3.508   4.504 -0.4612  0.0830  0.6502
 7331TIP3   OH221945   1.214   5.455   5.081  0.4652 -0.2317  0.7243
 7331TIP3    H121946   1.251   5.372   5.050  1.5789  0.1352  1.0544
 7331TIP3    H221947   1.283   5.519   5.065 -0.6570  0.7750 -0.2032
 7332TIP3   OH221948   0.496   4.963   2.547 -0.6402  0.5754  0.4867
 7332TIP3    H121949   0.515   4.872   2.523 -0.4926  0.9485 -0.8591
 7332TIP3    H221950   0.411   4.981   2.507  0.7701  2.0005 -1.9727
 7333TIP3   OH221951   1.044   6.449   4.414  0.4054  0.1868  0.4091
 7333TIP3    H121952   0.981   6.521   4.416  0.1519 -0.0451  2.4301
 7333TIP3    H221953   1.067   6.439   4.322 -2.5931  0.2184 -0.4101
 7334TIP3   OH221954   2.576   0.224   4.323 -0.2204  0.2568  0.1242
 7334TIP3    H121955   2.541   0.303   4.363 -0.7048  1.1979 -2.1048
 7334TIP3    H221956   2.671   0.236   4.323 -0.1218 -0.3223  2.0977
 7335TIP3   OH221957   0.064   5.851   3.144  0.0810 -0.0520  0.1110
 7335TIP3    H121958   0.138   5.911   3.136  1.4446 -1.8740 -1.2977
 7335TIP3    H221959   0.003   5.878   3.075  0.8888 -0.5756 -0.8034
 7336TIP3   OH221960   0.784   6.541   3.391 -0.0500  0.8182 -0.8773
 7336TIP3    H121961   0.737   6.473   3.342 -2.1260  0.5877  1.3447
 7336TIP3    H221962   0.747   6.623   3.359  0.1648  0.7595 -1.2742
 7337TIP3   OH221963   6.340   7.183   0.510 -0.3208  0.1402  0.6095
 7337TIP3    H121964   6.293   7.201   0.429 -0.0393  2.4358  0.9059
 7337TIP3    H221965   6.277   7.138   0.565 -1.3217  0.8003  0.0212
 7338TIP3   OH221966   7.791   5.235   6.419 -0.0752  0.3483  0.7132
 7338TIP3    H121967   7.811   5.227   6.326  0.3180  0.7165  0.7647
 7338TIP3    H221968   7.834   5.160   6.460  1.1778  1.1014  0.8167
 7339TIP3   OH221969   1.988   5.302   4.057  0.2413 -0.2711  0.0998
 7339TIP3    H121970   2.063   5.251   4.027  0.2320 -0.2550  0.0495
 7339TIP3    H221971   1.979   5.279   4.149  0.6303  0.1218  0.2384
 7340TIP3   OH221972   1.670   3.984   3.548  0.4455 -0.0551 -0.3817
 7340TIP3    H121973   1.638   3.909   3.598  0.2750 -1.8127 -3.0109
 7340TIP3    H221974   1.757   3.957   3.519  0.4228  0.8103 -1.2694
 7341TIP3   OH221975   1.461   5.317   2.473  0.2758  0.3539  0.0519
 7341TIP3    H121976   1.460   5.327   2.378  0.9335  1.1487  0.1208
 7341TIP3    H221977   1.423   5.231   2.489 -0.8569  0.6734 -0.8713
 7342TIP3   OH221978   0.329   4.591   6.089  0.2430 -0.1738  0.0607
 7342TIP3    H121979   0.267   4.649   6.133  1.7138  0.2892  1.5328
 7342TIP3    H221980   0.371   4.647   6.023  0.8688  0.1660  0.7391
 7343TIP3   OH221981   0.600   5.796   2.112  0.1690  0.0696 -0.2791
 7343TIP3    H121982   0.544   5.857   2.160  0.1651 -1.1923  1.3634
 7343TIP3    H221983   0.561   5.710   2.128  0.8541 -0.4955 -1.5880
 7344TIP3   OH221984   7.396   4.836   5.565 -0.0352  0.3090 -0.1756
 7344TIP3    H121985   7.311   4.875   5.583  0.4132  1.1426  0.1402
 7344TIP3    H221986   7.435   4.891   5.497 -0.2561 -0.7930 -1.2243
 7345TIP3   OH221987   0.402   5.795   4.185 -0.3481 -0.0783  0.2171
 7345TIP3    H121988   0.326   5.790   4.127  0.6555  0.1042 -1.1430
 7345TIP3    H221989   0.365   5.801   4.273 -1.9297  1.1831 -0.5027
 7346TIP3   OH221990   3.287   4.877   6.054  0.1798 -0.2417 -0.2111
 7346TIP3    H121991   3.286   4.959   6.105  0.3642  0.1023 -0.7549
 7346TIP3    H221992   3.204   4.835   6.075  1.3541 -1.3333  2.3728
 7347TIP3   OH221993   0.231   5.101   2.467 -0.3192  0.6717  0.0042
 7347TIP3    H121994   0.139   5.103   2.442 -0.4390  0.4324  0.4110
 7347TIP3    H221995   0.235   5.152   2.548 -0.3845 -0.7093  0.8916
 7348TIP3   OH221996   7.312   3.639   5.437 -0.2099 -0.5406  0.3705
 7348TIP3    H121997   7.392   3.628   5.387  0.0165 -2.7840  1.2032
 7348TIP3    H221998   7.308   3.733   5.455  1.1251 -0.1141 -1.4611
 7349TIP3   OH221999   7.532   6.607   5.351  0.7359 -0.2354 -0.3207
 7349TIP3    H122000   7.457   6.557   5.383  0.9188  0.4446  1.1863
 7349TIP3    H222001   7.545   6.575   5.262 -0.7982 -0.9850 -0.2956
 7350TIP3   OH222002   1.057   5.377   3.273  0.2546  0.3562 -0.4522
 7350TIP3    H122003   0.967   5.352   3.294 -0.3012  0.9969 -1.9490
 7350TIP3    H222004   1.068   5.464   3.313  0.4605 -0.0466  0.3672
 7351TIP3   OH222005   0.833   4.453   4.679  0.0388 -0.1666  0.0479
 7351TIP3    H122006   0.916   4.407   4.693 -0.2177 -0.3518  1.0072
 7351TIP3    H222007   0.850   4.512   4.605  1.0936 -0.0384  0.3820
 7352TIP3   OH222008   1.198   3.921   5.672  0.1628  0.0964 -0.3790
 7352TIP3    H122009   1.271   3.895   5.615 -1.1448 -1.7272 -1.2900
 7352TIP3    H222010   1.177   3.842   5.721 -0.0054  1.1248  1.2317
 7353TIP3   OH222011   0.613   5.754   5.665  0.0386  0.1449  0.1114
 7353TIP3    H122012   0.610   5.662   5.691  1.2049  0.9648  3.3763
 7353TIP3    H222013   0.523   5.784   5.672 -0.0233 -0.2482  1.1066
 7354TIP3   OH222014   0.489   5.373   3.752  0.2615  0.0777  0.3842
 7354TIP3    H122015   0.436   5.361   3.831  0.7055 -0.5138  0.5956
 7354TIP3    H222016   0.450   5.315   3.687 -0.6739  1.2496 -0.1235
 7355TIP3   OH222017   0.519   4.948   5.151 -0.1500  0.8837 -0.2777
 7355TIP3    H122018   0.527   5.035   5.112  0.6065  0.5997 -0.7793
 7355TIP3    H222019   0.594   4.900   5.116 -0.7393 -0.0651 -0.2528
 7356TIP3   OH222020   2.425   0.423   5.045 -0.5320  0.0674  0.0581
 7356TIP3    H122021   2.520   0.409   5.037 -0.9519 -1.4799 -2.9386
 7356TIP3    H222022   2.396   0.441   4.955 -3.2646 -0.8161  0.7177
 7357TIP3   OH222023   0.773   6.058   5.376  0.7628 -0.0489  0.6705
 7357TIP3    H122024   0.699   6.030   5.322  0.7464  0.9773  0.1390
 7357TIP3    H222025   0.802   5.978   5.420  1.1784 -1.0679 -1.3559
 7358TIP3   OH222026   0.846   4.332   4.980  0.3825 -0.1706  0.2882
 7358TIP3    H122027   0.941   4.341   4.989  0.6209 -0.3583 -1.9677
 7358TIP3    H222028   0.811   4.415   5.012  1.3316  0.1854  0.4218
 7359TIP3   OH222029   6.863   4.824   5.205  0.3936 -0.0581  0.2840
 7359TIP3    H122030   6.870   4.919   5.217 -0.9439  0.1073 -0.1700
 7359TIP3    H222031   6.907   4.807   5.121 -1.3328  0.4818 -0.7581
 7360TIP3   OH222032   7.898   6.984   6.003  0.1849 -0.0002 -0.0980
 7360TIP3    H122033   7.890   6.904   6.056  2.8542 -0.4883 -0.3775
 7360TIP3    H222034   7.852   6.963   5.921  0.1304 -0.9228  0.1652
 7361TIP3   OH222035   2.100   5.456   2.792 -0.1190  0.2996 -0.6030
 7361TIP3    H122036   2.109   5.547   2.820  1.1477 -0.6908  2.4699
 7361TIP3    H222037   2.037   5.419   2.854  1.4488 -1.5658 -0.0895
 7362TIP3   OH222038   0.700   6.842   4.970  0.3466  0.2555 -0.3387
 7362TIP3    H122039   0.764   6.816   4.904  0.3094 -0.3722 -0.1407
 7362TIP3    H222040   0.621   6.865   4.921  0.6125  0.6688 -0.5638
 7363TIP3   OH222041   6.312   5.785   5.636  0.2944  0.0672 -0.4316
 7363TIP3    H122042   6.359   5.844   5.577 -0.7827  0.4510 -0.9111
 7363TIP3    H222043   6.227   5.773   5.595  0.0502 -0.8110  0.3208
 7364TIP3   OH222044   0.963   4.703   3.141  0.3184  0.1295  0.3780
 7364TIP3    H122045   0.909   4.782   3.137  0.2081  0.0942  1.0469
 7364TIP3    H222046   0.924   4.643   3.078  0.7081  0.7974 -0.5132
 7365TIP3   OH222047   6.882   5.481   4.757  0.0202  0.1587 -0.3135
 7365TIP3    H122048   6.925   5.567   4.760  1.0429 -0.3157 -0.8513
 7365TIP3    H222049   6.880   5.460   4.663  0.1518 -0.5831 -0.1497
 7366TIP3   OH222050   0.095   5.760   5.581 -0.3192 -0.3122 -0.1210
 7366TIP3    H122051   0.123   5.690   5.522  2.2979  0.8539 -0.3185
 7366TIP3    H222052   0.091   5.838   5.526 -1.1693  0.1172  0.5449
 7367TIP3   OH222053   1.168   5.368   6.126  0.0058 -0.1616  0.1299
 7367TIP3    H122054   1.158   5.446   6.072 -1.1870  0.7815  1.6913
 7367TIP3    H222055   1.263   5.352   6.128  0.2699  1.3246 -0.0811
 7368TIP3   OH222056   0.661   2.827   4.306  0.2133 -0.1257 -0.0970
 7368TIP3    H122057   0.597   2.758   4.328  1.9169 -1.0550  2.2341
 7368TIP3    H222058   0.609   2.896   4.266 -1.9962 -1.5990  0.1117
 7369TIP3   OH222059   3.254   0.941   0.318  0.5363 -0.4725 -0.5409
 7369TIP3    H122060   3.272   0.958   0.411  1.6116  0.0020 -0.8181
 7369TIP3    H222061   3.317   0.874   0.294  0.8306  0.0140 -1.1337
 7370TIP3   OH222062   0.428   5.030   4.674 -0.0151 -0.0340 -0.4336
 7370TIP3    H122063   0.392   4.954   4.720  0.2751  1.7590  2.9431
 7370TIP3    H222064   0.362   5.098   4.684  1.0896  1.0846 -0.6075
 7371TIP3   OH222065   0.139   3.212   4.516 -0.0145 -0.0206 -0.0797
 7371TIP3    H122066   0.157   3.302   4.544 -0.7828  0.9549 -2.5970
 7371TIP3    H222067   0.222   3.167   4.527 -0.4484  0.0683  4.4227
 7372TIP3   OH222068   1.883   6.033   1.574 -0.3364  0.1365  0.4222
 7372TIP3    H122069   1.847   6.041   1.486 -1.2699 -1.2122  0.6666
 7372TIP3    H222070   1.941   5.957   1.570  1.2006  1.2754  0.4728
 7373TIP3   OH222071   0.533   7.061   4.460 -0.0692  0.0140 -0.3106
 7373TIP3    H122072   0.478   6.999   4.508 -1.0484  2.0707  1.3595
 7373TIP3    H222073   0.500   7.060   4.371 -0.8748 -0.9388 -0.0060
 7374TIP3   OH222074   0.375   6.809   5.878 -0.1059  0.3631 -0.1529
 7374TIP3    H122075   0.351   6.845   5.963 -1.0072 -0.2623 -0.1386
 7374TIP3    H222076   0.304   6.837   5.820  0.7589  1.2128 -0.8055
 7375TIP3   OH222077   2.740   3.940   3.283 -0.4318  0.7527 -0.6047
 7375TIP3    H122078   2.811   3.887   3.318 -2.0686  0.8226  3.0688
 7375TIP3    H222079   2.776   4.029   3.278  0.8897  0.1410 -2.4650
 7376TIP3   OH222080   0.596   3.971   0.753 -0.5109 -0.6597  0.1622
 7376TIP3    H122081   0.570   4.022   0.676 -0.4226 -1.2713 -0.2823
 7376TIP3    H222082   0.523   3.910   0.766 -1.0215  0.1638  1.2274
 7377TIP3   OH222083   0.549   4.012   5.131 -0.4402  0.3378  0.0167
 7377TIP3    H122084   0.531   4.081   5.067 -0.4543 -0.8888 -1.3424
 7377TIP3    H222085   0.469   4.005   5.183 -1.4078 -0.4351 -1.5486
 7378TIP3   OH222086   0.169   4.824   3.055 -0.0830  0.1515 -0.2600
 7378TIP3    H122087   0.200   4.875   2.979  0.3183  0.4871  0.1270
 7378TIP3    H222088   0.171   4.885   3.128  0.2320 -0.3687  0.1745
 7379TIP3   OH222089   4.058   0.017   3.485  0.0859 -0.3986  0.2192
 7379TIP3    H122090   4.050   0.096   3.432  2.9973 -0.5137 -0.4831
 7379TIP3    H222091   4.022   0.041   3.570 -0.1416  1.2939 -0.3423
 7380TIP3   OH222092   4.068   2.640   0.024  0.2543  0.1736  0.0431
 7380TIP3    H122093   3.990   2.664   0.073 -0.5057 -0.5178 -0.8102
 7380TIP3    H222094   4.048   2.663  -0.066  0.8851 -0.3618 -0.2382
 7381TIP3   OH222095   0.554   5.866   4.764 -0.2933  0.1327 -0.1423
 7381TIP3    H122096   0.624   5.907   4.815 -0.4958  0.6476 -0.2752
 7381TIP3    H222097   0.586   5.777   4.748  0.2763  0.3238 -0.0992
 7382TIP3   OH222098   0.718   3.017   3.916 -0.2332  0.7789 -0.6516
 7382TIP3    H122099   0.642   3.056   3.958  1.5911  1.1114  2.4560
 7382TIP3    H222100   0.793   3.059   3.958  1.7007 -0.7891 -2.4185
 7383TIP3   OH222101   0.305   3.808   5.765  0.4552  0.6529  0.2052
 7383TIP3    H122102   0.227   3.860   5.782  1.0497  1.0079  1.8975
 7383TIP3    H222103   0.375   3.872   5.755  0.3548  0.4107 -2.5784
 7384TIP3   OH222104   7.660   5.580   5.394 -0.1464  0.0734 -0.1375
 7384TIP3    H122105   7.646   5.517   5.324  1.9179 -1.0855  0.4245
 7384TIP3    H222106   7.703   5.655   5.352 -2.1203  0.9156 -0.7108
 7385TIP3   OH222107   1.975   6.959   5.884  0.2750 -0.3652 -0.3006
 7385TIP3    H122108   1.994   7.049   5.911  1.6094 -0.8209  0.3123
 7385TIP3    H222109   1.926   6.968   5.802  1.9112  0.8752 -1.1469
 7386TIP3   OH222110   1.588   5.567   5.557  1.2186  0.0933 -0.2133
 7386TIP3    H122111   1.669   5.526   5.527  1.6153  0.3134  0.5270
 7386TIP3    H222112   1.611   5.605   5.642 -0.1501 -1.5286  0.9233
 7387TIP3   OH222113   4.102   0.099   3.048  0.3591  0.7733 -0.0276
 7387TIP3    H122114   4.018   0.089   3.092  0.1824 -0.6737 -0.6494
 7387TIP3    H222115   4.126   0.010   3.022 -0.3284  1.7069 -4.2667
 7388TIP3   OH222116   7.628   4.447   2.865 -1.1272  0.1525 -0.1343
 7388TIP3    H122117   7.654   4.390   2.938  1.0764 -1.4723 -2.1152
 7388TIP3    H222118   7.533   4.433   2.857 -0.8497 -2.2383  0.2797
 7389TIP3   OH222119   7.184   5.711   5.733 -0.1291  0.6635  0.0690
 7389TIP3    H122120   7.223   5.668   5.656 -1.5997  0.6214 -0.6785
 7389TIP3    H222121   7.090   5.710   5.715 -0.3904  1.7083  1.3443
 7390TIP3   OH222122   4.673   2.327   1.854  0.1892 -0.4800  0.2669
 7390TIP3    H122123   4.593   2.341   1.803 -0.0868  0.9109  1.0467
 7390TIP3    H222124   4.739   2.304   1.788 -0.4212  0.1882 -0.6073
 7391TIP3   OH222125   7.876   5.763   4.516  0.6661  0.4216  0.1905
 7391TIP3    H122126   7.868   5.850   4.556  1.2348  0.0874  1.0493
 7391TIP3    H222127   7.790   5.744   4.481  0.2669  0.9090  0.9007
 7392TIP3   OH222128   1.238   4.968   4.922 -0.2675 -0.0272  0.2644
 7392TIP3    H122129   1.296   4.905   4.963 -0.0690  0.0155  0.0573
 7392TIP3    H222130   1.154   4.923   4.913  0.1612 -0.6339 -0.8415
 7393TIP3   OH222131   0.513   1.638   4.131 -0.1523 -0.8804 -0.1562
 7393TIP3    H122132   0.511   1.727   4.096  0.4025 -0.9087 -0.2513
 7393TIP3    H222133   0.572   1.642   4.206  3.6244 -2.1914 -2.9646
 7394TIP3   OH222134   5.682   0.128   5.533  0.2067  0.2025  0.1457
 7394TIP3    H122135   5.727   0.155   5.452 -0.8126  0.4231 -0.3621
 7394TIP3    H222136   5.598   0.174   5.529 -1.1997 -2.3388 -0.2947
 7395TIP3   OH222137   1.649   5.837   5.103  0.0538  0.1489  0.3030
 7395TIP3    H122138   1.694   5.810   5.183  0.1937 -1.1159 -0.1908
 7395TIP3    H222139   1.720   5.863   5.043  0.0101  0.1226  0.2397
 7396TIP3   OH222140   1.408   4.361   3.569 -0.0724  0.2096 -0.3403
 7396TIP3    H122141   1.417   4.318   3.485 -1.2486  0.8410 -0.7916
 7396TIP3    H222142   1.372   4.447   3.549 -0.4338  0.3420  0.8106
 7397TIP3   OH222143   0.711   2.833   2.605 -0.1385  0.1197  0.1155
 7397TIP3    H122144   0.624   2.854   2.572  0.5922  1.6731 -0.8568
 7397TIP3    H222145   0.762   2.812   2.527  0.2592 -1.2589  0.7162
 7398TIP3   OH222146   6.223   2.437   0.061 -0.3858 -0.2248  0.1183
 7398TIP3    H122147   6.193   2.526   0.043 -1.5451 -0.7838 -0.8180
 7398TIP3    H222148   6.172   2.382   0.001  2.1001 -1.2764 -1.1010
 7399TIP3   OH222149   7.547   1.347   0.086  0.2523 -0.0441 -0.2036
 7399TIP3    H122150   7.574   1.356  -0.005  0.8458 -3.0700 -0.3590
 7399TIP3    H222151   7.625   1.369   0.137  0.7677 -1.2314 -0.4850
 7400TIP3   OH222152   1.459   7.022   3.330  0.0076 -0.5312 -0.0292
 7400TIP3    H122153   1.441   6.974   3.410  0.4687 -2.8206 -1.2556
 7400TIP3    H222154   1.553   7.008   3.315 -0.1379 -0.3696 -1.1250
 7401TIP3   OH222155   0.780   4.999   6.016 -0.0522  0.2923 -0.8364
 7401TIP3    H122156   0.716   4.999   6.087  0.7160 -0.5321 -0.1357
 7401TIP3    H222157   0.749   4.932   5.955  0.3062 -0.3154 -0.3511
 7402TIP3   OH222158   2.307   5.471   6.162  0.4384 -0.1026  0.3131
 7402TIP3    H122159   2.331   5.564   6.160  0.1724  0.0712  3.0620
 7402TIP3    H222160   2.212   5.470   6.164  0.4521 -0.3481  1.7734
 7403TIP3   OH222161   0.425   6.644   5.056  0.1138  0.0112  1.1024
 7403TIP3    H122162   0.480   6.635   5.134  1.5875 -3.1294 -0.2242
 7403TIP3    H222163   0.340   6.608   5.083  0.7288 -1.4184  1.1516
 7404TIP3   OH222164   0.092   3.814   4.578 -0.2380  0.4467  0.2791
 7404TIP3    H122165   0.122   3.765   4.655  0.5812  0.5359  0.0200
 7404TIP3    H222166  -0.001   3.829   4.594  0.1710  1.4948  1.8141
 7405TIP3   OH222167   7.410   5.750   3.808 -0.1820  0.3081  0.5248
 7405TIP3    H122168   7.373   5.663   3.795 -1.5080  0.9492 -0.0867
 7405TIP3    H222169   7.335   5.809   3.800  0.9335  1.6163 -0.5573
 7406TIP3   OH222170   0.779   4.519   4.224  0.3283 -0.8167 -0.1578
 7406TIP3    H122171   0.688   4.544   4.207  1.2512  1.8093 -1.5234
 7406TIP3    H222172   0.793   4.541   4.316  0.1674  0.7872 -0.4955
 7407TIP3   OH222173   0.553   5.407   3.193 -0.1056 -0.0151 -0.7604
 7407TIP3    H122174   0.509   5.422   3.276  1.6031 -1.7384  0.4896
 7407TIP3    H222175   0.628   5.467   3.194  0.5982 -0.8887 -0.5099
 7408TIP3   OH222176   0.416   4.950   6.161  0.4230  0.3532  0.5423
 7408TIP3    H122177   0.441   4.881   6.099  0.4893 -1.2731  2.3518
 7408TIP3    H222178   0.481   4.944   6.231  1.4449  3.3902 -0.0704
 7409TIP3   OH222179   7.410   3.386   3.079  0.3096  0.0376 -0.0251
 7409TIP3    H122180   7.488   3.344   3.116 -0.7053 -1.6749  0.2058
 7409TIP3    H222181   7.412   3.475   3.115  1.6244 -0.3007  0.7782
 7410TIP3   OH222182   1.551   5.225   4.128 -0.5981  0.0134 -0.1982
 7410TIP3    H122183   1.493   5.187   4.062 -1.1875  0.1948  0.2113
 7410TIP3    H222184   1.632   5.176   4.120 -0.9992 -0.6234 -0.3892
 7411TIP3   OH222185   1.617   5.408   3.497  0.3457  0.1310 -0.0644
 7411TIP3    H122186   1.562   5.461   3.440  1.5810  0.7128 -0.7471
 7411TIP3    H222187   1.574   5.412   3.582 -1.0406 -0.0188 -0.7459
 7412TIP3   OH222188   3.670   0.169   4.937  0.2056 -0.1461 -0.5168
 7412TIP3    H122189   3.764   0.160   4.923 -0.2120 -0.9774 -3.0041
 7412TIP3    H222190   3.646   0.247   4.886  0.0516  2.0480  2.7623
 7413TIP3   OH222191   1.804   7.276   0.450  0.1163 -0.5289 -0.0486
 7413TIP3    H122192   1.856   7.226   0.512 -0.3584 -0.9519  0.0146
 7413TIP3    H222193   1.840   7.252   0.364 -0.9983 -2.0511 -0.1145
 7414TIP3   OH222194   1.927   6.796   5.605  0.0365 -0.1529  0.5588
 7414TIP3    H122195   1.866   6.867   5.587  0.1007 -0.2615 -0.0890
 7414TIP3    H222196   1.909   6.731   5.537  1.2759  0.0741  0.0052
 7415TIP3   OH222197   1.497   7.264   2.947  0.6715 -0.2846 -0.1154
 7415TIP3    H122198   1.480   7.270   3.041 -0.2695 -1.5552 -0.1930
 7415TIP3    H222199   1.509   7.171   2.930 -0.7037 -0.2286 -1.4932
 7416TIP3   OH222200   1.630   5.866   4.280  0.2462  0.3141  0.2095
 7416TIP3    H122201   1.688   5.892   4.352  2.6078 -2.5439 -0.5530
 7416TIP3    H222202   1.627   5.943   4.223  1.9323  1.0891  1.1340
 7417TIP3   OH222203   2.793   5.948   5.335  0.2733 -0.6676  0.5119
 7417TIP3    H122204   2.710   5.904   5.318 -0.3301 -0.6793  3.1594
 7417TIP3    H222205   2.856   5.877   5.346  0.6118 -0.6646 -1.2824
 7418TIP3   OH222206   3.973   0.489   4.453  0.3966 -0.0743  0.2609
 7418TIP3    H122207   3.966   0.546   4.530 -1.1668  0.2827 -0.1227
 7418TIP3    H222208   3.931   0.407   4.480 -0.5348  0.1991 -0.3315
 7419TIP3   OH222209   1.488   6.342   5.736  0.0837 -0.1934  0.0098
 7419TIP3    H122210   1.420   6.327   5.802  0.3901  0.5141  0.5011
 7419TIP3    H222211   1.451   6.410   5.680  0.0823 -0.3415 -0.1673
 7420TIP3   OH222212   0.706   3.643   5.601  0.4939 -0.0648 -0.6678
 7420TIP3    H122213   0.672   3.643   5.690  0.1927  0.1794 -0.7802
 7420TIP3    H222214   0.647   3.585   5.553  0.1887  0.4218 -0.8824
 7421TIP3   OH222215   7.734   5.432   5.177 -0.4029 -0.1368 -0.1917
 7421TIP3    H122216   7.740   5.389   5.092 -1.5059 -1.2158  0.2644
 7421TIP3    H222217   7.812   5.488   5.181  0.2552 -0.9411 -1.4282
 7422TIP3   OH222218   0.603   5.922   3.931  0.3077 -0.5995  0.5023
 7422TIP3    H122219   0.665   5.895   3.999  1.4609  1.4218  0.3089
 7422TIP3    H222220   0.537   5.973   3.979 -0.6120 -1.8110  0.5450
 7423TIP3   OH222221   7.308   6.988   5.135 -0.0800 -0.3040 -0.4971
 7423TIP3    H122222   7.319   7.074   5.096  1.1733 -0.7774 -1.1918
 7423TIP3    H222223   7.238   7.000   5.200 -1.5213  0.6934 -2.1909
 7424TIP3   OH222224   3.342   6.132   5.323  0.3412  0.1534  0.1684
 7424TIP3    H122225   3.371   6.059   5.378 -0.5752  0.1011  0.5951
 7424TIP3    H222226   3.248   6.138   5.339  0.3720  1.2955 -0.0163
 7425TIP3   OH222227   1.606   5.466   4.582  0.0861  0.7841  0.1877
 7425TIP3    H122228   1.511   5.454   4.580  0.1444  0.3900 -1.2005
 7425TIP3    H222229   1.630   5.451   4.673 -1.0542 -0.2429  0.3393
 7426TIP3   OH222230   3.070   4.804   1.976  0.0490  0.0221 -0.7193
 7426TIP3    H122231   3.052   4.716   2.009  1.4817  0.6171  1.8081
 7426TIP3    H222232   3.000   4.858   2.013  2.2518  0.8809  2.3666
 7427TIP3   OH222233   0.904   6.420   4.866 -0.0268 -0.8039  0.0698
 7427TIP3    H122234   0.931   6.369   4.789 -1.8542 -1.7931  0.0545
 7427TIP3    H222235   0.846   6.487   4.831  0.8985  0.1379  0.3248
 7428TIP3   OH222236   1.707   6.225   3.799  0.4381 -0.3595 -0.3683
 7428TIP3    H122237   1.780   6.167   3.821  0.5005 -0.4673 -0.8487
 7428TIP3    H222238   1.672   6.189   3.717  0.5463  0.3442 -0.7258
 7429TIP3   OH222239   5.727   4.795   5.064 -0.0347 -0.3888  0.4706
 7429TIP3    H122240   5.697   4.885   5.061  0.3296 -0.2361  1.4494
 7429TIP3    H222241   5.673   4.753   5.131  1.4778 -0.2773  1.7697
 7430TIP3   OH222242   2.265   5.887   3.567 -0.1338  0.2336  0.0754
 7430TIP3    H122243   2.264   5.800   3.605  2.7536 -0.3480 -0.9952
 7430TIP3    H222244   2.325   5.937   3.622 -2.0225  1.6586  0.8761
 7431TIP3   OH222245   2.773   7.318   3.819  0.4811 -0.5014 -0.2129
 7431TIP3    H122246   2.826   7.250   3.860  1.1324 -0.2524 -0.6365
 7431TIP3    H222247   2.837   7.382   3.788 -0.2115  1.3287  1.9876
 7432TIP3   OH222248   3.342   5.567   5.451 -0.3010 -0.5187  0.1056
 7432TIP3    H122249   3.317   5.482   5.415 -1.0879  0.4187 -1.6516
 7432TIP3    H222250   3.400   5.605   5.384  2.6297 -0.9857  2.3183
 7433TIP3   OH222251   2.471   5.854   4.170  0.0388  0.4500 -0.4121
 7433TIP3    H122252   2.457   5.825   4.260  0.2983 -0.1400 -0.5602
 7433TIP3    H222253   2.462   5.949   4.174  0.9524  0.5102  0.4059
 7434TIP3   OH222254   5.291   1.965   0.307  0.1738 -0.2026  0.3723
 7434TIP3    H122255   5.315   1.887   0.258  1.0629 -0.3684  1.0726
 7434TIP3    H222256   5.265   2.028   0.240  2.4358 -0.0631 -0.4012
 7435TIP3   OH222257   0.623   5.964   5.907  0.3907 -0.6324  0.4617
 7435TIP3    H122258   0.701   5.959   5.852  0.3401 -0.1347  0.3350
 7435TIP3    H222259   0.552   5.933   5.851  0.5501 -1.4182  0.6909
 7436TIP3   OH222260   0.808   6.332   2.735 -0.1235  0.1315 -0.1047
 7436TIP3    H122261   0.825   6.392   2.807 -1.6673 -0.2333  0.5701
 7436TIP3    H222262   0.838   6.379   2.657  0.6774  0.8968  0.6577
 7437TIP3   OH222263   3.432   6.103   5.716  0.2095  0.2448 -0.0633
 7437TIP3    H122264   3.352   6.147   5.744  0.6838  0.8295  0.3769
 7437TIP3    H222265   3.502   6.151   5.758  0.7128 -1.2082  0.7911
 7438TIP3   OH222266   1.260   5.303   3.727  0.2926  0.0862  0.5427
 7438TIP3    H122267   1.336   5.360   3.733  0.3296  0.1158 -0.1760
 7438TIP3    H222268   1.191   5.358   3.691  0.7341 -0.6899 -1.5839
 7439TIP3   OH222269   0.332   3.913   3.582 -0.1968  0.8385  0.7179
 7439TIP3    H122270   0.257   3.879   3.630 -0.5774  1.2829  0.4395
 7439TIP3    H222271   0.407   3.863   3.615 -0.7815 -0.4322  0.1516
 7440TIP3   OH222272   6.896   0.265   4.664 -0.1086  0.5729  0.0944
 7440TIP3    H122273   6.907   0.171   4.657 -0.2600  0.5777 -0.2336
 7440TIP3    H222274   6.859   0.279   4.751  0.8973  0.4168  0.5525
 7441TIP3   OH222275   4.077   5.612   3.804  0.0828 -0.5904  0.6858
 7441TIP3    H122276   4.172   5.610   3.800  0.1936  0.2744  2.3014
 7441TIP3    H222277   4.049   5.632   3.715  1.4653  0.4106  0.4679
 7442TIP3   OH222278   1.341   7.090   4.063  0.0075  0.5423 -0.2288
 7442TIP3    H122279   1.434   7.086   4.041  0.5195 -0.4133  1.9736
 7442TIP3    H222280   1.320   7.183   4.060  1.1549  0.8057 -0.2692
 7443TIP3   OH222281   4.230   4.881   5.031  0.0183 -0.0154  0.0288
 7443TIP3    H122282   4.307   4.927   5.063 -0.0769  0.0828  0.1208
 7443TIP3    H222283   4.174   4.872   5.108  0.0419 -0.2960  0.0134
 7444TIP3   OH222284   0.968   6.531   5.279 -0.2560  0.3194  0.3959
 7444TIP3    H122285   0.874   6.543   5.260 -0.0315  0.7206 -0.4856
 7444TIP3    H222286   0.993   6.455   5.228  0.6681  2.2175 -2.1104
 7445TIP3   OH222287   2.911   6.467   5.125  0.0588 -0.2507  0.2728
 7445TIP3    H122288   2.897   6.558   5.151 -1.7723 -0.5299  0.3556
 7445TIP3    H222289   2.866   6.459   5.041 -0.2296 -1.2003  0.5137
 7446TIP3   OH222290   1.987   6.177   3.891  0.5575  0.4785 -0.7109
 7446TIP3    H122291   2.053   6.245   3.880  1.5664 -0.3580 -0.0452
 7446TIP3    H222292   2.033   6.106   3.936 -0.2372 -0.9862 -2.1272
 7447TIP3   OH222293   4.783   0.167   4.705 -0.6549  0.0716 -0.7171
 7447TIP3    H122294   4.820   0.184   4.618 -1.4396 -0.1117 -1.0917
 7447TIP3    H222295   4.755   0.076   4.702 -0.9934  0.1637 -0.3862
 7448TIP3   OH222296   2.364   5.998   3.115  0.3999 -0.1113  0.0384
 7448TIP3    H122297   2.414   6.079   3.101 -1.3553  0.7959 -1.2726
 7448TIP3    H222298   2.291   6.024   3.171 -0.6668 -0.5527 -1.1056
 7449TIP3   OH222299   0.092   4.494   4.255 -0.1158 -0.4179 -0.1351
 7449TIP3    H122300   0.145   4.434   4.306 -0.6558 -0.2976  0.5732
 7449TIP3    H222301   0.106   4.468   4.164 -0.8024 -1.9754  0.2029
 7450TIP3   OH222302   2.244   5.211   3.990 -0.1029  0.1282 -0.2057
 7450TIP3    H122303   2.248   5.210   3.894 -0.2625  1.3264 -0.2264
 7450TIP3    H222304   2.248   5.118   4.014  2.7251 -0.0931 -1.2482
 7451TIP3   OH222305   1.928   5.175   4.284 -0.4922  0.4128  0.3021
 7451TIP3    H122306   1.870   5.140   4.216  1.0248 -2.7851  0.5926
 7451TIP3    H222307   1.890   5.144   4.366  1.1398 -0.9966  0.5432
 7452TIP3   OH222308   0.720   6.564   6.215 -0.4186  0.3560  0.4641
 7452TIP3    H122309   0.734   6.527   6.128 -0.5590 -0.3679  0.7408
 7452TIP3    H222310   0.706   6.487   6.271  0.0599  0.7993  1.1937
 7453TIP3   OH222311   2.383   5.415   2.768  0.2060  0.1866  0.3748
 7453TIP3    H122312   2.389   5.351   2.697  0.4230  0.4744  0.1309
 7453TIP3    H222313   2.290   5.421   2.788  0.0625  0.7504 -0.4747
 7454TIP3   OH222314   1.602   6.259   4.431  0.2844  0.4873  0.1036
 7454TIP3    H122315   1.511   6.285   4.415 -0.1663 -1.3384 -0.5135
 7454TIP3    H222316   1.650   6.296   4.357 -0.1296  0.6566 -0.0863
 7455TIP3   OH222317   5.116   0.555   5.256  0.2483 -0.2065 -0.0880
 7455TIP3    H122318   5.037   0.568   5.203 -0.6983  0.6611  1.4972
 7455TIP3    H222319   5.177   0.622   5.226 -0.6637  0.9550  0.5865
 7456TIP3   OH222320   0.331   6.152   4.277  0.4184 -0.2572 -1.0458
 7456TIP3    H122321   0.360   6.110   4.358  1.1230  0.5641 -0.8698
 7456TIP3    H222322   0.409   6.196   4.244 -0.9211  3.0238  0.0574
 7457TIP3   OH222323   2.570   5.499   4.149 -0.1391 -0.3413 -0.3060
 7457TIP3    H122324   2.619   5.525   4.071  0.4307 -1.0209 -0.1806
 7457TIP3    H222325   2.636   5.484   4.216 -0.6763  0.9025  0.5184
 7458TIP3   OH222326   1.015   4.649   4.930  0.3530  0.2687 -0.6275
 7458TIP3    H122327   1.008   4.573   4.872 -1.7897 -0.3471  0.3733
 7458TIP3    H222328   1.067   4.618   5.004 -1.0231 -0.4471  0.0665
 7459TIP3   OH222329   3.708   5.562   3.347  0.0037 -0.0670  0.4366
 7459TIP3    H122330   3.715   5.612   3.428  0.7559 -2.0018  1.6188
 7459TIP3    H222331   3.686   5.627   3.280 -1.0602  1.4955  2.2548
 7460TIP3   OH222332   1.978   5.925   3.777 -0.0850 -0.4046  0.4988
 7460TIP3    H122333   1.892   5.904   3.739  0.2664 -0.4791 -0.2633
 7460TIP3    H222334   1.977   6.020   3.788 -0.3237 -0.4224  0.6373
 7461TIP3   OH222335   2.692   5.499   4.399 -0.2026 -0.1297  0.0684
 7461TIP3    H122336   2.714   5.579   4.448 -0.0541 -0.2858  0.2582
 7461TIP3    H222337   2.609   5.470   4.436 -0.8503  0.5877 -0.8084
 7462TIP3   OH222338   2.820   5.039   4.653 -0.1420 -0.0163  0.4499
 7462TIP3    H122339   2.805   4.955   4.696  0.0977  0.6178  1.7964
 7462TIP3    H222340   2.751   5.096   4.685  0.0227  0.4668 -0.0365
 7463TIP3   OH222341   6.911   0.132   5.470 -0.1707  0.0052  0.2512
 7463TIP3    H122342   6.925   0.038   5.458  1.4957 -0.1718  3.0014
 7463TIP3    H222343   6.994   0.172   5.442 -1.0429  0.7306 -1.3617
 7464TIP3   OH222344   1.513   4.662   4.451 -1.2930  0.0603  0.2556
 7464TIP3    H122345   1.443   4.630   4.394 -4.1537  1.5735  2.7450
 7464TIP3    H222346   1.537   4.747   4.415 -1.0654 -0.2367 -0.3029
 7465TIP3   OH222347   5.181   2.491   0.684 -0.1025 -0.6375 -0.1824
 7465TIP3    H122348   5.105   2.470   0.629 -0.7925 -0.0243  0.5173
 7465TIP3    H222349   5.230   2.556   0.634 -0.8989  0.1579  0.0697
 7466TIP3   OH222350   3.036   5.079   4.219 -0.7135  0.0292 -0.0609
 7466TIP3    H122351   2.949   5.110   4.241 -0.6334  0.6539 -0.6180
 7466TIP3    H222352   3.043   4.994   4.262 -2.2378 -0.8017 -1.4098
 7467TIP3   OH222353   1.454   5.876   5.659  0.2294  0.3627  0.6571
 7467TIP3    H122354   1.523   5.830   5.707 -0.0833  0.0899  0.8434
 7467TIP3    H222355   1.376   5.822   5.671  0.2159  0.1139 -0.4139
 7468TIP3   OH222356   1.999   6.942   4.032  0.0802 -0.2076 -0.2511
 7468TIP3    H122357   2.001   6.848   4.014  1.0502 -0.3050  0.3242
 7468TIP3    H222358   2.080   6.958   4.081  0.2349  1.0429 -0.9271
 7469TIP3   OH222359   1.648   7.378   5.063  0.1237 -0.0071 -0.0466
 7469TIP3    H122360   1.700   7.368   5.143 -0.8476 -0.6776  0.5010
 7469TIP3    H222361   1.592   7.301   5.060 -0.6697  0.5803 -0.7727
 7470TIP3   OH222362   0.791   5.994   4.458  0.2123 -0.5199  0.2363
 7470TIP3    H122363   0.821   6.022   4.544 -1.7610  0.3183  0.6853
 7470TIP3    H222364   0.831   5.908   4.445  1.1785 -0.2959  1.6332
 7471TIP3   OH222365   2.984   4.160   4.297 -0.4388 -0.0543  0.4317
 7471TIP3    H122366   2.966   4.209   4.217  1.7346  1.4852  0.8587
 7471TIP3    H222367   2.961   4.220   4.368 -1.3934 -1.0559  0.9998
 7472TIP3   OH222368   1.168   6.989   5.516 -0.1274 -0.0187  0.5198
 7472TIP3    H122369   1.088   7.005   5.567 -1.1699  0.2070 -1.1703
 7472TIP3    H222370   1.149   6.909   5.467  0.6208  0.1617 -0.0562
 7473TIP3   OH222371   2.821   3.124   3.497  0.1677  0.0345  0.1362
 7473TIP3    H122372   2.741   3.162   3.459 -0.1528 -0.3161  0.4556
 7473TIP3    H222373   2.809   3.131   3.591  0.2804 -0.4957  0.1939
 7474TIP3   OH222374   4.791   6.698   2.276  0.4140 -0.2878 -0.5223
 7474TIP3    H122375   4.782   6.760   2.349  3.0377  1.0286 -1.2624
 7474TIP3    H222376   4.804   6.613   2.319  2.9783  0.6169  0.6493
 7475TIP3   OH222377   2.048   4.923   4.242  0.0494 -0.1041  0.2764
 7475TIP3    H122378   2.030   5.007   4.283  0.1811  0.3907 -0.6746
 7475TIP3    H222379   1.961   4.887   4.222  0.0141  0.3185 -0.3431
 7476TIP3   OH222380   3.935   5.052   3.118 -0.0658  0.1587  0.4864
 7476TIP3    H122381   3.897   4.999   3.188 -1.1386 -1.6168 -1.3891
 7476TIP3    H222382   3.905   5.141   3.137 -4.3313 -0.9871 -0.2352
 7477TIP3   OH222383   3.012   4.714   2.863  0.2294 -0.2097 -0.1876
 7477TIP3    H122384   3.062   4.697   2.783  2.3752  2.7096  0.4348
 7477TIP3    H222385   3.045   4.799   2.893  0.2523 -1.7418  4.3904
 7478TIP3   OH222386   4.274   6.901   1.885 -0.5396  0.4777  0.6675
 7478TIP3    H122387   4.317   6.860   1.960  0.1201  1.3906  0.8081
 7478TIP3    H222388   4.226   6.830   1.842  1.5111 -0.6894  0.2238
 7479TIP3   OH222389   0.891   4.623   5.823  0.0716 -0.2958  0.0852
 7479TIP3    H122390   0.936   4.622   5.738  0.6480 -0.7454  0.3900
 7479TIP3    H222391   0.955   4.585   5.884 -0.8934 -1.3537  0.4466
 7480TIP3   OH222392   1.742   6.870   3.864  0.3926 -0.2976 -0.6566
 7480TIP3    H122393   1.771   6.812   3.793  0.3292 -1.3853  0.1881
 7480TIP3    H222394   1.822   6.916   3.890  0.7711 -1.1311 -0.3144
 7481TIP3   OH222395   0.697   6.374   3.919 -0.3382 -0.0739  0.1347
 7481TIP3    H122396   0.772   6.316   3.903 -1.3524 -1.9625  1.9778
 7481TIP3    H222397   0.626   6.335   3.868 -0.1789  1.6174 -1.4676
 7482TIP3   OH222398   2.778   3.898   3.016 -0.3619 -0.2460  0.4423
 7482TIP3    H122399   2.768   3.927   3.106 -0.6933  0.5682  0.1481
 7482TIP3    H222400   2.810   3.808   3.023 -0.4755 -0.2178  1.3654
 7483TIP3   OH222401   2.110   7.425   6.275  0.2136  0.6169  0.6793
 7483TIP3    H122402   2.205   7.432   6.266  0.2067  0.1120  0.1760
 7483TIP3    H222403   2.090   7.334   6.251 -0.3723  0.6648  0.9766
 7484TIP3   OH222404   2.647   5.749   3.987  0.4579 -0.0446  0.8063
 7484TIP3    H122405   2.583   5.774   4.054 -0.6255  0.9828 -0.5738
 7484TIP3    H222406   2.720   5.809   3.999 -0.3864  1.1487  0.1291
 7485TIP3   OH222407   2.546   4.064   3.708 -0.0757 -0.0739  0.0195
 7485TIP3    H122408   2.529   4.147   3.753 -1.3003  0.0644 -0.6619
 7485TIP3    H222409   2.488   4.001   3.752 -0.1642 -0.2619 -0.3635
 7486TIP3   OH222410   1.362   4.620   3.474 -0.7762 -0.1086  0.1773
 7486TIP3    H122411   1.449   4.585   3.455 -1.4788 -1.6756 -0.2394
 7486TIP3    H222412   1.379   4.706   3.513  0.9349 -0.2009 -0.3078
 7487TIP3   OH222413   3.174   4.675   2.377 -0.3960  0.3395 -0.4182
 7487TIP3    H122414   3.122   4.626   2.313 -1.7841  1.7603 -0.4153
 7487TIP3    H222415   3.196   4.757   2.332 -0.2915  0.8100  0.4731
 7488TIP3   OH222416   5.450   2.144   1.615  0.4870  0.7334  0.3788
 7488TIP3    H122417   5.495   2.187   1.543  0.9711 -0.3272  0.0402
 7488TIP3    H222418   5.441   2.053   1.587 -2.0829  0.9690  0.3291
 7489TIP3   OH222419   4.830   7.375   4.855  0.2073 -0.3609 -0.3735
 7489TIP3    H122420   4.779   7.297   4.873  2.5272 -1.7125  0.5201
 7489TIP3    H222421   4.839   7.419   4.940  1.7241 -0.8881 -0.2532
 7490TIP3   OH222422   1.257   4.996   4.650 -0.1689  0.4872  0.2114
 7490TIP3    H122423   1.182   4.938   4.636  0.9349 -0.5924 -1.4837
 7490TIP3    H222424   1.273   4.993   4.744 -0.5756 -1.3900  0.2338
 7491TIP3   OH222425   1.938   4.968   4.899  0.1017  0.0652  0.3724
 7491TIP3    H122426   1.927   4.874   4.882  0.3859  0.2307 -0.7384
 7491TIP3    H222427   1.866   5.009   4.851  2.2916  0.7333 -2.5017
 7492TIP3   OH222428   5.197   2.621   0.194 -0.1043 -0.2615  0.3783
 7492TIP3    H122429   5.185   2.637   0.100  1.6159 -2.2204 -0.2292
 7492TIP3    H222430   5.237   2.701   0.228  1.1367 -0.2785 -0.9913
 7493TIP3   OH222431   1.254   4.824   4.381  0.3752 -0.2053 -0.1841
 7493TIP3    H122432   1.278   4.906   4.424 -0.9454  0.5994 -0.9577
 7493TIP3    H222433   1.241   4.763   4.453  0.5621  0.4769  0.4430
 7494TIP3   OH222434   7.480   5.724   5.798 -0.2611 -0.1645  0.5888
 7494TIP3    H122435   7.534   5.803   5.805  1.1377 -0.9876 -0.5533
 7494TIP3    H222436   7.454   5.704   5.888 -0.5027  1.5040  0.9024
 7495TIP3   OH222437   3.387   5.691   3.220  0.2782  0.2179  0.6415
 7495TIP3    H122438   3.344   5.606   3.232 -1.7228  1.2071  0.6557
 7495TIP3    H222439   3.337   5.751   3.276  2.6462  1.1050  1.8447
 7496TIP3   OH222440   1.638   4.934   2.472  0.0056 -0.1872  0.1317
 7496TIP3    H122441   1.645   4.977   2.557 -0.0588 -0.1317  0.1094
 7496TIP3    H222442   1.625   4.842   2.492 -0.5650 -0.0956  0.1928
 7497TIP3   OH222443   3.975   4.403   4.195 -0.7942 -0.1075 -0.5058
 7497TIP3    H122444   3.969   4.320   4.243  1.0937  0.0493  0.0779
 7497TIP3    H222445   4.048   4.389   4.135 -1.7588  0.4571 -1.8204
 7498TIP3   OH222446   0.253   4.821   4.058 -0.0939  0.2815  0.2752
 7498TIP3    H122447   0.256   4.766   4.136 -0.3147 -0.7361 -0.4214
 7498TIP3    H222448   0.345   4.834   4.034 -0.0399  0.2759  0.4822
 7499TIP3   OH222449   1.269   5.961   2.572 -0.8889 -0.1173 -0.1049
 7499TIP3    H122450   1.218   6.012   2.635 -1.0139  0.0777 -0.3636
 7499TIP3    H222451   1.347   6.014   2.556 -1.8505  0.8343 -1.7234
 7500TIP3   OH222452   1.576   6.474   3.169 -0.1359 -0.1032  0.7774
 7500TIP3    H122453   1.525   6.417   3.226  1.5302 -0.1681  2.2328
 7500TIP3    H222454   1.662   6.432   3.162 -0.0823  0.2650 -1.2314
 7501TIP3   OH222455   2.435   4.802   5.037  0.6208 -0.1382  0.2935
 7501TIP3    H122456   2.503   4.737   5.057  0.4747 -0.2248  0.5121
 7501TIP3    H222457   2.357   4.750   5.019  0.7969 -0.0747 -0.7272
 7502TIP3   OH222458   6.398   3.933   0.415 -0.7213 -0.3183 -0.4772
 7502TIP3    H122459   6.407   3.922   0.509  1.5659 -1.4568 -0.7939
 7502TIP3    H222460   6.416   3.846   0.378  1.7526  0.8371 -2.1319
 7503TIP3   OH222461   3.799   5.393   4.802  0.5035  0.2083 -0.0774
 7503TIP3    H122462   3.824   5.332   4.733 -1.0767  0.3826 -0.8218
 7503TIP3    H222463   3.750   5.339   4.864 -0.6617  0.6569 -0.5997
 7504TIP3   OH222464   3.187   4.706   3.557 -0.2938 -0.0917 -0.2384
 7504TIP3    H122465   3.274   4.698   3.597 -0.8668 -0.3383  0.9838
 7504TIP3    H222466   3.135   4.753   3.622 -0.9094  0.6265 -1.2332
 7505TIP3   OH222467   6.915   3.848   0.183  0.3320  0.2736 -0.0628
 7505TIP3    H122468   6.926   3.935   0.220  0.0078 -1.0158  3.2942
 7505TIP3    H222469   6.976   3.793   0.232 -1.1297 -1.8002 -0.4739
 7506TIP3   OH222470   2.761   5.375   3.406 -0.5894  0.0364  0.2779
 7506TIP3    H122471   2.708   5.296   3.422 -0.2305 -0.4351 -0.7887
 7506TIP3    H222472   2.707   5.428   3.348  0.1839 -0.5419 -0.9828
 7507TIP3   OH222473   2.183   5.543   3.154 -0.5942  0.0729 -0.3580
 7507TIP3    H122474   2.230   5.619   3.121  0.5225 -0.0510  0.9120
 7507TIP3    H222475   2.212   5.471   3.097  0.2131  0.1320 -0.0247
 7508TIP3   OH222476   2.730   5.692   3.145  1.0263 -0.1492 -0.2449
 7508TIP3    H122477   2.782   5.626   3.099 -0.3294  0.2389 -2.3839
 7508TIP3    H222478   2.656   5.644   3.181  0.9728 -0.0836 -0.2678
 7509TIP3   OH222479   1.126   6.669   5.746 -0.0130 -0.4075 -0.4498
 7509TIP3    H122480   1.068   6.723   5.693  0.4844  0.9353  0.3509
 7509TIP3    H222481   1.213   6.707   5.734  0.0812  0.0750  1.4706
 7510TIP3   OH222482   1.741   6.553   3.455 -0.3584  0.3166 -0.1452
 7510TIP3    H122483   1.678   6.491   3.492 -0.3892  1.0317  1.0487
 7510TIP3    H222484   1.696   6.638   3.459  0.6821  0.8432  0.7458
 7511TIP3   OH222485   2.292   5.280   3.085 -0.3421  0.0009  0.1699
 7511TIP3    H122486   2.367   5.233   3.049  1.3957  2.2257  0.7746
 7511TIP3    H222487   2.302   5.271   3.180  1.7160  3.9806  0.4378
 7512TIP3   OH222488   1.052   5.413   4.801 -0.0527 -0.6858  0.0322
 7512TIP3    H122489   1.044   5.503   4.832  0.4543 -0.7155  0.2576
 7512TIP3    H222490   1.009   5.360   4.869 -1.2180 -0.5319 -0.5783
 7513TIP3   OH222491   7.664   5.448   5.766 -0.2183 -0.1629  0.5312
 7513TIP3    H122492   7.651   5.483   5.678 -1.1438  0.2443  0.8179
 7513TIP3    H222493   7.738   5.498   5.801  0.4643 -0.6681 -0.1909
 7514TIP3   OH222494   3.315   7.014   2.328 -0.8392 -0.0397  0.1903
 7514TIP3    H122495   3.334   7.079   2.260 -0.7615  0.8348  1.0334
 7514TIP3    H222496   3.220   7.009   2.331 -0.8393 -0.8819 -0.7158
 7515TIP3   OH222497   4.424   5.540   3.141  0.2134  0.2967 -0.0695
 7515TIP3    H122498   4.452   5.455   3.174  2.7983  1.0942 -0.0894
 7515TIP3    H222499   4.460   5.603   3.203  0.9037  1.5161 -1.6618
 7516TIP3   OH222500   3.985   5.528   4.982  0.1619 -0.1025 -0.0612
 7516TIP3    H122501   4.040   5.601   4.951 -1.1175  0.6555 -0.5591
 7516TIP3    H222502   3.929   5.506   4.907 -0.8681 -0.2469  0.7429
 7517TIP3   OH222503   0.803   5.252   4.536 -0.0692  0.4946  0.1447
 7517TIP3    H122504   0.751   5.177   4.507 -0.7752  1.2530 -0.5516
 7517TIP3    H222505   0.772   5.269   4.625 -1.0827  1.0049 -0.3008
 7518TIP3   OH222506   0.020   1.370   0.663 -0.1325 -0.4940  0.1916
 7518TIP3    H122507  -0.062   1.358   0.615 -0.1362  0.7627 -0.1230
 7518TIP3    H222508   0.056   1.282   0.671 -0.9151 -0.9036 -0.7302
 7519TIP3   OH222509   1.678   4.916   5.196  1.0252 -0.1752  0.4252
 7519TIP3    H122510   1.667   5.010   5.208  4.3117  0.0585  2.2181
 7519TIP3    H222511   1.756   4.908   5.142  1.5210 -1.9067  1.3757
 7520TIP3   OH222512   6.912   0.311   3.315  0.0899  0.4429 -0.5458
 7520TIP3    H122513   6.950   0.262   3.243  1.6324  0.9161 -0.0592
 7520TIP3    H222514   6.826   0.271   3.329  1.1599 -1.8245 -0.4113
 7521TIP3   OH222515   2.625   1.219   5.189  0.0053  0.1857 -0.0146
 7521TIP3    H122516   2.679   1.219   5.111 -0.4694  0.0297 -0.3437
 7521TIP3    H222517   2.687   1.205   5.261  0.4083  0.0898 -0.3796
 7522TIP3   OH222518   0.339   7.275   5.331  0.0430  0.5067  0.2696
 7522TIP3    H122519   0.284   7.353   5.337  1.8158  1.7920  0.1404
 7522TIP3    H222520   0.318   7.238   5.245 -0.7201  0.9086  0.2771
 7523TIP3   OH222521   1.254   5.016   5.531 -0.1086 -0.3313  0.0021
 7523TIP3    H122522   1.335   5.040   5.575 -0.0513 -0.7854  0.1420
 7523TIP3    H222523   1.240   5.085   5.467  0.8393 -0.7133 -0.6155
 7524TIP3   OH222524   4.428   4.664   3.222  0.0142  0.4073 -0.5773
 7524TIP3    H122525   4.510   4.706   3.197 -0.1423  0.9394 -0.1985
 7524TIP3    H222526   4.454   4.593   3.281  0.2195  0.4641 -0.6009
 7525TIP3   OH222527   4.821   1.231   2.708  0.3335  0.2187  0.0132
 7525TIP3    H122528   4.780   1.306   2.751  0.8473  0.2803  0.4032
 7525TIP3    H222529   4.799   1.241   2.616  0.7606  1.0906 -0.0000
 7526TIP3   OH222530   1.918   4.781   5.238  0.2685 -0.2961  0.3574
 7526TIP3    H122531   1.888   4.851   5.295  0.8265 -1.2609  1.8886
 7526TIP3    H222532   1.913   4.702   5.293  2.2163 -1.0162 -0.4438
 7527TIP3   OH222533   3.729   5.195   2.277 -0.1000  0.1541  0.0428
 7527TIP3    H122534   3.668   5.138   2.230  0.7754  1.3641 -2.6611
 7527TIP3    H222535   3.675   5.266   2.311 -0.7840 -0.8771  1.1497
 7528TIP3   OH222536   2.310   5.467   4.060  0.1757 -0.3115  0.0707
 7528TIP3    H122537   2.396   5.486   4.096  0.1617 -0.8691  0.3951
 7528TIP3    H222538   2.306   5.372   4.053  0.2075 -0.2027 -1.4950
 7529TIP3   OH222539   0.677   7.445   3.293 -0.2203 -0.2260  0.1633
 7529TIP3    H122540   0.686   7.489   3.208  0.5487  0.1611  0.4368
 7529TIP3    H222541   0.759   7.396   3.303 -0.6143 -0.8465  0.3588
 7530TIP3   OH222542   1.720   5.643   4.105 -0.7043 -0.0802 -0.3427
 7530TIP3    H122543   1.811   5.620   4.126 -1.3709 -1.6590  0.9043
 7530TIP3    H222544   1.690   5.692   4.182 -0.8039  0.7908 -0.9259
 7531TIP3   OH222545   1.604   5.891   6.007 -0.6262 -0.6073 -0.2109
 7531TIP3    H122546   1.665   5.965   6.002  0.7012 -1.5553  1.3506
 7531TIP3    H222547   1.595   5.873   6.100 -2.5542 -1.1134 -0.4771
 7532TIP3   OH222548   7.737   6.247   4.506  0.0303 -0.0087  0.2024
 7532TIP3    H122549   7.828   6.230   4.479 -0.4315 -0.7639 -0.9365
 7532TIP3    H222550   7.738   6.339   4.534  0.8591  0.4176 -1.1323
 7533TIP3   OH222551   1.720   5.305   2.939  0.2684 -0.5861 -0.0286
 7533TIP3    H122552   1.644   5.341   2.984  0.7596  0.3012  0.1006
 7533TIP3    H222553   1.790   5.368   2.955  0.7459 -0.8385 -1.0690
 7534TIP3   OH222554   3.011   5.720   4.703 -0.1639  0.6136  0.8548
 7534TIP3    H122555   2.940   5.689   4.759 -0.4737  3.6098  2.1865
 7534TIP3    H222556   2.982   5.806   4.672  0.5870 -0.3398 -2.8540
 7535TIP3   OH222557   2.295   5.202   3.691  0.7966  0.1406 -0.2187
 7535TIP3    H122558   2.241   5.143   3.639 -0.0721 -1.1240  2.0610
 7535TIP3    H222559   2.270   5.290   3.661 -2.2004 -0.4331  0.4979
 7536TIP3   OH222560   1.094   4.280   4.668  0.0994 -0.0225 -0.3453
 7536TIP3    H122561   1.089   4.239   4.754  1.4876  0.2294 -0.1394
 7536TIP3    H222562   1.176   4.249   4.631 -0.6225 -0.3550 -1.7104
 7537TIP3   OH222563   5.662   3.403   1.332  0.0361 -0.1025 -0.3606
 7537TIP3    H122564   5.731   3.405   1.398 -0.2174 -1.5087 -0.0565
 7537TIP3    H222565   5.697   3.348   1.262 -0.5801 -0.4217 -0.4231
 7538TIP3   OH222566   3.258   6.198   4.398 -0.6159 -0.8068  0.3317
 7538TIP3    H122567   3.213   6.118   4.423  0.7309 -2.2125 -1.5787
 7538TIP3    H222568   3.351   6.178   4.412 -0.3975  1.2100  1.9574
 7539TIP3   OH222569   2.961   7.094   3.284 -0.3675  0.0404 -0.3191
 7539TIP3    H122570   3.005   7.016   3.317 -0.3171  0.0877 -0.2727
 7539TIP3    H222571   2.868   7.071   3.283 -0.4562  0.3369  0.6989
 7540TIP3   OH222572   2.525   6.739   4.721  0.1812 -0.2363  0.7651
 7540TIP3    H122573   2.546   6.671   4.785  2.8789  0.9749  1.2271
 7540TIP3    H222574   2.456   6.790   4.763 -0.5214 -1.5315  1.2225
 7541TIP3   OH222575   3.277   5.166   2.446 -0.0158 -0.0377  0.1588
 7541TIP3    H122576   3.301   5.223   2.372  0.1868  0.1858  0.3920
 7541TIP3    H222577   3.219   5.220   2.500 -1.8817 -0.9178 -0.9183
 7542TIP3   OH222578   3.117   4.078   3.016  0.3374  0.2491 -0.5123
 7542TIP3    H122579   3.064   4.065   3.095  2.0273  0.2747  0.6766
 7542TIP3    H222580   3.082   4.016   2.953 -1.1364  0.3155  0.2119
 7543TIP3   OH222581   3.865   0.487   3.639  0.0164 -0.4660 -0.2433
 7543TIP3    H122582   3.782   0.493   3.687  0.4419 -0.8908  0.5765
 7543TIP3    H222583   3.840   0.481   3.547 -0.8187  0.5640 -0.0852
 7544TIP3   OH222584   0.907   6.072   4.693  0.1444 -0.3258 -0.0194
 7544TIP3    H122585   0.971   6.143   4.696  1.2542 -1.3257  0.1237
 7544TIP3    H222586   0.897   6.044   4.784 -0.1774 -0.4615 -0.0941
 7545TIP3   OH222587   5.272  -0.007   3.064  0.5871  0.1797 -0.5190
 7545TIP3    H122588   5.253   0.080   3.099 -0.5014 -0.1320 -0.3027
 7545TIP3    H222589   5.299   0.008   2.974  2.0691  0.8802  0.0263
 7546TIP3   OH222590   1.805   6.251   5.192 -0.2369  0.2978  0.0237
 7546TIP3    H122591   1.819   6.235   5.099 -0.7035  1.2796 -0.2205
 7546TIP3    H222592   1.738   6.320   5.195  0.2148  0.7014  1.0768
 7547TIP3   OH222593   0.793   5.631   5.169  0.3877  0.3877 -0.1696
 7547TIP3    H122594   0.764   5.542   5.146  2.1818 -0.3279  0.2462
 7547TIP3    H222595   0.875   5.617   5.216  0.5654  2.2778  0.0847
 7548TIP3   OH222596   2.649   5.601   2.172 -0.4616 -0.0002 -0.4203
 7548TIP3    H122597   2.574   5.585   2.115 -1.6254  1.6195  0.6029
 7548TIP3    H222598   2.702   5.665   2.126  0.0305 -0.7625 -0.9156
 7549TIP3   OH222599   2.547   4.001   4.970  0.3792  0.2520  0.1920
 7549TIP3    H122600   2.527   4.045   4.888  1.9569  1.7276  0.5615
 7549TIP3    H222601   2.526   4.065   5.038  0.3698 -0.4590  0.8712
 7550TIP3   OH222602   2.148   5.950   4.016  0.1969  0.2977  0.8204
 7550TIP3    H122603   2.158   5.876   4.076  1.7495 -0.4841 -0.3722
 7550TIP3    H222604   2.097   5.914   3.942 -0.0942  0.7522  0.7978
 7551TIP3   OH222605   1.167   2.969   4.160  0.4011 -1.0089 -0.5483
 7551TIP3    H122606   1.142   2.991   4.249  0.0206 -0.1390 -0.8591
 7551TIP3    H222607   1.095   3.002   4.106  0.2558 -2.2408 -1.1109
 7552TIP3   OH222608   3.886   5.898   1.962  0.3295  0.4651  0.2727
 7552TIP3    H122609   3.941   5.822   1.941 -1.0642 -0.7545  0.9709
 7552TIP3    H222610   3.805   5.883   1.913 -0.5630  0.7014  1.6428
 7553TIP3   OH222611   3.147   4.243   3.948  0.3087 -0.1410 -0.7409
 7553TIP3    H122612   3.206   4.214   4.017 -1.2087 -1.3575  0.0681
 7553TIP3    H222613   3.138   4.337   3.962  1.2989 -0.0989 -0.3150
 7554TIP3   OH222614   1.867   4.363   3.720 -0.0650 -0.0339 -0.0299
 7554TIP3    H122615   1.925   4.288   3.731 -2.6612 -2.0681  0.1803
 7554TIP3    H222616   1.784   4.336   3.761 -0.4428  3.7034  1.9171
 7555TIP3   OH222617   1.046   5.558   5.266  0.4411 -1.0695  0.0423
 7555TIP3    H122618   1.117   5.531   5.208  1.9917 -0.2903  1.5301
 7555TIP3    H222619   1.090   5.608   5.335 -1.5814 -0.4619  0.9070
 7556TIP3   OH222620   2.258   5.166   5.337 -0.2060  0.5665 -0.0679
 7556TIP3    H122621   2.236   5.217   5.415 -1.1528 -0.0129  0.0525
 7556TIP3    H222622   2.233   5.076   5.359 -2.4479  0.7102 -1.7624
 7557TIP3   OH222623   1.777   5.258   5.773 -0.0620  0.0616 -0.3891
 7557TIP3    H122624   1.809   5.323   5.835 -1.3228 -0.1944  0.5516
 7557TIP3    H222625   1.776   5.176   5.822 -2.2573  0.0852 -0.3297
 7558TIP3   OH222626   5.122   4.893   5.714  0.0200 -0.0114 -0.0135
 7558TIP3    H122627   5.107   4.806   5.675  0.4582  0.3290 -0.9555
 7558TIP3    H222628   5.209   4.918   5.685  0.1303  0.5045  0.7377
 7559TIP3   OH222629   2.019   5.068   2.982  0.8263 -0.0884  0.4088
 7559TIP3    H122630   2.084   5.004   2.952  0.3101  0.2842 -1.5053
 7559TIP3    H222631   2.070   5.130   3.035  1.7334 -0.7334  0.3169
 7560TIP3   OH222632   2.971   5.656   5.131 -0.0795 -1.0089  0.1178
 7560TIP3    H122633   2.884   5.676   5.164  0.8373  0.1304  1.9492
 7560TIP3    H222634   2.999   5.579   5.182  1.3193  0.7266  2.0717
 7561TIP3   OH222635   7.316   1.934   1.312  0.2733 -0.0616 -0.0490
 7561TIP3    H122636   7.355   1.878   1.244  1.5345 -1.1545  1.5285
 7561TIP3    H222637   7.313   1.879   1.390  1.2682  1.9706  1.4855
 7562TIP3   OH222638   2.377   5.351   4.811  0.4281  0.2085 -1.0299
 7562TIP3    H122639   2.404   5.374   4.900 -0.7723  1.0656 -0.8734
 7562TIP3    H222640   2.301   5.295   4.823 -0.4636  1.2924 -1.5260
 7563TIP3   OH222641   0.684   3.366   4.130 -0.5125  0.1081 -0.6528
 7563TIP3    H122642   0.603   3.334   4.169  0.4374 -0.8994  0.5719
 7563TIP3    H222643   0.678   3.461   4.135 -0.8986  0.0117  0.9597
 7564TIP3   OH222644   1.397   4.886   3.500  0.4544 -0.3433 -0.3729
 7564TIP3    H122645   1.429   4.878   3.410 -1.5145  1.0050 -1.2265
 7564TIP3    H222646   1.368   4.977   3.508 -2.3661 -1.2480  0.5764
 7565TIP3   OH222647   1.179   6.516   6.314 -0.3775  0.2554 -0.1965
 7565TIP3    H122648   1.216   6.445   6.261 -0.9175  0.8535 -1.4162
 7565TIP3    H222649   1.255   6.569   6.338 -0.0323 -0.4532  0.2865
 7566TIP3   OH222650   1.356   6.423   4.416  0.4136  0.0153  0.2718
 7566TIP3    H122651   1.407   6.485   4.364 -0.5631  1.5124  1.0668
 7566TIP3    H222652   1.265   6.446   4.396 -0.0297  1.8740  4.0389
 7567TIP3   OH222653   1.829   6.147   3.353 -0.4724  0.1680  0.1220
 7567TIP3    H122654   1.809   6.155   3.260 -1.0377 -0.9461  0.1361
 7567TIP3    H222655   1.911   6.195   3.365 -0.6774  0.7568 -0.8501
 7568TIP3   OH222656   4.613   0.255   5.169  0.7698  0.4131  0.4096
 7568TIP3    H122657   4.691   0.288   5.124  1.5319 -0.3538  1.1732
 7568TIP3    H222658   4.646   0.195   5.236 -0.5059 -0.3764  0.3535
 7569TIP3   OH222659   7.924   7.215   5.766  0.8044 -0.3305 -0.1061
 7569TIP3    H122660   7.873   7.294   5.783 -0.1756 -1.2138  1.1445
 7569TIP3    H222661   7.880   7.174   5.692 -0.0395 -0.8560  0.6799
 7570TIP3   OH222662   3.712   4.721   3.907 -0.5467 -0.0287  0.3766
 7570TIP3    H122663   3.778   4.788   3.886 -1.9272  0.6387 -1.9684
 7570TIP3    H222664   3.750   4.673   3.980  1.9522  1.2074 -0.0472
 7571TIP3   OH222665   3.015   6.063   4.920 -0.8080 -0.7151 -0.0885
 7571TIP3    H122666   3.001   6.026   5.007 -0.0988 -1.4621 -0.2894
 7571TIP3    H222667   2.949   6.020   4.865 -0.1286 -1.5173 -0.2766
 7572TIP3   OH222668   4.379   6.367   3.946 -0.1585 -0.1549 -0.1475
 7572TIP3    H122669   4.350   6.298   4.005 -0.4373  0.0959  0.0133
 7572TIP3    H222670   4.452   6.328   3.897 -0.4205 -0.6152 -0.1757
 7573TIP3   OH222671   1.550   4.444   2.006  0.4325 -0.6249  0.1719
 7573TIP3    H122672   1.528   4.519   1.952 -1.4408 -0.3940  1.2123
 7573TIP3    H222673   1.539   4.368   1.949 -0.8769 -0.3400  0.0411
 7574TIP3   OH222674   5.493   5.494   3.714  0.1394  0.3740 -0.1893
 7574TIP3    H122675   5.497   5.399   3.721 -1.0192  0.2767 -0.7189
 7574TIP3    H222676   5.538   5.526   3.792 -2.0321 -0.6362  1.5458
 7575TIP3   OH222677   1.942   5.488   3.014  0.3318 -0.0957  0.3725
 7575TIP3    H122678   1.885   5.557   3.047 -0.8269 -0.7046 -0.3361
 7575TIP3    H222679   2.020   5.493   3.069  0.1232  1.5543  0.5462
 7576TIP3   OH222680   1.566   5.467   2.678 -0.2964 -0.0619  0.1619
 7576TIP3    H122681   1.641   5.415   2.705  0.1510  0.5016  0.0195
 7576TIP3    H222682   1.532   5.423   2.601  1.9305  1.5275 -1.7995
 7577TIP3   OH222683   1.787   5.742   4.792 -0.6309  0.3493 -0.0345
 7577TIP3    H122684   1.761   5.651   4.775 -0.6969  0.0943  1.3422
 7577TIP3    H222685   1.704   5.789   4.800 -0.6232  0.2364  0.7421
 7578TIP3   OH222686   2.793   5.471   3.647 -0.4440  0.4459  0.7299
 7578TIP3    H122687   2.778   5.427   3.563 -1.2450  1.3556  0.3861
 7578TIP3    H222688   2.853   5.414   3.693 -0.5356 -0.4162 -0.1931
 7579TIP3   OH222689   7.802   5.284   4.973 -0.2240  0.2133 -0.3310
 7579TIP3    H122690   7.745   5.217   5.011  0.2614  0.4356  0.7972
 7579TIP3    H222691   7.813   5.257   4.882 -1.4439 -0.2938 -0.3427
 7580TIP3   OH222692   0.755   3.582   3.680  0.3171 -0.5391  1.1646
 7580TIP3    H122693   0.842   3.583   3.719  0.8527 -1.5601  0.0621
 7580TIP3    H222694   0.750   3.662   3.628  2.6381 -2.8834 -2.9426
 7581TIP3   OH222695   3.941   3.920   4.432 -0.4180  0.8676 -0.4403
 7581TIP3    H122696   4.026   3.888   4.463 -0.8060  0.4758  0.2337
 7581TIP3    H222697   3.879   3.890   4.498 -0.9522  2.0141 -0.4179
 7582TIP3   OH222698   1.518   5.878   4.844  0.1915 -0.0236  0.0116
 7582TIP3    H122699   1.470   5.795   4.848 -0.7322  0.3330 -2.4984
 7582TIP3    H222700   1.461   5.941   4.887  0.1871 -0.3804  0.5309
 7583TIP3   OH222701   2.458   6.081   5.902 -0.4366  0.4538  0.3231
 7583TIP3    H122702   2.526   6.126   5.950  2.0942 -0.2233 -2.4698
 7583TIP3    H222703   2.411   6.150   5.855  0.7541  0.6318 -0.6463
 7584TIP3   OH222704   3.299   6.067   3.384 -0.0613  0.0639 -0.3558
 7584TIP3    H122705   3.286   6.103   3.472  2.5527  2.0827 -0.7359
 7584TIP3    H222706   3.211   6.043   3.354 -1.2738  1.6486  1.8403
 7585TIP3   OH222707   1.638   6.848   5.049 -0.6800  0.1313  0.2509
 7585TIP3    H122708   1.574   6.898   5.099 -0.0769  1.5698 -0.3906
 7585TIP3    H222709   1.589   6.815   4.973 -1.0918 -0.3268  0.7085
 7586TIP3   OH222710   5.020   3.289   0.059  0.2948  0.1898  0.1162
 7586TIP3    H122711   5.049   3.304   0.149  0.4483 -1.5490  0.3833
 7586TIP3    H222712   5.007   3.376   0.022  0.5228  0.9132  1.7321
 7587TIP3   OH222713   3.602   4.614   2.546 -0.1142 -0.5599  0.4942
 7587TIP3    H122714   3.522   4.568   2.521 -0.8161  0.5983  0.6238
 7587TIP3    H222715   3.635   4.650   2.463  0.0400 -0.6639  0.5102
 7588TIP3   OH222716   2.698   4.237   3.991 -0.5162 -0.6894  0.8034
 7588TIP3    H122717   2.706   4.173   4.061  1.9880  0.7551  1.9254
 7588TIP3    H222718   2.773   4.219   3.934 -0.2829  0.6704  0.6646
 7589TIP3   OH222719   1.411   7.189   5.968 -0.3233 -0.7873 -0.2188
 7589TIP3    H122720   1.459   7.254   5.916  0.6102 -2.8227 -1.9651
 7589TIP3    H222721   1.349   7.151   5.907 -0.9235 -1.4842  0.8239
 7590TIP3   OH222722   5.910   0.022   2.395  0.1253 -0.9313 -0.1154
 7590TIP3    H122723   5.940   0.070   2.318 -0.0115  1.3664  1.2309
 7590TIP3    H222724   5.814   0.026   2.390  0.1023 -1.7427 -0.4055
 7591TIP3   OH222725   0.401   3.592   4.356 -0.1856 -0.1349  0.9531
 7591TIP3    H122726   0.446   3.543   4.424  1.5077  0.7200  0.4887
 7591TIP3    H222727   0.308   3.578   4.373  0.1979 -5.0328 -0.3115
 7592TIP3   OH222728   3.198   6.070   4.635 -0.5777 -0.4659 -0.0513
 7592TIP3    H122729   3.168   6.159   4.655 -2.2570 -1.0226 -0.0464
 7592TIP3    H222730   3.138   6.013   4.682  1.5715 -1.6034  1.3965
 7593TIP3   OH222731   1.354   4.790   5.364  0.7302 -0.3631 -0.7251
 7593TIP3    H122732   1.328   4.865   5.418 -1.5145 -0.3389 -1.7750
 7593TIP3    H222733   1.421   4.746   5.415 -0.5956  0.2541  1.6152
 7594TIP3   OH222734   6.110   3.921   0.530  0.6019  0.4454 -0.3914
 7594TIP3    H122735   6.150   3.839   0.502 -0.8166 -1.2230  2.1694
 7594TIP3    H222736   6.180   3.969   0.575  1.0249 -0.1453 -0.4267
 7595TIP3   OH222737   0.137   6.847   2.582  0.1449 -0.1960 -0.2131
 7595TIP3    H122738   0.131   6.844   2.487  1.8703  1.1811 -0.3931
 7595TIP3    H222739   0.223   6.811   2.603  0.5793  1.2700  0.6644
 7596TIP3   OH222740   2.598   6.027   6.194  0.3105 -0.4471  0.4988
 7596TIP3    H122741   2.607   5.998   6.103  0.6578  1.5392 -0.1366
 7596TIP3    H222742   2.687   6.021   6.229  0.7900  1.7361 -0.2572
 7597TIP3   OH222743   5.035   0.971   4.649  0.0625  0.2911 -0.0867
 7597TIP3    H122744   5.000   1.051   4.609 -1.0099 -0.3684 -0.4980
 7597TIP3    H222745   5.126   0.966   4.620  0.1380  1.3734 -0.0330
 7598TIP3   OH222746   4.423   5.648   4.682 -0.1606  0.1425 -0.3807
 7598TIP3    H122747   4.374   5.655   4.601  1.6124  0.0808 -1.4773
 7598TIP3    H222748   4.410   5.733   4.725 -0.3737  0.4989 -1.1450
 7599TIP3   OH222749   0.526   6.529   3.721  0.3203 -0.0994  0.7781
 7599TIP3    H122750   0.596   6.583   3.758  1.0297 -0.6421  0.2573
 7599TIP3    H222751   0.482   6.491   3.797  0.2869  0.6233  1.1207
 7600TIP3   OH222752   2.204   1.189   4.795 -0.1556 -0.3034  0.8950
 7600TIP3    H122753   2.128   1.133   4.809 -0.0796 -0.8545 -0.8559
 7600TIP3    H222754   2.277   1.140   4.835 -0.1530 -1.2966 -0.3187
 7601TIP3   OH222755   4.887   0.374   3.806 -0.2184 -0.5288  0.0813
 7601TIP3    H122756   4.795   0.398   3.809 -0.3043 -0.5481 -1.6914
 7601TIP3    H222757   4.889   0.293   3.754  0.7461 -0.7895  0.4994
 7602TIP3   OH222758   0.778   6.875   5.874  0.2129 -0.2212  0.3511
 7602TIP3    H122759   0.705   6.828   5.835 -0.4027  0.8651  0.1693
 7602TIP3    H222760   0.835   6.806   5.910 -0.8136 -1.0770  0.3597
 7603TIP3   OH222761   4.087   0.478   4.846  0.2225  0.1517 -0.1880
 7603TIP3    H122762   4.002   0.486   4.888  0.0323  0.7767 -0.6847
 7603TIP3    H222763   4.094   0.556   4.790 -0.3747 -1.5841 -2.7852
 7604TIP3   OH222764   2.821   0.419   4.040 -0.0649  0.6588  0.4662
 7604TIP3    H122765   2.754   0.354   4.063  0.3792 -0.0206 -0.1307
 7604TIP3    H222766   2.869   0.379   3.968  0.9511  1.1711  0.8544
 7605TIP3   OH222767   0.956   4.910   4.527 -0.3221  0.0821  0.0015
 7605TIP3    H122768   1.003   4.990   4.505  0.6040 -0.5440 -0.3022
 7605TIP3    H222769   0.869   4.940   4.553  0.8460  1.4024  2.5126
 7606TIP3   OH222770   1.793   5.607   3.675 -0.4068  0.0966  0.1324
 7606TIP3    H122771   1.751   5.684   3.713 -4.1509 -0.5951 -2.4186
 7606TIP3    H222772   1.765   5.534   3.730 -1.8248 -0.2305 -0.9959
 7607TIP3   OH222773   2.845   5.975   3.923 -0.6430 -0.1527 -0.2525
 7607TIP3    H122774   2.910   5.953   3.990  1.7991  0.9208 -2.1487
 7607TIP3    H222775   2.867   5.917   3.850 -1.1157  0.9491 -1.2935
 7608TIP3   OH222776   2.441   5.793   4.419  0.1445  0.7283  0.2197
 7608TIP3    H122777   2.515   5.765   4.473 -2.6569 -4.6506  1.5619
 7608TIP3    H222778   2.379   5.831   4.481  0.3235  2.2069 -0.4680
 7609TIP3   OH222779   1.464   6.176   3.885 -0.9595 -0.0000 -0.4136
 7609TIP3    H122780   1.464   6.116   3.810 -1.4697 -0.6121  0.0695
 7609TIP3    H222781   1.541   6.232   3.871 -0.3660 -0.8905 -0.7796
 7610TIP3   OH222782   0.854   4.299   3.651  0.3861  0.3270 -0.5123
 7610TIP3    H122783   0.884   4.208   3.643  0.9861  0.5177 -0.5116
 7610TIP3    H222784   0.880   4.326   3.739 -0.2014  0.3580 -0.3461
 7611TIP3   OH222785   0.188   4.958   3.584 -0.4096  1.0037 -0.1637
 7611TIP3    H122786   0.244   4.973   3.660 -0.8448  0.5873  0.2458
 7611TIP3    H222787   0.100   4.945   3.621  0.0044 -3.1362 -0.3810
 7612TIP3   OH222788   2.341   5.335   3.375 -0.3785 -0.2750 -0.2239
 7612TIP3    H122789   2.352   5.420   3.418  1.4652  0.1487 -1.4730
 7612TIP3    H222790   2.248   5.315   3.385 -0.8947  2.0000 -0.1407
 7613TIP3   OH222791   2.328   2.980   2.910 -0.2465  0.2391 -0.2026
 7613TIP3    H122792   2.424   2.986   2.906 -0.2753 -0.0616 -1.5965
 7613TIP3    H222793   2.302   3.057   2.960  0.8484 -0.7361  1.9127
 7614TIP3   OH222794   2.371   5.376   5.880  0.2106 -0.4286 -0.1442
 7614TIP3    H122795   2.334   5.416   5.959 -0.9877 -1.2286 -0.2856
 7614TIP3    H222796   2.456   5.341   5.908 -0.7901 -1.8951  1.1453
 7615TIP3   OH222797   1.069   6.309   4.666 -0.0246 -0.2225 -0.4335
 7615TIP3    H122798   1.158   6.302   4.632  0.7540 -1.0853  1.7011
 7615TIP3    H222799   1.023   6.363   4.602  2.0872  0.4146 -1.4481
 7616TIP3   OH222800   1.624   4.426   4.732  0.0857  0.0607  0.5156
 7616TIP3    H122801   1.699   4.406   4.789  1.0846  0.7792 -0.5314
 7616TIP3    H222802   1.651   4.396   4.646 -0.1568  1.8293 -0.1988
 7617TIP3   OH222803   2.695   6.138   4.824 -0.0296 -0.5423 -0.1721
 7617TIP3    H122804   2.608   6.113   4.855  0.2083  0.5701  1.4574
 7617TIP3    H222805   2.749   6.060   4.840 -0.4732 -0.8415 -0.1207
 7618TIP3   OH222806   1.463   6.397   2.913 -0.7969 -0.2270 -0.0119
 7618TIP3    H122807   1.489   6.306   2.906 -0.5886 -0.1842  0.2186
 7618TIP3    H222808   1.487   6.423   3.003 -3.1665 -0.6831  0.8013
 7619TIP3   OH222809   2.036   6.684   3.786 -1.0347  0.6439 -0.1120
 7619TIP3    H122810   2.131   6.669   3.784 -1.1342  0.0935 -1.6704
 7619TIP3    H222811   2.027   6.777   3.765 -0.6891  1.6955  3.9489
 7620TIP3   OH222812   5.651   2.322   0.373  0.0060  0.1786 -0.2651
 7620TIP3    H122813   5.689   2.237   0.395 -2.7670 -0.6169  1.9196
 7620TIP3    H222814   5.574   2.300   0.320  0.4934  1.4668 -1.5025
 7621TIP3   OH222815   2.224   7.266   5.689 -0.2649 -0.4459 -0.3379
 7621TIP3    H122816   2.242   7.232   5.601 -1.2872 -0.1410 -0.6688
 7621TIP3    H222817   2.255   7.197   5.748  0.3081 -0.7085 -0.9383
 7622TIP3   OH222818   1.688   5.198   5.236  0.3175  0.0223  0.1194
 7622TIP3    H122819   1.629   5.266   5.203  2.2465  2.4712  1.5769
 7622TIP3    H222820   1.670   5.193   5.330 -0.0449 -1.7764 -0.0205
 7623TIP3   OH222821   1.252   7.121   5.747  0.8313  0.4197  0.5575
 7623TIP3    H122822   1.188   7.193   5.745  2.6983  2.1065 -1.7259
 7623TIP3    H222823   1.243   7.079   5.662  0.7443 -1.2120  1.3554
 7624TIP3   OH222824   3.948   6.918   4.355  0.5563 -0.3809  0.0964
 7624TIP3    H122825   4.026   6.943   4.305  0.7091 -2.6559 -0.8862
 7624TIP3    H222826   3.978   6.913   4.445  1.4015 -0.5775 -0.1894
 7625TIP3   OH222827   5.870   4.969   2.479  0.3216 -0.4458  0.2742
 7625TIP3    H122828   5.816   4.893   2.501 -2.0272  0.3343 -2.4852
 7625TIP3    H222829   5.944   4.933   2.430  0.5713 -1.1853  1.1809
 7626TIP3   OH222830   7.621   0.680   3.216  0.2480 -0.2017 -0.1376
 7626TIP3    H122831   7.588   0.637   3.137  0.1445  1.3081 -0.9185
 7626TIP3    H222832   7.689   0.739   3.185  0.1213  0.4897  0.8825
 7627TIP3   OH222833   0.053   0.132   1.510  0.6797 -0.1898  0.1302
 7627TIP3    H122834  -0.032   0.095   1.532  1.3667 -1.2725  1.0033
 7627TIP3    H222835   0.073   0.192   1.583  1.0042 -0.5092  0.3056
 7628TIP3   OH222836   5.637   6.606   2.038  0.3384  0.3855  0.4029
 7628TIP3    H122837   5.585   6.575   2.112 -1.8997  1.3264 -0.7193
 7628TIP3    H222838   5.625   6.538   1.971  2.7647 -0.7169  1.0151
 7629TIP3   OH222839   6.587   5.907   4.318 -0.0630  0.7339  0.0577
 7629TIP3    H122840   6.560   5.816   4.309  1.3366  0.3927 -0.9447
 7629TIP3    H222841   6.507   5.958   4.304 -0.4166 -0.2669 -1.7462
 7630TIP3   OH222842   3.758   6.194   3.099 -0.0493 -0.0482 -0.2607
 7630TIP3    H122843   3.780   6.155   3.014 -0.4631  2.1714 -1.4228
 7630TIP3    H222844   3.664   6.179   3.109 -0.1959  0.5627 -0.6770
 7631TIP3   OH222845   1.785   4.785   4.175 -0.5813  0.3584  0.2747
 7631TIP3    H122846   1.856   4.770   4.113 -0.0845  0.4323  0.8179
 7631TIP3    H222847   1.756   4.698   4.201  0.5295  0.3221  1.4252
 7632TIP3   OH222848   4.475   7.059   2.819 -0.1936 -0.0481 -0.7565
 7632TIP3    H122849   4.509   7.121   2.883 -0.7339 -0.8540  0.3328
 7632TIP3    H222850   4.501   6.973   2.853 -1.0517 -0.5202 -1.2800
 7633TIP3   OH222851   5.408   5.292   4.073  0.0347  0.7872  0.7954
 7633TIP3    H122852   5.324   5.302   4.027  0.7135  1.4698 -0.3134
 7633TIP3    H222853   5.383   5.267   4.162 -1.3631  1.1637  0.5272
 7634TIP3   OH222854   5.524   4.935   4.601  0.5513  0.1491 -0.1390
 7634TIP3    H122855   5.601   4.885   4.628  0.1128 -0.0301  0.8176
 7634TIP3    H222856   5.508   4.995   4.673  0.3461  0.8264 -0.7461
 7635TIP3   OH222857   4.342   5.526   3.795  0.3224 -0.7919 -0.0383
 7635TIP3    H122858   4.338   5.475   3.714 -0.6909  1.8081 -1.6997
 7635TIP3    H222859   4.434   5.548   3.805  0.6521 -2.2662  0.2849
 7636TIP3   OH222860   4.721   5.276   2.184  0.2386  0.1385  0.2002
 7636TIP3    H122861   4.731   5.292   2.090  1.1203  0.3727  0.3292
 7636TIP3    H222862   4.633   5.241   2.193  0.2416 -0.1302 -0.7490
 7637TIP3   OH222863   6.818   5.522   1.202 -0.2399  0.4657 -0.0950
 7637TIP3    H122864   6.774   5.590   1.254 -0.8421 -1.6601  2.2895
 7637TIP3    H222865   6.884   5.486   1.261 -1.4311 -2.5124 -0.4929
 7638TIP3   OH222866   5.817   5.246   3.649 -0.0613  0.5378 -0.0968
 7638TIP3    H122867   5.823   5.213   3.738  0.0448 -3.1492 -1.3886
 7638TIP3    H222868   5.884   5.315   3.645  1.0194 -0.3164  2.2220
 7639TIP3   OH222869   5.679   6.406   1.837  0.3659  0.3442  0.6763
 7639TIP3    H122870   5.767   6.444   1.829 -0.2152  1.0706 -3.1822
 7639TIP3    H222871   5.693   6.312   1.835  1.0867  0.4566  0.4044
 7640TIP3   OH222872   5.587   6.632   1.174 -0.2014 -0.0421  0.2091
 7640TIP3    H122873   5.599   6.552   1.123 -1.0490 -0.9609  1.4177
 7640TIP3    H222874   5.545   6.693   1.113  1.3139 -0.1677 -1.0094
 7641TIP3   OH222875   2.115   5.784   5.185  0.0475 -0.0857  0.1904
 7641TIP3    H122876   2.153   5.727   5.118 -1.0542  0.0113 -0.5288
 7641TIP3    H222877   2.152   5.751   5.267  1.1520 -0.4200 -0.4201
 7642TIP3   OH222878   4.842   5.819   2.179  0.3427  0.5265 -0.3922
 7642TIP3    H122879   4.793   5.843   2.258 -1.0478 -0.5485 -0.8965
 7642TIP3    H222880   4.929   5.855   2.193 -0.3893  1.8862  0.8525
 7643TIP3   OH222881   3.618   4.883   3.435  0.6805 -0.0536 -0.1898
 7643TIP3    H122882   3.654   4.805   3.479  2.4336  0.3574 -0.8434
 7643TIP3    H222883   3.625   4.863   3.342 -3.3258 -1.0526 -0.3493
 7644TIP3   OH222884   0.746   5.223   3.604  0.4709 -0.3170  0.3490
 7644TIP3    H122885   0.813   5.154   3.600 -1.4210 -2.1454 -1.3762
 7644TIP3    H222886   0.664   5.178   3.584 -0.8258  2.4642 -0.9246
 7645TIP3   OH222887   4.902   4.795   4.462  0.1734  0.3371 -0.1323
 7645TIP3    H122888   4.987   4.776   4.502 -0.1275  0.1607  0.4303
 7645TIP3    H222889   4.915   4.879   4.417  1.3793 -0.9011 -2.2323
 7646TIP3   OH222890   3.480   6.441   3.293  0.4414 -0.0099  0.9185
 7646TIP3    H122891   3.540   6.369   3.313  1.3084  0.7711  1.1361
 7646TIP3    H222892   3.492   6.503   3.365 -0.5136  0.2302  0.8801
 7647TIP3   OH222893   1.602   6.166   2.866  0.5014  0.9354  0.0729
 7647TIP3    H122894   1.652   6.166   2.784 -0.7934 -0.7118 -0.7568
 7647TIP3    H222895   1.567   6.077   2.872  0.6289  1.0222  2.4600
 7648TIP3   OH222896   5.251   7.359   4.678 -0.3308 -0.2881  0.5115
 7648TIP3    H122897   5.242   7.410   4.758 -2.8307  1.7976 -1.0320
 7648TIP3    H222898   5.171   7.376   4.629  0.2244 -3.1297 -1.5552
 7649TIP3   OH222899   5.742   5.285   2.959  0.4224 -0.8006 -0.2150
 7649TIP3    H122900   5.788   5.218   2.908 -0.8493 -0.0800 -2.4222
 7649TIP3    H222901   5.794   5.365   2.945  0.1121 -0.6200 -0.3471
 7650TIP3   OH222902   5.913   5.926   3.989 -0.3127  0.5445  0.0386
 7650TIP3    H122903   5.913   5.930   3.894 -0.1684 -0.8199 -0.0317
 7650TIP3    H222904   5.823   5.900   4.012 -0.2718  0.5960  0.2601
 7651TIP3   OH222905   3.942   5.093   3.577 -0.2304  0.6176  0.3600
 7651TIP3    H122906   3.900   5.156   3.637  1.3154 -0.2291  2.3879
 7651TIP3    H222907   4.036   5.109   3.588  0.1558 -1.6436  0.4523
 7652TIP3   OH222908   5.881   5.665   3.294  0.3474 -0.2664 -0.0715
 7652TIP3    H122909   5.904   5.741   3.347 -2.7276  1.1995 -0.7558
 7652TIP3    H222910   5.830   5.609   3.354 -0.1020 -0.2879 -0.4737
 7653TIP3   OH222911   6.876   1.193   4.553  0.0158  0.0778 -0.7706
 7653TIP3    H122912   6.812   1.217   4.486 -0.4511  0.4134 -0.2120
 7653TIP3    H222913   6.892   1.275   4.600  1.0384  0.0485 -1.0593
 7654TIP3   OH222914   5.723   6.225   1.429 -0.4958 -0.8386  0.5104
 7654TIP3    H122915   5.759   6.308   1.399  0.7810 -0.9944  1.5660
 7654TIP3    H222916   5.629   6.231   1.410 -0.3631  0.7148  0.2896
 7655TIP3   OH222917   2.293   4.457   3.535  0.0940 -0.6792 -0.2496
 7655TIP3    H122918   2.363   4.433   3.474  0.5486  0.6522 -0.2765
 7655TIP3    H222919   2.322   4.540   3.573 -1.9243  0.3961 -0.9931
 7656TIP3   OH222920   7.564   0.674   4.321  0.0327  0.2850  0.1260
 7656TIP3    H122921   7.529   0.735   4.386 -0.4463  1.5508 -1.2630
 7656TIP3    H222922   7.507   0.686   4.245 -0.0672 -1.9333 -0.1645
 7657TIP3   OH222923   4.084   7.107   1.895 -0.4125 -0.1501 -0.5464
 7657TIP3    H122924   4.162   7.052   1.890  0.7408  1.5466 -1.7352
 7657TIP3    H222925   4.011   7.048   1.875  0.8593 -1.1140 -2.4943
 7658TIP3   OH222926   5.337   6.952   4.374 -0.2846  0.1664 -0.3035
 7658TIP3    H122927   5.402   6.884   4.355  1.2465  2.0350 -2.0604
 7658TIP3    H222928   5.258   6.922   4.330 -0.1670 -1.3302  0.4546
 7659TIP3   OH222929   4.481   5.764   3.316 -0.1708  0.5614  0.0591
 7659TIP3    H122930   4.451   5.854   3.308 -0.7382  0.3498 -0.2262
 7659TIP3    H222931   4.484   5.748   3.410 -3.7567 -0.3191  0.1039
 7660TIP3   OH222932   5.759   6.344   5.541  0.6422 -0.2708  0.4169
 7660TIP3    H122933   5.843   6.341   5.586 -0.2035 -3.1385  1.9546
 7660TIP3    H222934   5.709   6.272   5.579 -3.3043  2.6159  1.0265
 7661TIP3   OH222935   3.342   5.577   2.485 -0.2393 -0.4186 -0.2817
 7661TIP3    H122936   3.359   5.556   2.577 -0.0314 -1.0594 -0.4632
 7661TIP3    H222937   3.369   5.499   2.437 -0.7628 -0.2564 -0.8492
 7662TIP3   OH222938   3.792   2.225   0.384 -0.4280  0.4385 -0.2594
 7662TIP3    H122939   3.874   2.180   0.362 -1.1231 -0.7163 -0.5188
 7662TIP3    H222940   3.795   2.306   0.333  0.6223  0.4717 -0.1545
 7663TIP3   OH222941   3.850   6.478   3.345 -0.3237 -0.3019  0.2001
 7663TIP3    H122942   3.935   6.521   3.344 -1.0996  1.3892  2.4272
 7663TIP3    H222943   3.871   6.385   3.358  1.2217 -0.2051 -1.3507
 7664TIP3   OH222944   5.197   5.385   1.853  0.1340  0.1401 -0.2230
 7664TIP3    H122945   5.170   5.306   1.805 -2.8789  1.5113 -0.9096
 7664TIP3    H222946   5.289   5.369   1.875 -0.2787 -3.3917 -0.6627
 7665TIP3   OH222947   5.052   6.463   4.766 -0.9945 -0.1787 -0.5930
 7665TIP3    H122948   5.024   6.512   4.843 -1.4249 -0.3570 -0.6320
 7665TIP3    H222949   5.116   6.400   4.798  2.1560  2.6802 -1.0658
 7666TIP3   OH222950   6.557   6.350   1.997  0.1672 -0.4790 -0.9754
 7666TIP3    H122951   6.539   6.338   2.090  1.1629 -0.2897 -0.7469
 7666TIP3    H222952   6.598   6.436   1.991  2.8579 -1.6887 -1.1508
 7667TIP3   OH222953   1.970   6.207   4.608 -0.0129 -0.0810 -0.0874
 7667TIP3    H122954   1.938   6.274   4.547  1.9339 -0.0447 -1.1013
 7667TIP3    H222955   2.035   6.253   4.661 -1.0712 -0.3402  1.4805
 7668TIP3   OH222956   5.376   6.465   3.253  0.1309 -0.0514  0.3887
 7668TIP3    H122957   5.349   6.391   3.200  0.1492  0.1100  0.1542
 7668TIP3    H222958   5.384   6.538   3.191  0.2137  0.1211  0.6003
 7669TIP3   OH222959   5.242   6.427   2.770 -0.1381  0.4208 -0.4734
 7669TIP3    H122960   5.182   6.443   2.696 -2.0703 -2.0044  0.4980
 7669TIP3    H222961   5.323   6.398   2.729 -0.7112  0.4797 -1.6964
 7670TIP3   OH222962   5.892   7.435   0.189 -0.2816 -0.3209 -0.0786
 7670TIP3    H122963   5.797   7.431   0.201 -0.0583 -1.4881  1.4091
 7670TIP3    H222964   5.909   7.382   0.111 -0.8837  0.2458 -0.6030
 7671TIP3   OH222965   3.064   5.240   5.032 -0.1861  0.3261  0.3937
 7671TIP3    H122966   3.050   5.310   5.096  0.2644 -0.1153  0.9782
 7671TIP3    H222967   2.992   5.179   5.046  0.8722 -0.6527  1.6700
 7672TIP3   OH222968   4.459   4.647   4.597 -0.3678  0.3676  0.1929
 7672TIP3    H122969   4.404   4.568   4.603 -0.1160  0.2267  0.6299
 7672TIP3    H222970   4.402   4.711   4.554 -1.1612  0.4704  1.3839
 7673TIP3   OH222971   6.386   6.105   4.311  0.4663 -0.1255  0.3536
 7673TIP3    H122972   6.360   6.085   4.221  2.0518  1.2794 -0.4434
 7673TIP3    H222973   6.318   6.164   4.344  0.1131 -0.3009 -0.0523
 7674TIP3   OH222974   3.622   6.810   2.358 -0.1028 -0.6502 -0.0861
 7674TIP3    H122975   3.608   6.724   2.318  0.0315 -0.1644 -1.2057
 7674TIP3    H222976   3.711   6.806   2.392 -0.6986 -1.5568  1.4495
 7675TIP3   OH222977   4.631   5.407   0.964 -0.1081 -0.2034 -0.2196
 7675TIP3    H122978   4.580   5.488   0.958 -1.0557 -0.4753  3.0026
 7675TIP3    H222979   4.573   5.346   1.011  1.7227 -1.7645  0.0787
 7676TIP3   OH222980   3.865   6.253   4.278  0.2805  0.1293 -0.8513
 7676TIP3    H122981   3.786   6.301   4.304  0.5738 -0.2480  0.8103
 7676TIP3    H222982   3.860   6.171   4.328  0.7335 -0.7540 -2.2317
 7677TIP3   OH222983   4.714   6.933   1.905  0.3556 -0.4062  0.3221
 7677TIP3    H122984   4.676   6.913   1.990 -2.4903 -0.9153 -1.0178
 7677TIP3    H222985   4.707   6.852   1.856 -1.6611  0.9381 -1.6927
 7678TIP3   OH222986   3.293   5.438   1.894  0.1998  0.4227 -0.3568
 7678TIP3    H122987   3.366   5.492   1.866 -0.3956  2.0512  1.1536
 7678TIP3    H222988   3.333   5.360   1.933  1.0756  0.2025 -1.6946
 7679TIP3   OH222989   5.963   5.984   2.441 -0.7954 -0.0351  0.0668
 7679TIP3    H122990   5.970   6.074   2.471  2.0291 -0.4992  0.9850
 7679TIP3    H222991   5.950   5.933   2.521  0.1982 -0.6496 -0.1446
 7680TIP3   OH222992   0.576   0.071   1.713  0.1933 -1.0070 -0.5205
 7680TIP3    H122993   0.539  -0.012   1.744 -0.2176 -0.3781  0.7060
 7680TIP3    H222994   0.508   0.109   1.658  0.3230 -1.4136 -0.9625
 7681TIP3   OH222995   3.972   5.691   4.405  0.2567 -0.5306 -0.2456
 7681TIP3    H122996   3.928   5.620   4.358  0.3120  0.0140 -1.1202
 7681TIP3    H222997   3.936   5.686   4.494  0.1879 -1.5917 -0.3217
 7682TIP3   OH222998   4.801   6.677   4.851  0.0080  0.0128  0.6915
 7682TIP3    H122999   4.832   6.766   4.839  0.4025 -0.0471  1.2572
 7682TIP3    H223000   4.855   6.641   4.922  0.3304 -0.9003  0.0027
 7683TIP3   OH223001   4.991   5.394   4.205  0.0134  0.2640 -0.3956
 7683TIP3    H123002   5.058   5.415   4.140  0.2156 -0.5826 -0.4712
 7683TIP3    H223003   4.909   5.418   4.163  0.1983  0.4077 -0.6794
 7684TIP3   OH223004   5.474   7.351   2.198  0.3775  0.1330  0.1213
 7684TIP3    H123005   5.567   7.332   2.187  0.8719  1.9972  0.9591
 7684TIP3    H223006   5.459   7.428   2.143 -0.4325  0.4893  0.8383
 7685TIP3   OH223007   4.476   5.712   3.586 -0.0049  0.0023  0.5911
 7685TIP3    H123008   4.436   5.791   3.624  1.8577  0.7913  0.9729
 7685TIP3    H223009   4.507   5.662   3.661 -0.2192 -0.5837  0.2937
 7686TIP3   OH223010   4.459   4.908   3.090  0.5726 -0.0577 -0.3860
 7686TIP3    H123011   4.434   5.001   3.096  2.9332  0.6550 -1.2101
 7686TIP3    H223012   4.439   4.884   3.000  1.6096  0.1661 -0.6858
 7687TIP3   OH223013   4.219   4.037   4.919  0.0979 -0.5757 -0.1640
 7687TIP3    H123014   4.284   4.055   4.987 -1.3669 -0.4463  1.2359
 7687TIP3    H223015   4.269   4.000   4.847  1.5460 -1.6279  1.3552
 7688TIP3   OH223016   3.839   6.236   2.607 -0.9448 -0.1023  0.3670
 7688TIP3    H123017   3.793   6.282   2.536 -0.4333  1.3701  0.9710
 7688TIP3    H223018   3.908   6.187   2.562  0.5252  2.2233 -0.0521
 7689TIP3   OH223019   6.055   6.134   3.460 -0.6431  0.5718 -0.0521
 7689TIP3    H123020   6.150   6.141   3.450 -0.6221  0.2785 -0.0934
 7689TIP3    H223021   6.020   6.204   3.405 -0.4738  0.0480 -0.8419
 7690TIP3   OH223022   3.469   4.075   1.990 -0.1928  0.0360  0.0549
 7690TIP3    H123023   3.418   4.053   1.912  0.5951 -0.2713 -0.3818
 7690TIP3    H223024   3.483   4.169   1.984  1.6537 -0.2910 -1.2929
 7691TIP3   OH223025   2.669   6.430   2.930  0.2544  0.6459  0.0933
 7691TIP3    H123026   2.720   6.379   2.867  1.2524 -0.5541  1.8325
 7691TIP3    H223027   2.730   6.497   2.961  0.3908 -0.0032  1.2393
 7692TIP3   OH223028   5.851   7.006   3.226 -0.3217 -0.0971  0.1218
 7692TIP3    H123029   5.791   6.956   3.280  2.0809 -2.2452  0.9159
 7692TIP3    H223030   5.894   7.066   3.287 -0.4860  0.3112 -0.1561
 7693TIP3   OH223031   2.962   5.361   4.791  0.2237  0.1221 -0.0698
 7693TIP3    H123032   2.993   5.327   4.707  0.6253 -0.0368  0.1420
 7693TIP3    H223033   2.997   5.300   4.856 -0.7710 -0.2229  0.1535
 7694TIP3   OH223034   4.008   4.186   2.422  0.2694 -0.2864 -0.4801
 7694TIP3    H123035   4.066   4.157   2.350  0.6911  1.9232 -1.0560
 7694TIP3    H223036   3.922   4.194   2.381  0.2766 -0.1233 -0.4608
 7695TIP3   OH223037   5.118   5.539   3.394  0.3297  0.0949  0.0115
 7695TIP3    H123038   5.139   5.497   3.310  0.2883  0.0858  0.0055
 7695TIP3    H223039   5.053   5.605   3.372 -0.3214 -0.4806  0.1601
 7696TIP3   OH223040   5.835   5.309   2.639 -0.5177  0.5393 -0.2280
 7696TIP3    H123041   5.911   5.351   2.679 -1.0354  0.8694  0.4311
 7696TIP3    H223042   5.854   5.215   2.644  0.8473  0.6908 -2.1193
 7697TIP3   OH223043   1.933   6.640   4.092  0.4676 -0.2995  0.7742
 7697TIP3    H123044   1.928   6.587   4.012  1.9685 -2.5703  2.1275
 7697TIP3    H223045   1.995   6.594   4.148 -0.3759  1.3636  3.1817
 7698TIP3   OH223046   3.217   4.921   2.253 -0.2907 -0.5127  0.3477
 7698TIP3    H123047   3.194   4.983   2.184  1.7302  0.6050  0.6253
 7698TIP3    H223048   3.230   4.975   2.331  0.3377 -1.4012  0.8740
 7699TIP3   OH223049   7.367   4.584   1.247  0.3823  0.0710  0.1593
 7699TIP3    H123050   7.325   4.658   1.292  0.3294 -0.1716  0.5066
 7699TIP3    H223051   7.456   4.583   1.281  0.3627 -0.0724  0.2050
 7700TIP3   OH223052   3.660   6.097   2.759 -0.2257  0.0933  0.4123
 7700TIP3    H123053   3.717   6.143   2.697  1.0570 -0.6498  1.0187
 7700TIP3    H223054   3.614   6.033   2.706  1.1196 -0.7683  0.2748
 7701TIP3   OH223055   6.880   6.974   4.712  0.4148  0.2709  0.0699
 7701TIP3    H123056   6.971   6.980   4.741  0.0601  0.3112  1.1646
 7701TIP3    H223057   6.840   6.911   4.771 -0.5683  1.1185  0.3188
 7702TIP3   OH223058   3.999   6.378   4.644  0.0162  0.0622  0.1370
 7702TIP3    H123059   4.087   6.347   4.622 -0.3206 -0.9107  0.1688
 7702TIP3    H223060   3.978   6.336   4.727 -0.8914 -0.5334 -0.3850
 7703TIP3   OH223061   6.402   4.865   5.109 -0.4028  0.0269  0.3891
 7703TIP3    H123062   6.474   4.842   5.050 -0.4158 -0.8309  0.7039
 7703TIP3    H223063   6.404   4.960   5.112  0.3015  0.0371 -0.1298
 7704TIP3   OH223064   5.477   5.618   1.686 -0.6089  0.0293  0.1238
 7704TIP3    H123065   5.452   5.701   1.726 -2.1703  0.3280 -1.3773
 7704TIP3    H223066   5.415   5.555   1.723 -0.6255 -0.1085 -0.1365
 7705TIP3   OH223067   6.652   6.008   0.965 -0.5745 -0.0753  0.6514
 7705TIP3    H123068   6.625   5.923   0.932  0.1514  0.3856 -1.2016
 7705TIP3    H223069   6.735   5.992   1.011 -0.1731 -0.3025 -0.1409
 7706TIP3   OH223070   3.926   4.853   3.760 -0.2054  0.2698 -0.6624
 7706TIP3    H123071   3.930   4.915   3.687  2.3927  0.5345 -0.3478
 7706TIP3    H223072   4.018   4.831   3.777 -1.0535 -3.3737 -0.5032
 7707TIP3   OH223073   4.145   6.162   3.423  0.2122  0.0526 -0.6183
 7707TIP3    H123074   4.196   6.242   3.432 -1.0107  0.5800  2.1018
 7707TIP3    H223075   4.119   6.160   3.330  1.8476  1.7784 -1.1441
 7708TIP3   OH223076   6.600   3.513   2.173  0.4459 -0.2120  0.3773
 7708TIP3    H123077   6.589   3.605   2.151 -1.2139 -0.8706 -1.8916
 7708TIP3    H223078   6.566   3.504   2.262 -1.2921  1.0250 -0.1411
 7709TIP3   OH223079   3.393   4.632   4.321 -0.1838 -0.6769  0.3998
 7709TIP3    H123080   3.347   4.580   4.254 -2.4704 -0.0470  1.4295
 7709TIP3    H223081   3.347   4.613   4.402  2.8242 -1.7244  1.9127
 7710TIP3   OH223082   2.374   6.141   3.931 -0.5307 -0.2643  0.0555
 7710TIP3    H123083   2.458   6.145   3.976 -1.1519  0.0604  1.2046
 7710TIP3    H223084   2.331   6.063   3.966 -1.1736  0.2010  0.3206
 7711TIP3   OH223085   4.414   6.010   2.970 -0.5200  0.5441  0.4073
 7711TIP3    H123086   4.488   5.966   3.013 -0.1589  0.5710 -0.1876
 7711TIP3    H223087   4.421   5.983   2.878 -1.2496  0.5462  0.3539
 7712TIP3   OH223088   5.108   0.187   4.641  0.4007  0.4628  0.4900
 7712TIP3    H123089   5.062   0.204   4.559 -0.1942  1.8207  1.0783
 7712TIP3    H223090   5.104   0.092   4.653 -2.4910  0.5445  0.6523
 7713TIP3   OH223091   3.825   5.690   5.365  0.1153  0.3129 -0.0761
 7713TIP3    H123092   3.819   5.785   5.358  1.5501  0.4026 -0.2962
 7713TIP3    H223093   3.893   5.675   5.431  0.1091 -0.5616 -0.2589
 7714TIP3   OH223094   7.319   0.081   5.449 -0.1286 -0.2584 -0.4183
 7714TIP3    H123095   7.350   0.065   5.538  1.2137 -0.4699 -0.9170
 7714TIP3    H223096   7.263   0.159   5.457  1.9733  1.2383  0.1968
 7715TIP3   OH223097   4.598   5.685   0.400  0.6335 -0.6298  0.3803
 7715TIP3    H123098   4.527   5.640   0.355 -0.0761  0.1149  0.7284
 7715TIP3    H223099   4.597   5.774   0.364  1.3336 -0.5959  0.4448
 7716TIP3   OH223100   6.688   6.599   4.853  0.0406 -0.1707 -0.3944
 7716TIP3    H123101   6.716   6.690   4.860  3.1728 -0.9680 -1.4796
 7716TIP3    H223102   6.710   6.574   4.763 -1.3652 -1.8170 -0.3056
 7717TIP3   OH223103   6.160   1.510   3.831 -0.4729  0.0762 -0.6007
 7717TIP3    H123104   6.155   1.601   3.803  0.9049 -0.0174 -1.1812
 7717TIP3    H223105   6.128   1.511   3.921 -0.5617  1.1115 -0.6389
 7718TIP3   OH223106   5.269   6.784   3.177  0.2003  0.3645  0.1135
 7718TIP3    H123107   5.258   6.710   3.116  0.0135  1.9103 -1.7855
 7718TIP3    H223108   5.252   6.862   3.123 -1.0692  1.7413  2.4135
 7719TIP3   OH223109   2.618   6.841   3.730 -0.1680 -0.1685  0.2462
 7719TIP3    H123110   2.627   6.869   3.821 -2.6274 -1.8725  1.0760
 7719TIP3    H223111   2.622   6.922   3.679 -0.2875  0.9682  2.0097
 7720TIP3   OH223112   0.707   4.186   2.913 -0.1363 -0.0847  0.0900
 7720TIP3    H123113   0.677   4.255   2.852  0.1410  0.4519  0.5562
 7720TIP3    H223114   0.768   4.231   2.971  0.9636 -0.9940 -0.3431
 7721TIP3   OH223115   7.106   0.115   3.489  0.5700 -0.5506 -0.6739
 7721TIP3    H123116   7.043   0.066   3.438 -0.1741  0.6083 -0.8821
 7721TIP3    H223117   7.053   0.164   3.552  1.3326 -0.4128 -0.1322
 7722TIP3   OH223118   5.246   6.554   3.023  0.1185 -0.0324 -0.8134
 7722TIP3    H123119   5.235   6.521   2.934  1.5582 -1.9074 -0.3324
 7722TIP3    H223120   5.233   6.478   3.079 -0.4051  1.0443  0.5626
 7723TIP3   OH223121   3.668   6.190   3.904  0.6894 -0.1811 -0.6008
 7723TIP3    H123122   3.759   6.218   3.907  1.1298 -1.5864 -0.5767
 7723TIP3    H223123   3.666   6.118   3.842 -0.6318  0.5762 -1.4852
 7724TIP3   OH223124   5.136   6.967   2.431  0.0265  0.0916  0.1901
 7724TIP3    H123125   5.108   7.040   2.377 -0.8375  0.3937  1.0409
 7724TIP3    H223126   5.104   6.889   2.385  0.4880  0.2664 -0.4376
 7725TIP3   OH223127   5.773   5.554   2.528  0.2231 -0.1922 -0.1964
 7725TIP3    H123128   5.835   5.551   2.601  1.0134  1.2577 -0.7861
 7725TIP3    H223129   5.745   5.463   2.516  0.3401 -0.5005  1.6809
 7726TIP3   OH223130   3.297   5.621   5.016  0.2737 -0.4329 -0.3573
 7726TIP3    H123131   3.211   5.657   4.993 -0.1364 -1.7619 -0.9332
 7726TIP3    H223132   3.297   5.617   5.112  0.5725  1.6729 -0.2444
 7727TIP3   OH223133   3.732   4.939   6.325  0.5538  0.1927  0.1842
 7727TIP3    H123134   3.684   5.016   6.354  0.3173 -0.0514  0.4530
 7727TIP3    H223135   3.739   4.884   6.404  0.4503 -0.1958 -0.0751
 7728TIP3   OH223136   3.969   5.376   3.206  0.3560  0.6692  0.0314
 7728TIP3    H123137   3.886   5.392   3.252 -0.4680 -0.3178 -1.0729
 7728TIP3    H223138   4.036   5.415   3.262 -1.0036  2.8903  0.1815
 7729TIP3   OH223139   6.079   6.148   4.265  0.6712 -0.0497  0.3235
 7729TIP3    H123140   6.022   6.106   4.329  0.7074 -0.4084  0.1248
 7729TIP3    H223141   6.070   6.242   4.282 -0.8308 -0.0441 -0.4140
 7730TIP3   OH223142   3.880   7.471   4.056 -0.4138 -0.0197  0.2839
 7730TIP3    H123143   3.904   7.417   3.981 -1.4492 -1.2977  0.8483
 7730TIP3    H223144   3.786   7.455   4.067 -0.3971  0.6705  1.4344
 7731TIP3   OH223145   5.730   7.091   2.672  0.4719  0.4321 -0.2811
 7731TIP3    H123146   5.702   7.097   2.764  0.8800 -0.1744 -0.1148
 7731TIP3    H223147   5.673   7.153   2.626 -1.3105 -0.9123  0.0200
 7732TIP3   OH223148   5.885   0.603   3.067  0.2532 -0.2322 -0.1513
 7732TIP3    H123149   5.900   0.695   3.086 -0.0626 -0.3291  0.5633
 7732TIP3    H223150   5.964   0.558   3.097 -0.0122 -0.3170  0.4201
 7733TIP3   OH223151   4.500   5.269   3.159  0.7008  0.0518 -0.0720
 7733TIP3    H123152   4.568   5.293   3.222  0.0135 -1.6110  1.3800
 7733TIP3    H223153   4.436   5.219   3.212 -0.0715 -1.0760 -2.0183
 7734TIP3   OH223154   4.224   5.031   3.544  0.1486 -0.3447 -0.2731
 7734TIP3    H123155   4.284   4.977   3.492 -1.7556 -1.9158 -0.8886
 7734TIP3    H223156   4.242   5.005   3.635 -0.6120 -1.9180 -0.5462
 7735TIP3   OH223157   4.204   4.950   2.428 -0.0982 -0.2430 -0.0403
 7735TIP3    H123158   4.224   5.043   2.432 -0.7151 -0.1581  1.2322
 7735TIP3    H223159   4.204   4.929   2.334 -0.7733  1.1999 -0.3666
 7736TIP3   OH223160   4.838   6.214   3.907  0.3564  0.2285  0.0219
 7736TIP3    H123161   4.743   6.221   3.899  0.4783  0.4576 -1.3661
 7736TIP3    H223162   4.853   6.126   3.943 -0.4160  0.6016  1.2975
 7737TIP3   OH223163   2.933   7.096   3.859  0.1614  0.4344 -0.2604
 7737TIP3    H123164   2.885   7.029   3.907  0.6170 -1.2420 -2.0716
 7737TIP3    H223165   3.021   7.095   3.897 -0.3487  1.3205  0.9574
 7738TIP3   OH223166   5.095   7.196   5.673  0.4613 -0.0123 -0.3991
 7738TIP3    H123167   5.124   7.134   5.740  0.3894 -0.8798 -1.1663
 7738TIP3    H223168   5.024   7.152   5.628 -1.0220  1.4823  0.4278
 7739TIP3   OH223169   5.934   0.987   3.815  0.5091  0.3454  0.2058
 7739TIP3    H123170   5.960   1.000   3.906  1.7385 -0.6285  0.0212
 7739TIP3    H223171   5.979   1.056   3.766 -0.5555  1.1820  0.3833
 7740TIP3   OH223172   4.816   6.447   2.368  0.9842 -0.0141  0.0090
 7740TIP3    H123173   4.896   6.406   2.400  0.4742 -0.3230  0.9064
 7740TIP3    H223174   4.750   6.377   2.369  1.2499 -0.3748 -2.9490
 7741TIP3   OH223175   4.177   4.735   3.790  0.4335  0.6595  0.4096
 7741TIP3    H123176   4.259   4.784   3.794  0.3927  0.6858  0.8493
 7741TIP3    H223177   4.204   4.643   3.789  0.5042  0.6836 -0.2871
 7742TIP3   OH223178   5.102   5.926   3.337  0.5826  0.6206  0.7471
 7742TIP3    H123179   5.037   5.995   3.323 -0.9741 -1.6175 -4.4486
 7742TIP3    H223180   5.064   5.872   3.407 -1.2772  1.5234  0.4733
 7743TIP3   OH223181   7.331   0.587   3.358  0.1284 -0.2367 -0.1800
 7743TIP3    H123182   7.376   0.513   3.319  3.6479  0.6806  1.9557
 7743TIP3    H223183   7.301   0.556   3.443 -1.2142 -0.1007 -0.5777
 7744TIP3   OH223184   4.056   4.177   0.597 -0.5063  0.1129  0.1300
 7744TIP3    H123185   4.015   4.261   0.579  1.0157  0.6304 -0.9930
 7744TIP3    H223186   4.148   4.189   0.575  0.3716 -0.9186  2.9623
 7745TIP3   OH223187   4.189   5.509   1.762  0.0390  0.0627  0.3596
 7745TIP3    H123188   4.272   5.543   1.727 -0.2458  0.0262 -0.3516
 7745TIP3    H223189   4.172   5.430   1.711 -0.0467 -0.3485  1.0273
 7746TIP3   OH223190   5.798   0.083   6.180  0.2299  0.0780 -0.3218
 7746TIP3    H123191   5.797   0.002   6.231 -0.9626 -0.3958 -1.0666
 7746TIP3    H223192   5.708   0.116   6.186  1.1096  2.2913  1.4498
 7747TIP3   OH223193   3.203   5.515   4.312 -0.5462 -0.1465 -0.3313
 7747TIP3    H123194   3.285   5.565   4.318 -0.3609 -0.6858  2.4350
 7747TIP3    H223195   3.135   5.577   4.336 -0.6643 -0.3699 -0.0841
 7748TIP3   OH223196   7.013   0.683   2.480  0.0336  0.3943  0.0648
 7748TIP3    H123197   7.040   0.611   2.423 -0.4089  1.0283 -0.9684
 7748TIP3    H223198   7.022   0.648   2.569  3.1905  0.2241 -0.2729
 7749TIP3   OH223199   5.538   6.797   0.954 -0.3968  0.3430  0.0697
 7749TIP3    H123200   5.497   6.883   0.964  0.2644  1.0997 -3.1423
 7749TIP3    H223201   5.632   6.816   0.948 -0.3445 -0.4636 -1.9710
 7750TIP3   OH223202   0.285   0.887   5.632  0.2816 -0.2406  0.5428
 7750TIP3    H123203   0.248   0.815   5.580 -0.7780  0.0175  0.9193
 7750TIP3    H223204   0.342   0.933   5.571 -2.1896  1.0131 -0.9003
 7751TIP3   OH223205   6.370   4.399   4.751 -0.1435 -0.4678 -0.2260
 7751TIP3    H123206   6.433   4.455   4.706 -0.8098 -0.7565 -1.5231
 7751TIP3    H223207   6.300   4.459   4.778 -0.4344 -0.5222 -0.8462
 7752TIP3   OH223208   4.086   6.911   3.907 -0.2438  0.0749  0.4201
 7752TIP3    H123209   4.065   6.819   3.916  0.1191 -0.0818 -0.2732
 7752TIP3    H223210   4.011   6.957   3.944 -1.3481 -0.4800 -1.1029
 7753TIP3   OH223211   3.728   5.128   3.433  0.2604  0.2184 -0.4493
 7753TIP3    H123212   3.815   5.125   3.472 -1.0746  1.1224  2.7069
 7753TIP3    H223213   3.692   5.041   3.448  0.2719  0.1186 -0.9802
 7754TIP3   OH223214   5.095   6.665   3.565 -0.2775  0.3809 -0.5228
 7754TIP3    H123215   5.127   6.584   3.525 -1.6258 -0.8784  0.8442
 7754TIP3    H223216   5.094   6.729   3.494  0.4503 -0.9092 -1.7199
 7755TIP3   OH223217   4.579   5.128   3.630  0.2222  1.3236 -0.0296
 7755TIP3    H123218   4.654   5.105   3.686 -0.3444 -0.8923 -0.1203
 7755TIP3    H223219   4.610   5.113   3.541 -0.3965  0.0184 -0.0542
 7756TIP3   OH223220   5.168   5.908   4.817 -0.0018 -0.4356  0.0251
 7756TIP3    H123221   5.248   5.914   4.765  1.1579  2.0431  2.0360
 7756TIP3    H223222   5.131   5.996   4.815 -2.1446 -1.2987  0.0192
 7757TIP3   OH223223   3.874   5.333   3.689  0.3660  0.0384  0.2447
 7757TIP3    H123224   3.891   5.300   3.777  1.8427  1.1247  0.3979
 7757TIP3    H223225   3.783   5.363   3.691 -0.1880 -1.6245  0.8465
 7758TIP3   OH223226   1.210   6.153   4.869  0.1198 -0.5008  0.0343
 7758TIP3    H123227   1.303   6.161   4.890  0.0179  1.7318 -0.2159
 7758TIP3    H223228   1.198   6.205   4.790 -1.1479 -1.6908 -0.5870
 7759TIP3   OH223229   5.781   5.214   5.004  0.0683 -0.1899  0.2962
 7759TIP3    H123230   5.705   5.156   5.014  1.2012 -1.5057  1.4363
 7759TIP3    H223231   5.794   5.252   5.091  0.8060 -0.0825  0.1407
 7760TIP3   OH223232   1.962   6.425   3.573 -0.1648 -0.0416  0.4426
 7760TIP3    H123233   1.901   6.487   3.533 -1.7108  0.0104  2.7912
 7760TIP3    H223234   2.014   6.478   3.633  0.6074 -0.5086  0.2017
 7761TIP3   OH223235   5.313   5.421   3.166 -0.2813  0.1136  0.1295
 7761TIP3    H123236   5.376   5.416   3.238 -0.3782  0.6157  0.2561
 7761TIP3    H223237   5.362   5.393   3.089 -0.2203 -0.5809  0.4180
 7762TIP3   OH223238   4.938   6.123   3.304  0.2622  0.1065 -0.1309
 7762TIP3    H123239   4.929   6.165   3.218  1.5420  0.7133  0.0330
 7762TIP3    H223240   4.923   6.193   3.367 -1.0891 -0.4235  0.1616
 7763TIP3   OH223241   4.937   5.053   4.420  0.3563  0.3732  0.3901
 7763TIP3    H123242   4.984   5.134   4.438 -0.0912  0.0749  3.2859
 7763TIP3    H223243   4.851   5.067   4.460 -0.8917 -0.2909 -2.0086
 7764TIP3   OH223244   4.139   4.438   5.634  0.3389 -0.1979  0.1215
 7764TIP3    H123245   4.087   4.448   5.554 -0.4398  2.6704  0.9354
 7764TIP3    H223246   4.144   4.344   5.647 -0.0410 -0.7204 -2.9629
 7765TIP3   OH223247   5.533   7.256   3.400 -0.3503 -0.1051  0.2592
 7765TIP3    H123248   5.466   7.188   3.413 -0.8179 -0.2231 -2.6089
 7765TIP3    H223249   5.569   7.269   3.488 -1.0597 -3.2211  1.1057
 7766TIP3   OH223250   4.221   6.400   3.619 -0.0759  0.3070  0.0793
 7766TIP3    H123251   4.136   6.383   3.661  0.7118  0.2794  1.6906
 7766TIP3    H223252   4.242   6.490   3.642 -0.4275  0.8714 -1.7116
 7767TIP3   OH223253   5.107   5.727   4.358 -0.0781 -0.4658  0.2234
 7767TIP3    H123254   5.034   5.684   4.403 -1.3159 -0.4452 -1.7048
 7767TIP3    H223255   5.184   5.675   4.383 -1.0019 -1.5282  0.9207
 7768TIP3   OH223256   3.380   5.134   3.056  0.2565 -0.3280 -0.2863
 7768TIP3    H123257   3.474   5.141   3.073  0.3411  0.0588 -0.9187
 7768TIP3    H223258   3.339   5.154   3.140  0.7104  0.4294 -0.2426
 7769TIP3   OH223259   7.416   3.306   1.567  0.4394 -0.8181  0.3044
 7769TIP3    H123260   7.331   3.262   1.568  0.0064 -0.0165 -1.1624
 7769TIP3    H223261   7.472   3.250   1.514  0.7128 -1.0983  0.8761
 7770TIP3   OH223262   4.298   3.073   3.829 -0.1078  1.0767  0.1127
 7770TIP3    H123263   4.383   3.060   3.787 -0.1588  1.4964 -0.1251
 7770TIP3    H223264   4.284   3.167   3.826 -1.4458  0.8509 -1.5483
 7771TIP3   OH223265   5.387   3.676   6.199  0.6128  0.6109 -0.4238
 7771TIP3    H123266   5.433   3.607   6.150 -0.5806 -0.4919 -0.0558
 7771TIP3    H223267   5.398   3.755   6.146  2.0113  0.1298 -0.8578
 7772TIP3   OH223268   4.754   5.754   5.391 -0.4081  0.2512 -0.3450
 7772TIP3    H123269   4.741   5.718   5.479 -1.3534 -0.0617 -0.6102
 7772TIP3    H223270   4.699   5.832   5.388 -1.4718 -0.5191 -1.1300
 7773TIP3   OH223271   1.483   5.070   5.695  0.5451  0.7571 -0.5885
 7773TIP3    H123272   1.446   5.158   5.700  1.0695  0.9831 -0.5972
 7773TIP3    H223273   1.488   5.040   5.785 -2.1414 -0.3408 -0.7445
 7774TIP3   OH223274   4.329   5.790   4.289  0.2106 -0.2506  0.3258
 7774TIP3    H123275   4.256   5.771   4.230 -0.1889 -0.7576  0.9824
 7774TIP3    H223276   4.288   5.811   4.373  0.8093 -0.3828  0.6576
 7775TIP3   OH223277   7.468   0.437   2.220  0.1392 -0.1634 -0.7872
 7775TIP3    H123278   7.443   0.427   2.128  0.9573  1.2593 -1.1859
 7775TIP3    H223279   7.447   0.528   2.241  1.5940  0.0242 -0.0922
 7776TIP3   OH223280   1.090   6.388   4.128  0.6467  0.0272  0.3706
 7776TIP3    H123281   1.036   6.310   4.119 -0.5191  1.0205 -1.6012
 7776TIP3    H223282   1.161   6.375   4.065 -0.0023  0.8947 -0.5631
 7777TIP3   OH223283   2.979   5.357   0.451  1.0918  0.1015 -0.2453
 7777TIP3    H123284   2.910   5.330   0.391  0.9459 -3.4046  1.4206
 7777TIP3    H223285   2.935   5.412   0.516  0.9154  2.3482 -2.2237
 7778TIP3   OH223286   3.451   4.594   3.121  0.2467  0.2967 -0.4695
 7778TIP3    H123287   3.388   4.575   3.191  2.4040  0.1920  1.4957
 7778TIP3    H223288   3.420   4.677   3.084  1.0038  2.2264  2.9566
 7779TIP3   OH223289   1.600   6.453   5.226 -0.5058  0.2472  0.7477
 7779TIP3    H123290   1.653   6.497   5.292  0.7450  0.5356 -0.4309
 7779TIP3    H223291   1.517   6.500   5.227 -0.7353 -0.1489  2.5478
 7780TIP3   OH223292   5.366   7.058   3.469  0.6511  0.6071 -0.6343
 7780TIP3    H123293   5.383   6.965   3.460  0.3753  0.2330  2.1780
 7780TIP3    H223294   5.295   7.077   3.408  0.6379 -1.0235 -1.1336
 7781TIP3   OH223295   4.784   7.248   1.942 -0.5636  0.6909  0.4849
 7781TIP3    H123296   4.877   7.259   1.921 -0.8114 -0.2884 -1.2056
 7781TIP3    H223297   4.740   7.247   1.857 -2.1958  1.7214  1.2992
 7782TIP3   OH223298   2.856   5.903   4.326 -0.3002 -0.6077  0.1407
 7782TIP3    H123299   2.913   5.868   4.257  0.5232  0.8035  0.0891
 7782TIP3    H223300   2.767   5.887   4.294  0.0443  1.3775 -2.0046
 7783TIP3   OH223301   5.553   5.712   3.318  0.4750  0.4527 -0.0853
 7783TIP3    H123302   5.631   5.678   3.361 -1.0388 -1.3666  1.2798
 7783TIP3    H223303   5.485   5.709   3.385 -1.2515  0.1897 -1.8037
 7784TIP3   OH223304   4.981   5.997   2.380  0.0077 -0.6389 -0.2644
 7784TIP3    H123305   4.968   5.978   2.473  0.2097  1.0477  0.1222
 7784TIP3    H223306   5.054   5.941   2.354 -1.2817 -2.5365  0.1077
 7785TIP3   OH223307   7.472   1.227   3.673  0.4665 -0.1618 -0.6200
 7785TIP3    H123308   7.451   1.318   3.691 -0.1795 -0.8185  2.1653
 7785TIP3    H223309   7.548   1.208   3.728  0.0099 -1.5718 -0.4532
 7786TIP3   OH223310   3.590   5.438   4.017  0.1263 -0.2510  0.1891
 7786TIP3    H123311   3.571   5.399   3.932 -1.0903  0.8105 -0.0483
 7786TIP3    H223312   3.646   5.374   4.062  1.7745 -0.2821 -1.8590
 7787TIP3   OH223313   5.075   7.188   2.629 -0.2628  0.6858  0.4823
 7787TIP3    H123314   5.076   7.277   2.663  1.0951  0.7250  0.3824
 7787TIP3    H223315   5.067   7.199   2.534  0.8955  0.7561  0.3775
 7788TIP3   OH223316   5.895   6.834   1.792  0.1935 -0.7365 -0.3682
 7788TIP3    H123317   5.966   6.878   1.839 -2.9623  2.5461  1.5724
 7788TIP3    H223318   5.900   6.869   1.703  2.3342 -2.2876 -0.9202
 7789TIP3   OH223319   3.855   5.441   0.958  0.3138 -0.0100  0.6132
 7789TIP3    H123320   3.898   5.481   0.883 -0.2856 -0.6380 -0.0668
 7789TIP3    H223321   3.785   5.387   0.921  1.0876 -1.6730  1.4948
 7790TIP3   OH223322   2.291   6.578   5.240 -0.0233 -0.4055 -0.3823
 7790TIP3    H123323   2.372   6.529   5.223 -0.1674 -1.3774  1.6082
 7790TIP3    H223324   2.221   6.517   5.216 -0.2152  0.7885 -3.0653
 7791TIP3   OH223325   7.360   5.856   3.500  0.1459  0.5160  0.3464
 7791TIP3    H123326   7.330   5.893   3.584  0.5825  0.0756  0.6959
 7791TIP3    H223327   7.419   5.785   3.525  1.1427  1.0904 -0.3405
 7792TIP3   OH223328   3.195   5.491   1.336  0.2708 -0.7313  0.0143
 7792TIP3    H123329   3.272   5.525   1.291  0.6979 -1.2230  0.3622
 7792TIP3    H223330   3.145   5.568   1.360  1.1461 -0.3597  0.6589
 7793TIP3   OH223331   5.940   5.487   1.951 -0.5499  0.2205 -0.0397
 7793TIP3    H123332   5.998   5.430   1.901 -0.1120  0.8016 -0.2004
 7793TIP3    H223333   5.857   5.484   1.904 -0.1263  0.8083 -0.8379
 7794TIP3   OH223334   5.724   5.341   4.266 -0.0000 -0.0374 -0.2421
 7794TIP3    H123335   5.667   5.346   4.343 -0.0998  0.1586 -0.3271
 7794TIP3    H223336   5.729   5.248   4.246  3.6022 -0.5907  2.6557
 7795TIP3   OH223337   6.123   5.478   4.056 -0.1613 -0.2211 -0.2557
 7795TIP3    H123338   6.057   5.418   4.090 -1.9728  2.6170  1.4566
 7795TIP3    H223339   6.073   5.543   4.007  1.5749  0.8561 -0.6281
 7796TIP3   OH223340   2.285   6.124   4.692  0.9200  0.0929  0.1151
 7796TIP3    H123341   2.289   6.035   4.655  0.1225 -0.1489  0.5969
 7796TIP3    H223342   2.326   6.115   4.778 -1.1562 -0.3099  1.0958
 7797TIP3   OH223343   5.222   7.073   4.609 -0.5738 -0.3501 -0.1553
 7797TIP3    H123344   5.247   7.020   4.534 -1.7139 -1.0564 -0.0429
 7797TIP3    H223345   5.201   7.159   4.572  3.0206  0.6577 -0.1449
 7798TIP3   OH223346   3.785   6.630   2.638  0.3152  0.2151 -0.1475
 7798TIP3    H123347   3.812   6.695   2.703  2.7428 -0.3118 -0.5559
 7798TIP3    H223348   3.862   6.619   2.582 -0.5719 -1.8767 -1.0071
 7799TIP3   OH223349   3.875   6.842   2.773  1.0605 -0.1833 -0.6520
 7799TIP3    H123350   3.817   6.877   2.840 -0.1544 -1.9298 -0.7429
 7799TIP3    H223351   3.896   6.917   2.717 -1.3698  0.4354 -0.7960
 7800TIP3   OH223352   4.029   4.718   5.185  0.2198 -0.0008 -0.0547
 7800TIP3    H123353   4.056   4.786   5.247 -0.4488  0.5335 -0.3437
 7800TIP3    H223354   3.970   4.763   5.124 -2.5391 -1.4771  1.4416
 7801TIP3   OH223355   5.038   5.144   3.477  0.9673  0.2127 -0.0658
 7801TIP3    H123356   5.038   5.049   3.494  0.9480  0.6191  2.3647
 7801TIP3    H223357   5.126   5.162   3.444  1.0163 -0.6222 -0.4147
 7802TIP3   OH223358   2.861   7.322   0.855 -0.4496 -0.7294  0.1445
 7802TIP3    H123359   2.835   7.287   0.940  0.8738 -0.3374  0.7377
 7802TIP3    H223360   2.816   7.406   0.848 -1.1712 -1.1200  0.1115
 7803TIP3   OH223361   3.245   6.536   4.513 -0.4819  0.2934 -0.4543
 7803TIP3    H123362   3.190   6.512   4.439  0.2708  1.0332 -1.2727
 7803TIP3    H223363   3.329   6.559   4.473  0.4667 -0.9855  0.7977
 7804TIP3   OH223364   2.874   6.991   4.126  0.0955  0.5437  0.1447
 7804TIP3    H123365   2.819   6.982   4.204  2.5385 -0.4113  1.8007
 7804TIP3    H223366   2.923   7.072   4.140 -0.3905  1.0512 -1.0207
 7805TIP3   OH223367   2.808   4.609   6.070 -0.4820  0.7607 -0.2887
 7805TIP3    H123368   2.801   4.597   6.164  0.5559  1.9820 -0.0315
 7805TIP3    H223369   2.811   4.521   6.034  3.0598  0.2088  1.1575
 7806TIP3   OH223370   4.190   7.140   4.547 -0.1413 -0.0466  0.3673
 7806TIP3    H123371   4.169   7.091   4.468 -0.0528 -0.0134  0.3219
 7806TIP3    H223372   4.125   7.113   4.611  0.4906 -0.9451  0.6321
 7807TIP3   OH223373   3.212   4.890   4.327  0.0851 -0.5891  0.0896
 7807TIP3    H123374   3.281   4.833   4.361  0.9553  0.1427 -0.3939
 7807TIP3    H223375   3.258   4.972   4.306 -0.5586 -0.7891 -2.1838
 7808TIP3   OH223376   4.272   4.584   0.040  0.2617 -0.0543  0.2454
 7808TIP3    H123377   4.180   4.596   0.063  0.0802 -1.6635  0.4011
 7808TIP3    H223378   4.320   4.594   0.122  0.2159  0.7173  0.1757
 7809TIP3   OH223379   1.415   1.145   6.120 -0.0730  0.5088  0.0788
 7809TIP3    H123380   1.410   1.212   6.052 -0.3738  0.3845 -0.0213
 7809TIP3    H223381   1.496   1.166   6.167  0.3168  0.3910 -0.5281
 7810TIP3   OH223382   6.393   6.739   2.995  0.4992 -0.2869 -0.0790
 7810TIP3    H123383   6.455   6.708   3.061 -0.8723 -0.8991  0.9457
 7810TIP3    H223384   6.314   6.688   3.011 -0.2905  0.5272 -1.3347
 7811TIP3   OH223385   7.515   0.055   5.096  0.4554  0.6316  0.3052
 7811TIP3    H123386   7.505   0.148   5.116  1.8175  0.8441  0.0827
 7811TIP3    H223387   7.543   0.016   5.178 -1.2578  0.2106  0.6957
 7812TIP3   OH223388   7.494   0.629   4.958  0.0486 -0.0567  0.4171
 7812TIP3    H123389   7.489   0.650   4.865  0.3983 -0.7743  0.2333
 7812TIP3    H223390   7.442   0.549   4.968  2.2517 -1.5404  0.3419
 7813TIP3   OH223391   3.364   6.203   3.635  0.0646  0.4187 -0.0147
 7813TIP3    H123392   3.337   6.164   3.718  0.2114  0.8106  0.2157
 7813TIP3    H223393   3.425   6.273   3.659  1.4682 -0.5925 -0.5374
 7814TIP3   OH223394   0.275   0.387   2.252 -0.2116  0.5168 -0.1294
 7814TIP3    H123395   0.322   0.470   2.246  2.2994 -0.8070  0.2653
 7814TIP3    H223396   0.302   0.350   2.336 -2.2035 -0.1864  0.2337
 7815TIP3   OH223397   7.246   1.053   4.199 -0.4349  0.1834 -0.4183
 7815TIP3    H123398   7.193   1.114   4.251 -1.4346 -1.8250  0.9982
 7815TIP3    H223399   7.198   1.045   4.116 -1.2466 -0.0144  0.0636
 7816TIP3   OH223400   4.715   4.714   4.649 -0.0419  0.4804  0.1754
 7816TIP3    H123401   4.760   4.727   4.565 -0.5918  1.3188  0.0012
 7816TIP3    H223402   4.630   4.678   4.625 -0.6758  1.8835  0.2798
 7817TIP3   OH223403   3.204   7.250   2.585  0.1744  0.5117 -0.3326
 7817TIP3    H123404   3.236   7.332   2.549 -0.6491  0.5844 -0.8945
 7817TIP3    H223405   3.152   7.211   2.515 -0.9558  0.3846  0.5653
 7818TIP3   OH223406   5.228   6.605   2.356  0.0536  0.2842 -0.5274
 7818TIP3    H123407   5.312   6.616   2.311 -0.1728 -1.4841 -1.4132
 7818TIP3    H223408   5.164   6.643   2.297 -0.1106 -1.0658 -1.2477
 7819TIP3   OH223409   4.249   3.359   3.773  0.4079 -0.5389 -0.5663
 7819TIP3    H123410   4.174   3.337   3.716  0.0132 -1.3913  0.2709
 7819TIP3    H223411   4.308   3.409   3.716 -0.4091 -0.5863 -1.4745
 7820TIP3   OH223412   6.229   3.948   2.501 -0.6200 -0.1109 -0.5215
 7820TIP3    H123413   6.156   3.889   2.483  0.1650 -1.0199 -0.7861
 7820TIP3    H223414   6.264   3.917   2.585 -2.0777  1.8898  0.8780
 7821TIP3   OH223415   6.563   5.410   4.069 -0.0948 -0.1222 -0.1184
 7821TIP3    H123416   6.577   5.402   3.975 -0.5086 -1.0537 -0.1027
 7821TIP3    H223417   6.628   5.351   4.108  1.0267  1.3098  0.2470
 7822TIP3   OH223418   3.990   5.978   2.540  0.5314  0.9903  0.1183
 7822TIP3    H123419   3.948   5.918   2.601  0.1357  0.5516 -0.5753
 7822TIP3    H223420   3.978   5.937   2.454 -0.1795  2.2833 -0.4274
 7823TIP3   OH223421   6.222   0.187   3.754 -0.0137  0.1672 -0.1042
 7823TIP3    H123422   6.194   0.151   3.670 -0.0052  1.2588 -0.5826
 7823TIP3    H223423   6.152   0.247   3.780  1.2299  1.9149 -0.6743
 7824TIP3   OH223424   5.554   4.350   2.205 -0.0753 -0.1248  0.3434
 7824TIP3    H123425   5.561   4.289   2.279 -1.0769  1.9358  2.1978
 7824TIP3    H223426   5.614   4.421   2.228 -1.7933  1.4403  0.1037
 7825TIP3   OH223427   6.703   4.753   4.603  0.6857  0.4164 -0.4079
 7825TIP3    H123428   6.752   4.827   4.637 -0.1694  0.7275  0.1669
 7825TIP3    H223429   6.761   4.678   4.614  1.5495  0.9889 -0.9830
 7826TIP3   OH223430   3.312   6.681   2.394 -0.3224  0.1867 -0.5957
 7826TIP3    H123431   3.376   6.612   2.380  0.0674  0.4131  0.0302
 7826TIP3    H223432   3.227   6.636   2.390 -0.0693 -0.3462 -0.0847
 7827TIP3   OH223433   3.037   7.230   3.079 -0.0120 -1.2865 -0.3572
 7827TIP3    H123434   3.009   7.146   3.115 -1.1507 -0.9613 -0.4691
 7827TIP3    H223435   3.043   7.214   2.984 -0.2586 -1.2398 -0.3818
 7828TIP3   OH223436   4.954   4.842   3.875  0.3537 -0.0193  0.3007
 7828TIP3    H123437   4.944   4.873   3.965 -1.8094  0.7654 -0.1609
 7828TIP3    H223438   4.905   4.760   3.873  0.2965  0.0252 -0.1809
 7829TIP3   OH223439   4.841   5.687   3.286  0.4790 -0.1626  0.6910
 7829TIP3    H123440   4.823   5.701   3.379 -0.4776  3.0886  0.0809
 7829TIP3    H223441   4.830   5.773   3.246  3.7200 -0.8701 -1.9944
 7830TIP3   OH223442   3.574   5.330   3.339 -0.2698 -0.6515 -0.2066
 7830TIP3    H123443   3.623   5.411   3.330  0.3785 -1.0544 -0.3184
 7830TIP3    H223444   3.638   5.266   3.369 -0.6695 -1.2433 -0.6001
 7831TIP3   OH223445   3.459   7.243   3.331  1.0241 -0.0765 -0.5338
 7831TIP3    H123446   3.550   7.244   3.359  0.8638  3.1654  0.0358
 7831TIP3    H223447   3.408   7.240   3.412  0.6330  0.5685 -0.7450
 7832TIP3   OH223448   4.588   5.203   4.708  0.2592  0.1926  0.0540
 7832TIP3    H123449   4.647   5.134   4.740  1.4146  0.9269 -0.4901
 7832TIP3    H223450   4.643   5.281   4.701 -0.8016  0.9104 -0.3826
 7833TIP3   OH223451   5.683   6.062   2.678 -0.7869  0.3798 -0.1267
 7833TIP3    H123452   5.649   5.977   2.651  0.5516 -0.1137 -0.2946
 7833TIP3    H223453   5.732   6.043   2.758 -1.0649  1.1133  0.2197
 7834TIP3   OH223454   5.859   1.873   3.750  0.3050  0.2819  0.1711
 7834TIP3    H123455   5.951   1.858   3.770  0.1890  0.5802  0.9226
 7834TIP3    H223456   5.847   1.834   3.663  1.6150  1.9619 -0.8061
 7835TIP3   OH223457   4.182   3.949   4.209  0.2981  0.3506 -0.2183
 7835TIP3    H123458   4.174   3.864   4.252  0.0687  0.9247  0.8963
 7835TIP3    H223459   4.145   3.935   4.122  1.6907 -1.0860 -0.6066
 7836TIP3   OH223460   4.866   6.451   5.351  0.3400 -0.2148 -0.3467
 7836TIP3    H123461   4.844   6.358   5.340 -0.8271  0.3846 -3.7923
 7836TIP3    H223462   4.895   6.479   5.264  0.3070  2.7580  0.5476
 7837TIP3   OH223463   6.292   5.844   3.737 -0.4241 -0.2241 -0.2089
 7837TIP3    H123464   6.259   5.929   3.766  0.7271  0.1335  0.0627
 7837TIP3    H223465   6.341   5.811   3.812  0.5547 -0.3648 -0.9027
 7838TIP3   OH223466   6.973   6.329   2.069 -0.0914 -0.2563  0.8707
 7838TIP3    H123467   6.947   6.316   1.978 -0.1614 -1.4064  1.0449
 7838TIP3    H223468   7.001   6.421   2.074 -2.6017  0.5674  0.3277
 7839TIP3   OH223469   5.838   5.003   3.865 -0.4392 -0.2170  0.4847
 7839TIP3    H123470   5.905   5.012   3.932 -1.0413 -1.5603  1.2926
 7839TIP3    H223471   5.771   5.067   3.890 -0.0668  0.1941  0.4292
 7840TIP3   OH223472   1.119  -0.010   2.427 -0.2631  0.1328  0.2992
 7840TIP3    H123473   1.044   0.044   2.454  0.4541  2.5010 -2.2369
 7840TIP3    H223474   1.109  -0.019   2.333  0.5773 -2.8268  0.4502
 7841TIP3   OH223475   7.633   5.685   3.583 -0.3602 -0.3557  0.2691
 7841TIP3    H123476   7.603   5.690   3.673 -2.3333 -0.2894 -0.3669
 7841TIP3    H223477   7.690   5.608   3.580  0.4794  0.1853  1.7539
 7842TIP3   OH223478   5.111   4.844   2.904 -0.0394  0.2006 -0.3483
 7842TIP3    H123479   5.088   4.793   2.982  1.4172 -1.4152 -0.9492
 7842TIP3    H223480   5.027   4.861   2.861 -0.5802 -1.5474 -0.0245
 7843TIP3   OH223481   6.281   6.206   4.014  0.2095  0.7064 -0.8016
 7843TIP3    H123482   6.356   6.192   3.956 -0.1110  0.6017 -1.1926
 7843TIP3    H223483   6.281   6.300   4.031  0.1104  0.7846 -1.2341
 7844TIP3   OH223484   5.985   7.042   2.774  0.7901  0.1828  0.0669
 7844TIP3    H123485   5.899   7.048   2.732  1.4686  0.4476 -1.3044
 7844TIP3    H223486   5.969   6.990   2.853 -0.8963  1.3602  0.5378
 7845TIP3   OH223487   6.520   7.299   2.968 -0.2425 -0.5558 -0.0324
 7845TIP3    H123488   6.548   7.340   3.050 -0.0589  1.8634 -1.2809
 7845TIP3    H223489   6.428   7.322   2.960 -0.7727 -2.4188  0.4272
 7846TIP3   OH223490   6.517   4.938   2.126  0.0403  0.5258  0.5632
 7846TIP3    H123491   6.590   4.996   2.150  0.2944  1.8086 -3.1175
 7846TIP3    H223492   6.558   4.868   2.075 -1.0933  0.3025 -0.0481
 7847TIP3   OH223493   0.471   3.573   2.226 -0.5631  0.4677 -0.5684
 7847TIP3    H123494   0.377   3.585   2.242 -0.2747 -0.2395  1.8340
 7847TIP3    H223495   0.506   3.547   2.311  1.3471 -2.1250 -2.0940
 7848TIP3   OH223496   6.180   6.321   1.171  0.6554 -0.1042 -0.0909
 7848TIP3    H123497   6.266   6.333   1.130  0.0399  1.0603 -1.0543
 7848TIP3    H223498   6.191   6.357   1.259  0.5958  1.9327 -0.8935
 7849TIP3   OH223499   7.488   0.839   1.530 -0.4177  0.0467 -0.3739
 7849TIP3    H123500   7.394   0.824   1.539 -0.4273  0.4545  0.2946
 7849TIP3    H223501   7.514   0.787   1.455 -1.0991 -0.4287 -0.2841
 7850TIP3   OH223502   0.206   0.583   2.597 -0.7926 -0.0331 -0.2785
 7850TIP3    H123503   0.117   0.570   2.565 -0.8588  0.7269 -0.4100
 7850TIP3    H223504   0.194   0.611   2.688 -0.6050 -2.2543  0.4635
 7851TIP3   OH223505   4.536   7.014   2.430  0.1906 -0.0267 -0.5496
 7851TIP3    H123506   4.492   6.952   2.488  0.4755 -0.0857 -0.3939
 7851TIP3    H223507   4.491   7.004   2.346  0.6001 -0.8543 -0.6764
 7852TIP3   OH223508   7.077   5.443   2.641  0.1537 -0.2807  0.2803
 7852TIP3    H123509   7.172   5.437   2.649 -0.0183 -0.3257  2.4352
 7852TIP3    H223510   7.044   5.406   2.723 -1.7949 -2.7203 -1.5391
 7853TIP3   OH223511   1.272   1.864   1.593 -0.1582  0.0218 -0.4014
 7853TIP3    H123512   1.177   1.858   1.585 -0.1107  0.0873 -1.0850
 7853TIP3    H223513   1.287   1.895   1.682 -0.7094 -1.7394  0.3330
 7854TIP3   OH223514   3.691   6.031   4.701  0.3828 -0.8049  0.9069
 7854TIP3    H123515   3.606   6.059   4.667  0.8803 -1.7321 -1.1377
 7854TIP3    H223516   3.674   5.948   4.745  0.2245 -1.0008  0.4788
 7855TIP3   OH223517   7.127   5.127   3.245 -0.3456 -0.3229 -0.8036
 7855TIP3    H123518   7.193   5.074   3.200  2.2928 -1.5851  4.1275
 7855TIP3    H223519   7.172   5.209   3.266  0.0016 -1.3900  3.0565
 7856TIP3   OH223520   6.784   5.372   3.630 -0.1400  0.0378 -0.0821
 7856TIP3    H123521   6.861   5.425   3.607  0.8212 -1.3119 -0.0562
 7856TIP3    H223522   6.722   5.389   3.559 -0.2232  1.9265  0.4182
 7857TIP3   OH223523   4.250   7.164   3.845 -0.0138  0.2971 -0.1325
 7857TIP3    H123524   4.235   7.201   3.758  0.6536  0.2946 -0.2542
 7857TIP3    H223525   4.196   7.086   3.848 -0.8290  0.8615 -0.1664
 7858TIP3   OH223526   7.711   6.937   0.768 -0.2020  0.4335  0.1877
 7858TIP3    H123527   7.740   6.846   0.766  1.6309  0.9441  2.0678
 7858TIP3    H223528   7.682   6.951   0.858  0.0821  1.8656  0.0642
 7859TIP3   OH223529   6.357   5.771   3.487 -0.0648  0.3517 -0.0971
 7859TIP3    H123530   6.340   5.810   3.573  0.2358  0.7904 -0.2366
 7859TIP3    H223531   6.449   5.788   3.470  0.3935 -1.4989  0.3873
 7860TIP3   OH223532   6.066   7.229   2.049 -0.0242 -0.1240  0.2907
 7860TIP3    H123533   6.058   7.223   1.954  0.4656  1.8257  0.1067
 7860TIP3    H223534   5.976   7.243   2.079 -0.2721 -1.4244  0.1929
 7861TIP3   OH223535   6.453   5.479   1.576  0.0743 -0.3650  0.0955
 7861TIP3    H123536   6.415   5.543   1.635 -0.5277 -1.1305  0.5406
 7861TIP3    H223537   6.548   5.491   1.586 -0.0251  0.8657 -0.2870
 7862TIP3   OH223538   0.948   0.736   2.083 -0.4323 -0.1059 -0.4850
 7862TIP3    H123539   1.027   0.745   2.030 -0.1485 -0.8804 -0.1962
 7862TIP3    H223540   0.928   0.643   2.082  0.7916 -0.4694  2.5065
 7863TIP3   OH223541   5.657   6.310   3.906 -0.3800 -0.2746  0.2511
 7863TIP3    H123542   5.638   6.399   3.934 -1.2430 -0.3347 -0.1395
 7863TIP3    H223543   5.629   6.255   3.980  0.3741 -0.2152  0.5903
 7864TIP3   OH223544   7.234   4.063   5.024  0.2675  1.2455  0.0592
 7864TIP3    H123545   7.144   4.030   5.033  0.5368  0.1183 -1.1401
 7864TIP3    H223546   7.251   4.108   5.106 -1.1239  0.7804  0.6282
 7865TIP3   OH223547   7.008   4.854   4.158 -0.0970 -0.2791  0.1598
 7865TIP3    H123548   7.059   4.797   4.100 -1.1311 -1.4260  0.3599
 7865TIP3    H223549   6.930   4.802   4.180 -0.8358  1.0419  0.7067
 7866TIP3   OH223550   6.816   6.201   2.425 -0.1876  0.5790  0.1540
 7866TIP3    H123551   6.753   6.148   2.474 -0.8562  0.0244 -1.2760
 7866TIP3    H223552   6.768   6.280   2.401 -0.6027 -0.1866 -1.6072
 7867TIP3   OH223553   7.666   6.184   1.283  0.1294 -0.5125 -0.0117
 7867TIP3    H123554   7.604   6.227   1.225 -0.6275 -1.4032  0.1273
 7867TIP3    H223555   7.744   6.171   1.229  0.4659  1.2709  0.0340
 7868TIP3   OH223556   1.419   0.370   2.456 -0.3752  0.6491  0.1927
 7868TIP3    H123557   1.365   0.445   2.483 -0.6737  0.8502 -0.9405
 7868TIP3    H223558   1.499   0.378   2.508 -1.8707 -0.2928  2.7523
 7869TIP3   OH223559   6.776   5.809   2.549 -0.1971  0.0161 -0.0142
 7869TIP3    H123560   6.858   5.760   2.544  0.0208  0.3202  0.5747
 7869TIP3    H223561   6.764   5.845   2.461  1.9136  2.5827  0.7141
 7870TIP3   OH223562   6.120   6.350   3.697 -0.2584  0.0334  0.4572
 7870TIP3    H123563   6.084   6.416   3.639 -0.5578  1.9943  2.7828
 7870TIP3    H223564   6.122   6.392   3.783 -0.4732 -2.9707  2.0183
 7871TIP3   OH223565   6.943   7.296   2.067  0.1443 -0.5628 -0.1553
 7871TIP3    H123566   6.870   7.243   2.100  0.8137 -1.3371  0.1045
 7871TIP3    H223567   6.970   7.349   2.141 -1.3896  1.1366 -0.7834
 7872TIP3   OH223568   5.803   6.589   2.256  0.0325  0.2204 -0.0090
 7872TIP3    H123569   5.731   6.624   2.203 -0.3524 -1.3822 -0.5844
 7872TIP3    H223570   5.863   6.550   2.192  0.6718  0.2324  0.5817
 7873TIP3   OH223571   5.891   6.443   1.367  0.7855  0.1166  0.4615
 7873TIP3    H123572   5.885   6.531   1.404  0.6715  0.7178 -0.9415
 7873TIP3    H223573   5.970   6.406   1.405  1.0931  1.0051  0.6902
 7874TIP3   OH223574   0.090   0.136   4.319  0.0827 -0.0940 -0.0588
 7874TIP3    H123575   0.135   0.063   4.361 -1.3031  0.0415  1.7489
 7874TIP3    H223576  -0.001   0.108   4.314  0.1740  0.0153 -2.8038
 7875TIP3   OH223577   7.118   6.927   1.878 -0.3878  0.4550 -0.3575
 7875TIP3    H123578   7.079   6.956   1.961 -2.0459  1.4280 -1.4466
 7875TIP3    H223579   7.210   6.953   1.885 -0.8114  1.7484  0.6379
 7876TIP3   OH223580   6.252   5.893   2.211  0.4052 -0.3580  0.3900
 7876TIP3    H123581   6.303   5.968   2.181  0.4253 -0.6310 -0.2637
 7876TIP3    H223582   6.279   5.880   2.302  2.9047 -1.6762 -0.4819
 7877TIP3   OH223583   1.212   0.351   1.765 -0.1095 -0.2308  0.1797
 7877TIP3    H123584   1.185   0.273   1.814 -1.1189 -0.0245 -0.0358
 7877TIP3    H223585   1.197   0.329   1.673  2.0980 -0.7373 -0.0890
 7878TIP3   OH223586   5.087   5.991   4.477 -0.0754 -0.4849 -0.5340
 7878TIP3    H123587   5.121   6.048   4.408  1.1257 -0.0480  0.4026
 7878TIP3    H223588   5.089   5.904   4.438  1.2842 -0.3400 -0.8255
 7879TIP3   OH223589   7.152   4.406   1.906  0.0778 -0.4402 -0.1324
 7879TIP3    H123590   7.133   4.414   1.999  0.9419 -2.2894  0.2211
 7879TIP3    H223591   7.076   4.445   1.863 -0.5648 -0.0305  1.3395
 7880TIP3   OH223592   1.323   0.212   3.331 -0.1576  0.2799  0.1320
 7880TIP3    H123593   1.363   0.298   3.324 -0.4987  0.4621  0.4003
 7880TIP3    H223594   1.257   0.221   3.400 -1.1049  0.1517 -0.7374
 7881TIP3   OH223595   6.406   5.721   3.955  0.4933  0.1279  0.1621
 7881TIP3    H123596   6.389   5.644   3.901  0.2065  0.8020 -0.7125
 7881TIP3    H223597   6.498   5.714   3.979  0.3326 -0.7742  0.5368
 7882TIP3   OH223598   7.226   4.769   5.126  0.3830  0.5044  0.0507
 7882TIP3    H123599   7.184   4.820   5.195 -1.3376  0.1655 -0.7227
 7882TIP3    H223600   7.304   4.820   5.103 -1.7026  3.2505 -1.2381
 7883TIP3   OH223601   6.701   0.833   4.501 -0.3283 -0.5016  0.3318
 7883TIP3    H123602   6.732   0.885   4.575  0.9196 -0.5277 -0.1663
 7883TIP3    H223603   6.732   0.745   4.519  1.5041 -0.1605 -1.0897
 7884TIP3   OH223604   7.657   6.209   3.361 -0.1192  0.0195 -0.2274
 7884TIP3    H123605   7.676   6.232   3.270 -0.4656 -0.5136 -0.4393
 7884TIP3    H223606   7.633   6.116   3.358 -0.6877  0.1442  0.3244
 7885TIP3   OH223607   6.252   0.319   2.375  0.5201 -0.5128 -0.1318
 7885TIP3    H123608   6.225   0.291   2.462 -2.3291 -0.5018 -0.9542
 7885TIP3    H223609   6.263   0.414   2.382 -1.7309 -0.2011 -0.2115
 7886TIP3   OH223610   4.992   6.913   1.671  0.0819 -0.9151  0.2785
 7886TIP3    H123611   5.078   6.951   1.654 -0.2415 -0.4598 -0.3766
 7886TIP3    H223612   4.931   6.986   1.660 -0.3574 -1.1496  1.1015
 7887TIP3   OH223613   4.781   6.913   2.450  0.1783  0.6522  0.2610
 7887TIP3    H123614   4.808   6.994   2.408  0.3362  0.8546  0.7442
 7887TIP3    H223615   4.689   6.926   2.471  0.6207  1.3781  1.8560
 7888TIP3   OH223616   7.195   7.367   1.631 -0.1302 -0.0691 -0.2402
 7888TIP3    H123617   7.164   7.368   1.541 -1.7568  0.3285  0.3079
 7888TIP3    H223618   7.157   7.288   1.669 -1.2874  0.9192  0.7090
 7889TIP3   OH223619   7.540   0.978   2.449  0.2036  0.2592  0.3487
 7889TIP3    H123620   7.497   1.057   2.483 -0.4886 -0.9842  2.5221
 7889TIP3    H223621   7.468   0.926   2.412  0.6265  0.5363 -0.8824
 7890TIP3   OH223622   5.883   7.178   4.556 -0.3290  0.1849 -0.3210
 7890TIP3    H123623   5.844   7.142   4.635  1.6280  2.3192  1.6942
 7890TIP3    H223624   5.948   7.112   4.529  0.0445  0.1151  0.7261
 7891TIP3   OH223625   5.267   6.120   3.464 -0.2122  0.2425  0.0889
 7891TIP3    H123626   5.193   6.075   3.423 -0.4581  0.3871  0.3760
 7891TIP3    H223627   5.249   6.116   3.558  0.2746  0.0541  0.1740
 7892TIP3   OH223628   0.291   0.064   2.418 -0.3224  0.2840  0.6421
 7892TIP3    H123629   0.254   0.142   2.461 -1.5702  0.5281 -0.7945
 7892TIP3    H223630   0.379   0.091   2.391 -1.3009  1.7696 -1.2279
 7893TIP3   OH223631   7.390   5.282   4.694 -0.0585 -0.1505 -0.1676
 7893TIP3    H123632   7.466   5.320   4.738  0.0949 -0.4923 -0.1362
 7893TIP3    H223633   7.318   5.295   4.755  0.7304 -3.3838  1.5704
 7894TIP3   OH223634   4.857   4.940   3.651  0.1494 -0.3937 -0.2184
 7894TIP3    H123635   4.901   4.902   3.727 -3.0446 -3.0961  0.4131
 7894TIP3    H223636   4.804   5.012   3.687  1.5453  0.7955 -0.5011
 7895TIP3   OH223637   0.935   0.228   2.206 -0.7131 -0.7591 -0.6436
 7895TIP3    H123638   0.907   0.249   2.117  0.5075 -0.0725 -0.8779
 7895TIP3    H223639   0.997   0.155   2.196 -0.9280 -0.9912 -0.3129
 7896TIP3   OH223640   5.671   5.589   2.080 -0.6344  0.1692  0.1970
 7896TIP3    H123641   5.621   5.534   2.140  0.1583 -0.2214  0.5060
 7896TIP3    H223642   5.740   5.532   2.046 -0.9770  0.4356 -0.9689
 7897TIP3   OH223643   6.762   4.704   3.220  0.1972 -0.4020 -0.3521
 7897TIP3    H123644   6.813   4.784   3.207  1.3237 -0.7678  1.6614
 7897TIP3    H223645   6.757   4.694   3.315 -2.5438 -1.0947 -0.5134
 7898TIP3   OH223646   7.796   0.896   2.491 -0.3242 -0.1691 -0.5076
 7898TIP3    H123647   7.701   0.908   2.486 -0.2259  0.0569 -2.1316
 7898TIP3    H223648   7.807   0.812   2.534 -1.2233  0.5080  1.1087
 7899TIP3   OH223649   5.246   6.703   4.983  0.0040 -0.3793 -0.2448
 7899TIP3    H123650   5.220   6.614   5.006  1.3472 -0.6011  0.4883
 7899TIP3    H223651   5.214   6.757   5.055  0.3649 -0.4565 -0.0271
 7900TIP3   OH223652   6.251   5.715   1.998 -0.0353  0.2036 -0.4415
 7900TIP3    H123653   6.272   5.782   2.063 -0.5938 -0.0093 -0.0440
 7900TIP3    H223654   6.157   5.725   1.983 -0.3247 -1.1902  0.3917
 7901TIP3   OH223655   6.124   6.488   2.030  0.5981 -0.0495 -0.1686
 7901TIP3    H123656   6.199   6.490   2.089  1.6037 -0.0908 -1.4223
 7901TIP3    H223657   6.162   6.495   1.942 -1.0145  2.4015 -0.7273
 7902TIP3   OH223658   6.474   6.995   4.081 -0.3016  0.1628  0.1908
 7902TIP3    H123659   6.429   7.040   4.010  0.2374 -0.6303 -0.6561
 7902TIP3    H223660   6.563   7.029   4.078  0.2944 -1.4197 -0.8825
 7903TIP3   OH223661   6.747   4.158   5.588 -0.0358 -0.0550 -0.4913
 7903TIP3    H123662   6.725   4.180   5.679 -0.2413 -1.6140 -0.1400
 7903TIP3    H223663   6.842   4.162   5.584 -0.0066 -0.3316 -0.1015
 7904TIP3   OH223664   3.719   6.555   1.770  0.5060 -0.4456 -0.4760
 7904TIP3    H123665   3.742   6.641   1.735 -1.7450 -0.0047 -0.9764
 7904TIP3    H223666   3.760   6.493   1.710  2.7427  0.2323  0.2891
 7905TIP3   OH223667   6.604   5.340   3.412  0.1140  0.1919 -0.2355
 7905TIP3    H123668   6.532   5.386   3.369  1.1085 -0.7773 -3.0658
 7905TIP3    H223669   6.581   5.248   3.406  1.1166 -0.0595 -0.2774
 7906TIP3   OH223670   5.678   4.993   0.634  0.5641 -0.0569  0.6081
 7906TIP3    H123671   5.654   5.052   0.562 -1.2479  0.7472  1.8449
 7906TIP3    H223672   5.731   5.047   0.693  2.8133 -0.9592 -0.5209
 7907TIP3   OH223673   3.654   6.213   3.448  0.5133 -0.3878 -0.3372
 7907TIP3    H123674   3.746   6.236   3.454  0.3383  0.3139 -0.3576
 7907TIP3    H223675   3.618   6.235   3.534  0.8372 -2.7779  0.4478
 7908TIP3   OH223676   4.209   1.393   6.296 -0.2062  0.4499 -0.1302
 7908TIP3    H123677   4.221   1.299   6.284 -0.7873  0.0316  2.2021
 7908TIP3    H223678   4.114   1.406   6.291 -0.2442  0.6708  1.0026
 7909TIP3   OH223679   6.527   4.975   2.653  0.6139  0.0142  0.2434
 7909TIP3    H123680   6.526   4.988   2.558 -0.0772 -0.6640  0.1584
 7909TIP3    H223681   6.604   5.025   2.683  0.9895  0.0050 -0.6949
 7910TIP3   OH223682   5.190   3.005   1.395 -0.4526 -0.6554 -0.5265
 7910TIP3    H123683   5.183   3.017   1.489 -1.0583  0.6855 -0.7396
 7910TIP3    H223684   5.278   3.036   1.373 -0.5338 -0.4128 -0.5013
 7911TIP3   OH223685   0.434   2.341   3.661 -0.1257  0.7761  0.0736
 7911TIP3    H123686   0.459   2.323   3.752 -0.8622 -0.1722  0.0866
 7911TIP3    H223687   0.517   2.360   3.617  0.6235 -1.9432  0.2173
 7912TIP3   OH223688   7.211   0.775   1.674 -0.0443 -0.4636 -0.2987
 7912TIP3    H123689   7.175   0.694   1.638  1.4201 -2.0214  1.6584
 7912TIP3    H223690   7.162   0.790   1.754  0.3312  0.0944 -0.1699
 7913TIP3   OH223691   6.062   5.155   3.905 -0.3965 -0.2228  0.0160
 7913TIP3    H123692   6.129   5.127   3.967 -0.2774 -2.4199 -1.0668
 7913TIP3    H223693   6.015   5.225   3.950  2.3773  1.0985  0.9238
 7914TIP3   OH223694   7.719   0.007   2.680  0.0113 -0.0126  0.0526
 7914TIP3    H123695   7.705   0.102   2.685 -1.2764 -0.1753 -0.3281
 7914TIP3    H223696   7.782  -0.005   2.609  0.4429  0.5712  0.3298
 7915TIP3   OH223697   6.023   3.938   2.096 -0.4154  0.0330 -0.0565
 7915TIP3    H123698   6.068   3.983   2.025 -2.6999  1.1782 -0.8186
 7915TIP3    H223699   6.029   3.845   2.074  1.5202  0.1720 -0.1500
 7916TIP3   OH223700   1.381   0.864   2.593  0.0930 -0.1966 -0.0133
 7916TIP3    H123701   1.344   0.920   2.661  0.1964 -2.6248  2.0948
 7916TIP3    H223702   1.474   0.886   2.592 -0.0729  0.5294 -0.0696
 7917TIP3   OH223703   5.983   4.237   3.067  0.0366  0.6891  0.2222
 7917TIP3    H123704   5.892   4.261   3.050  0.4135  1.3853 -0.9227
 7917TIP3    H223705   6.032   4.276   2.994  1.4044  1.4062  1.4743
 7918TIP3   OH223706   1.003   0.139   1.897 -0.3319 -0.4690 -0.3460
 7918TIP3    H123707   0.921   0.090   1.889  0.2862 -1.4376 -0.8575
 7918TIP3    H223708   1.071   0.072   1.898  0.4269  0.3007  0.6398
 7919TIP3   OH223709   7.193   0.188   1.812 -0.0197 -0.1227 -0.5420
 7919TIP3    H123710   7.146   0.124   1.759  0.5990 -0.2247 -0.9744
 7919TIP3    H223711   7.245   0.135   1.872 -1.5183 -0.0024  0.8876
 7920TIP3   OH223712   5.088   6.594   2.602 -0.0889  0.6273  0.5459
 7920TIP3    H123713   5.143   6.592   2.524  0.9533 -0.4004  1.2764
 7920TIP3    H223714   5.034   6.672   2.592  0.6398  0.9722 -0.7834
 7921TIP3   OH223715   0.806   0.140   3.468  0.4524 -0.2278  0.8897
 7921TIP3    H123716   0.847   0.140   3.381 -0.5284  1.9634  0.3756
 7921TIP3    H223717   0.727   0.088   3.457 -0.6376  1.5721 -0.0640
 7922TIP3   OH223718   6.442   6.295   1.753 -0.5342  0.0491  0.1998
 7922TIP3    H123719   6.427   6.201   1.749 -1.1291  0.0580  1.8008
 7922TIP3    H223720   6.480   6.310   1.839 -1.0733  1.3552  0.2221
 7923TIP3   OH223721   5.351   7.225   4.347  0.1964 -0.7108 -0.8598
 7923TIP3    H123722   5.423   7.252   4.404  0.2519 -1.0226 -0.7810
 7923TIP3    H223723   5.344   7.130   4.360  1.4614 -1.1017 -2.8329
 7924TIP3   OH223724   0.340   1.091   3.321 -0.5706 -0.3856 -0.3044
 7924TIP3    H123725   0.327   1.150   3.395 -2.0442 -1.1731  0.0911
 7924TIP3    H223726   0.279   1.122   3.254 -1.2670 -1.3614 -0.1377
 7925TIP3   OH223727   6.945   7.124   3.623 -0.5946 -0.3338  0.2942
 7925TIP3    H123728   7.018   7.110   3.683  0.4129  0.2778 -0.7702
 7925TIP3    H223729   6.939   7.219   3.614  0.5008 -0.4516 -2.0344
 7926TIP3   OH223730   0.328   7.147   2.837  0.4472  0.3375 -0.0719
 7926TIP3    H123731   0.381   7.067   2.841 -0.4659 -0.2907 -0.4191
 7926TIP3    H223732   0.300   7.161   2.927 -0.4246 -0.4479 -0.2091
 7927TIP3   OH223733   7.710   6.980   2.571  0.6083  0.5457  0.6673
 7927TIP3    H123734   7.623   7.021   2.573 -0.0049 -0.7518  2.5692
 7927TIP3    H223735   7.705   6.911   2.637  2.4960 -0.7924 -0.5394
 7928TIP3   OH223736   1.427   1.606   2.050 -0.5067 -0.0362  0.1121
 7928TIP3    H123737   1.358   1.599   1.984  0.2754  0.1404 -0.7318
 7928TIP3    H223738   1.469   1.520   2.049 -1.2104 -0.4082  1.1929
 7929TIP3   OH223739   6.739   4.465   3.067 -0.0533  0.1835 -0.2524
 7929TIP3    H123740   6.677   4.419   3.123 -0.5891 -0.0699 -1.0453
 7929TIP3    H223741   6.719   4.558   3.080 -0.5681  0.1048 -0.4735
 7930TIP3   OH223742   1.742   1.515   0.732  0.2539 -0.4656  0.2163
 7930TIP3    H123743   1.769   1.425   0.748  0.2422 -0.1087  2.4698
 7930TIP3    H223744   1.812   1.552   0.677  0.4972 -1.6955 -0.3140
 7931TIP3   OH223745   6.065   1.256   3.484  0.4052  0.4590 -0.5621
 7931TIP3    H123746   6.140   1.252   3.425  0.9655  1.5460  0.0658
 7931TIP3    H223747   6.103   1.254   3.572 -0.3854 -0.4530 -0.2286
 7932TIP3   OH223748   7.023   7.267   3.374  0.4081  0.0351 -0.8907
 7932TIP3    H123749   7.114   7.296   3.380 -0.5454  2.6195  2.3098
 7932TIP3    H223750   7.019   7.190   3.431  0.4753  0.2123 -0.6479
 7933TIP3   OH223751   4.237   7.423   3.352 -0.3051  0.0934  0.3290
 7933TIP3    H123752   4.167   7.481   3.322  0.2849  0.5744 -0.1289
 7933TIP3    H223753   4.208   7.335   3.328  1.8099  0.7026 -5.1578
 7934TIP3   OH223754   1.414   0.463   3.389  0.2150 -0.0837  0.1312
 7934TIP3    H123755   1.468   0.516   3.330  0.5533 -0.3649  0.1826
 7934TIP3    H223756   1.428   0.502   3.475 -1.4659  1.2832 -0.1697
 7935TIP3   OH223757   5.141   3.647   5.995 -0.2040 -0.3512  0.0514
 7935TIP3    H123758   5.177   3.658   6.083 -0.4606  1.5832 -0.0665
 7935TIP3    H223759   5.187   3.571   5.959  1.2435 -0.0218  1.1708
 7936TIP3   OH223760   5.873   7.305   3.617  0.1293 -0.0289 -0.0967
 7936TIP3    H123761   5.868   7.357   3.536  0.9024  1.0818  0.5514
 7936TIP3    H223762   5.782   7.300   3.647  0.0557  1.1340 -0.0753
 7937TIP3   OH223763   0.450   6.885   1.210 -0.4745 -0.4095  0.3230
 7937TIP3    H123764   0.430   6.805   1.161  0.5595 -0.4302 -0.0682
 7937TIP3    H223765   0.493   6.942   1.147 -0.4509  0.1399  0.8255
 7938TIP3   OH223766   5.855   4.472   6.092  0.0524 -0.1254  0.3399
 7938TIP3    H123767   5.799   4.429   6.027  1.0930 -0.2088 -0.5112
 7938TIP3    H223768   5.808   4.462   6.175 -0.0440 -2.3065  0.0395
 7939TIP3   OH223769   1.052   0.826   1.421 -0.1111 -0.5248 -0.5791
 7939TIP3    H123770   1.055   0.744   1.372 -2.0487 -2.0136  1.6493
 7939TIP3    H223771   1.135   0.830   1.468  0.2966 -0.8459 -1.2756
 7940TIP3   OH223772   4.060   5.398   4.003  0.1051  0.5995  0.0972
 7940TIP3    H123773   4.050   5.469   3.939  0.9597  1.6762  1.1099
 7940TIP3    H223774   4.123   5.433   4.066  2.4745 -2.0215 -0.7115
 7941TIP3   OH223775   7.808   1.029   2.815 -0.2534  0.3474  0.1666
 7941TIP3    H123776   7.820   1.124   2.805  0.5301  0.0347 -1.9723
 7941TIP3    H223777   7.720   1.013   2.782 -0.0437  0.1971 -0.3139
 7942TIP3   OH223778   1.255   0.356   3.016 -0.0958  0.1932 -0.0861
 7942TIP3    H123779   1.308   0.322   2.945 -0.8606 -0.8861 -0.1548
 7942TIP3    H223780   1.252   0.285   3.080  0.4749  1.1010  0.9677
 7943TIP3   OH223781   7.857   1.281   3.397 -0.5895  0.0646 -0.1584
 7943TIP3    H123782   7.833   1.190   3.416 -1.4749  0.0551 -1.2923
 7943TIP3    H223783   7.840   1.327   3.479  0.0807 -0.8198  0.4974
 7944TIP3   OH223784   5.479   6.603   2.262  0.2722  0.7200 -0.1231
 7944TIP3    H123785   5.517   6.687   2.289  1.9494  0.3462 -1.2544
 7944TIP3    H223786   5.527   6.538   2.313  0.3473  0.3195 -0.7111
 7945TIP3   OH223787   6.075   7.200   1.773 -0.0599 -0.0626  0.5365
 7945TIP3    H123788   5.988   7.209   1.736  0.3652  1.6541 -0.0834
 7945TIP3    H223789   6.134   7.220   1.701  0.8245  0.1511  1.3068
 7946TIP3   OH223790   7.224   7.245   2.342 -0.0849 -0.2770 -0.6145
 7946TIP3    H123791   7.301   7.266   2.394  1.0291  0.8943 -2.6762
 7946TIP3    H223792   7.201   7.328   2.300 -2.0124 -0.8021 -0.6412
 7947TIP3   OH223793   6.798   6.432   3.927  0.0933  0.1655 -0.0436
 7947TIP3    H123794   6.796   6.524   3.900  3.4872  0.5052  0.6040
 7947TIP3    H223795   6.813   6.435   4.021 -0.2492 -1.0652  0.0596
 7948TIP3   OH223796   5.550   3.664   6.423 -0.5907  0.5569 -0.0437
 7948TIP3    H123797   5.489   3.652   6.351 -1.2204  1.9520  0.2302
 7948TIP3    H223798   5.545   3.583   6.473  0.2402 -0.6377 -1.8350
 7949TIP3   OH223799   0.797   0.301   1.299 -0.2665  0.1765  0.1627
 7949TIP3    H123800   0.811   0.394   1.317 -3.2669  0.4529  1.4364
 7949TIP3    H223801   0.804   0.259   1.384 -1.3297 -0.3997 -0.0288
 7950TIP3   OH223802   5.526   6.072   0.535 -0.0441 -0.3198  0.4959
 7950TIP3    H123803   5.491   6.026   0.610  0.2818 -0.5610  0.4995
 7950TIP3    H223804   5.614   6.098   0.561 -0.3027  0.4911  0.5750
 7951TIP3   OH223805   6.290   4.476   3.447 -0.3994  0.2141 -0.1750
 7951TIP3    H123806   6.255   4.414   3.511 -0.8082 -1.0164 -1.5562
 7951TIP3    H223807   6.242   4.558   3.464 -0.8369 -0.2319  0.7792
 7952TIP3   OH223808   2.132   0.308   1.366 -0.1822  0.8867 -0.3914
 7952TIP3    H123809   2.044   0.293   1.333 -0.0003  0.2462 -0.5800
 7952TIP3    H223810   2.121   0.317   1.461 -0.0662 -2.1727 -0.0640
 7953TIP3   OH223811   6.765   0.069   0.435  0.2006 -0.2215 -0.1190
 7953TIP3    H123812   6.772   0.109   0.348 -0.9301 -0.1153 -0.1683
 7953TIP3    H223813   6.802  -0.018   0.424  1.0352  0.1674 -0.4469
 7954TIP3   OH223814   5.941   6.865   1.096  0.0652  0.2359  0.3490
 7954TIP3    H123815   5.869   6.904   1.146 -1.6736  0.7991 -2.4276
 7954TIP3    H223816   5.927   6.770   1.104 -1.0111  0.3377 -0.1190
 7955TIP3   OH223817   0.707   0.613   1.892  0.4675  0.2886  0.0472
 7955TIP3    H123818   0.710   0.611   1.988  0.0776  0.0990  0.0566
 7955TIP3    H223819   0.797   0.598   1.865  1.2646  3.8837  0.4323
 7956TIP3   OH223820   5.976   4.911   4.970 -0.5421  0.4487 -0.7019
 7956TIP3    H123821   5.928   4.994   4.967 -1.0563  0.1668 -0.5255
 7956TIP3    H223822   5.907   4.844   4.969 -0.1531  0.0378 -0.2864
 7957TIP3   OH223823   0.343   0.808   4.277 -0.1335 -0.2064 -0.9141
 7957TIP3    H123824   0.314   0.824   4.187 -1.2132  1.8355 -0.2499
 7957TIP3    H223825   0.267   0.830   4.331  0.7033 -0.7839  0.5389
 7958TIP3   OH223826   4.062   6.021   5.146  0.5691 -0.0519 -0.7391
 7958TIP3    H123827   3.986   5.985   5.191  0.9074 -0.8901 -0.8290
 7958TIP3    H223828   4.098   6.086   5.207 -0.0762  0.1793 -0.6026
 7959TIP3   OH223829   4.806   6.901   3.706  0.1052  0.3020  0.2832
 7959TIP3    H123830   4.893   6.901   3.747  0.3949 -2.1781 -0.2747
 7959TIP3    H223831   4.821   6.932   3.617  0.5369 -0.7475 -0.0166
 7960TIP3   OH223832   5.341   7.059   1.267  0.2440 -0.3134  0.1207
 7960TIP3    H123833   5.271   7.096   1.320  0.2675  0.0655 -0.1120
 7960TIP3    H223834   5.335   6.964   1.282  0.0665 -0.2335  0.5696
 7961TIP3   OH223835   1.829   0.220   4.456  0.2657  0.0982 -0.1607
 7961TIP3    H123836   1.838   0.298   4.401  0.4203 -0.1023 -0.4192
 7961TIP3    H223837   1.761   0.243   4.519  1.0872  0.8463  0.4636
 7962TIP3   OH223838   0.546   1.096   1.564 -0.8397 -1.0643 -0.1705
 7962TIP3    H123839   0.623   1.125   1.612 -0.0612  0.2382 -2.1688
 7962TIP3    H223840   0.478   1.160   1.586 -0.6161 -0.7298 -0.4584
 7963TIP3   OH223841   6.359   6.912   5.142  0.1228  0.5824 -0.3926
 7963TIP3    H123842   6.385   6.940   5.230  0.5275  0.9488 -0.6281
 7963TIP3    H223843   6.271   6.875   5.154  0.6899 -0.5393  0.3659
 7964TIP3   OH223844   4.927   5.655   0.101  0.1698 -0.6596 -0.1287
 7964TIP3    H123845   4.989   5.622   0.036  1.4684 -0.6318  1.0723
 7964TIP3    H223846   4.982   5.699   0.166 -1.2598  0.8771  0.0721
 7965TIP3   OH223847   0.276   6.693   4.360  0.4645  0.0365  1.0427
 7965TIP3    H123848   0.371   6.704   4.357  0.8869 -2.7574  2.4496
 7965TIP3    H223849   0.260   6.612   4.312 -0.9658 -0.6256  2.5929
 7966TIP3   OH223850   0.495   0.699   0.202 -0.1651  0.8166  0.4153
 7966TIP3    H123851   0.505   0.732   0.291  0.0586 -0.0939  0.7375
 7966TIP3    H223852   0.584   0.688   0.170 -0.2281  0.3138  0.3995
 7967TIP3   OH223853   1.054   0.659   2.802 -0.3852 -0.2993 -0.1937
 7967TIP3    H123854   1.027   0.567   2.799  0.8554 -0.7291  0.9792
 7967TIP3    H223855   1.144   0.658   2.768 -0.1410  0.3695  0.4137
 7968TIP3   OH223856   5.953   5.270   4.140  0.2655 -0.4226  0.4983
 7968TIP3    H123857   5.985   5.256   4.229 -3.1580 -1.9433  1.5791
 7968TIP3    H223858   5.863   5.300   4.151  0.1247  0.4268 -2.4480
 7969TIP3   OH223859   2.070   0.329   0.111  0.7235  0.5004 -0.2777
 7969TIP3    H123860   2.080   0.424   0.108  1.1446  0.5631  2.1852
 7969TIP3    H223861   2.147   0.295   0.066  0.2566  1.3155 -1.7178
 7970TIP3   OH223862   7.279   6.883   3.075 -0.5144  0.1343  0.0948
 7970TIP3    H123863   7.191   6.902   3.043 -0.1041  1.6134 -0.1887
 7970TIP3    H223864   7.309   6.810   3.020 -0.7324  1.0739 -1.2944
 7971TIP3   OH223865   7.720   0.282   1.101  0.0837  0.6594 -0.0288
 7971TIP3    H123866   7.634   0.245   1.081  0.6075 -1.2790  1.1007
 7971TIP3    H223867   7.772   0.264   1.022 -0.6695  2.3127 -0.9235
 7972TIP3   OH223868   0.843   1.777   5.355  0.1136  0.0141  0.6364
 7972TIP3    H123869   0.814   1.861   5.390  0.9284  0.5077  0.1298
 7972TIP3    H223870   0.879   1.730   5.430 -1.6307 -0.4625  1.2100
 7973TIP3   OH223871   3.679   0.775   2.856 -0.4611  0.8452  0.0649
 7973TIP3    H123872   3.773   0.769   2.873 -0.3061  0.4867 -0.9260
 7973TIP3    H223873   3.653   0.687   2.832 -0.7886  1.2278 -1.0010
 7974TIP3   OH223874   5.603   6.857   2.291  0.2069 -0.0943 -0.3653
 7974TIP3    H123875   5.542   6.929   2.276  0.5324  0.6382  1.6413
 7974TIP3    H223876   5.678   6.876   2.235  1.3237  2.4397  1.8827
 7975TIP3   OH223877   5.404   5.838   1.814  0.0292  0.0892 -0.2827
 7975TIP3    H123878   5.333   5.902   1.804 -0.3911  0.0036  1.9120
 7975TIP3    H223879   5.422   5.837   1.908  0.7201 -2.2996 -0.4149
 7976TIP3   OH223880   5.804   5.402   5.796  0.0698  0.2428  0.2388
 7976TIP3    H123881   5.746   5.436   5.865 -0.6600  0.1898 -0.3372
 7976TIP3    H223882   5.754   5.330   5.757  0.6881 -0.0462 -0.0191
 7977TIP3   OH223883   4.928   7.311   1.423  0.5309 -0.6223  0.0961
 7977TIP3    H123884   4.833   7.306   1.408  0.5073 -1.1626  0.3897
 7977TIP3    H223885   4.964   7.341   1.340  0.0325  0.3412  0.2140
 7978TIP3   OH223886   6.446   4.199   4.937  0.4328 -0.3791  0.2556
 7978TIP3    H123887   6.387   4.268   4.907 -1.3311 -1.4871  1.0977
 7978TIP3    H223888   6.520   4.246   4.975 -0.2798  1.0564 -0.0863
 7979TIP3   OH223889   5.805   4.443   3.080  0.0424 -0.5386 -0.2609
 7979TIP3    H123890   5.716   4.476   3.072 -0.7852 -2.3629  1.0529
 7979TIP3    H223891   5.844   4.497   3.148 -0.4629 -0.5340  0.0293
 7980TIP3   OH223892   0.278   0.447   5.090 -0.2163 -0.4102 -0.5716
 7980TIP3    H123893   0.200   0.392   5.094 -0.3175 -0.2827 -0.8060
 7980TIP3    H223894   0.245   0.537   5.093 -0.0823 -0.3555 -0.7588
 7981TIP3   OH223895   6.572   6.322   4.806 -0.3557  0.5271 -0.2971
 7981TIP3    H123896   6.632   6.387   4.843 -0.7661  0.3252  0.7365
 7981TIP3    H223897   6.628   6.263   4.755  0.3178  0.3651  0.6251
 7982TIP3   OH223898   6.373   7.310   4.420 -0.4092  0.3892  0.0154
 7982TIP3    H123899   6.415   7.343   4.341 -1.4212 -1.5271 -1.3433
 7982TIP3    H223900   6.280   7.332   4.409 -0.5326  0.2871  0.7761
 7983TIP3   OH223901   6.687   1.116   3.970  0.3645  0.2961 -0.5229
 7983TIP3    H123902   6.641   1.131   3.888  0.2972 -2.3578 -1.0000
 7983TIP3    H223903   6.628   1.060   4.021  0.9103  0.9725  0.8771
 7984TIP3   OH223904   7.166   4.188   2.665  0.2724 -0.2636  0.0358
 7984TIP3    H123905   7.179   4.103   2.624  0.6231 -1.0410  1.6951
 7984TIP3    H223906   7.072   4.198   2.673  0.2106 -0.1819 -0.7877
 7985TIP3   OH223907   6.484   6.191   3.843  0.4726  0.1797 -0.3048
 7985TIP3    H123908   6.460   6.188   3.750  1.1046  2.2407 -0.5521
 7985TIP3    H223909   6.579   6.196   3.843  0.8549 -4.3590  0.6002
 7986TIP3   OH223910   6.403   4.760   2.769  0.2520  0.2921 -0.0992
 7986TIP3    H123911   6.486   4.729   2.805  0.3339  0.2096 -0.3596
 7986TIP3    H223912   6.426   4.837   2.718 -0.1952  1.9382  2.0951
 7987TIP3   OH223913   7.655   0.539   3.901  0.5674 -0.0116  0.3678
 7987TIP3    H123914   7.608   0.614   3.866 -0.9157 -0.1027  2.0811
 7987TIP3    H223915   7.747   0.557   3.883  0.1383  1.7353 -0.1136
 7988TIP3   OH223916   4.027   6.866   4.604  0.0246 -0.0680 -0.0828
 7988TIP3    H123917   4.064   6.867   4.693  2.6438 -1.8501 -1.0929
 7988TIP3    H223918   4.038   6.776   4.575 -0.7697  0.5143 -2.2653
 7989TIP3   OH223919   5.641   6.595   5.453  0.2895 -0.3229 -0.3596
 7989TIP3    H123920   5.694   6.521   5.482  1.3858  0.3108 -0.7404
 7989TIP3    H223921   5.580   6.611   5.526  0.1853 -1.4579 -0.1970
 7990TIP3   OH223922   6.341   6.008   1.785 -0.1685  0.4789  0.5102
 7990TIP3    H123923   6.347   5.914   1.801  0.0774  0.5600  0.9033
 7990TIP3    H223924   6.354   6.048   1.871 -0.1758  0.8763  0.3285
 7991TIP3   OH223925   0.036   1.147   4.869  0.5152  0.0399  0.0859
 7991TIP3    H123926   0.007   1.059   4.894  2.1734 -1.1678 -2.1065
 7991TIP3    H223927  -0.031   1.178   4.808  0.3282 -0.0381  0.2555
 7992TIP3   OH223928   5.388   7.014   2.490  0.0223 -0.1702  0.0264
 7992TIP3    H123929   5.400   7.033   2.397  0.2754  2.7804  0.6148
 7992TIP3    H223930   5.299   6.978   2.496  0.6867 -2.1348 -1.5664
 7993TIP3   OH223931   6.440   6.960   2.200  0.2422 -0.2690  0.2065
 7993TIP3    H123932   6.464   6.913   2.120 -0.8461 -0.3724 -0.0669
 7993TIP3    H223933   6.500   6.926   2.266 -1.1315 -2.7424  0.2366
 7994TIP3   OH223934   1.903   0.588   2.778  0.9721  0.2659 -0.2697
 7994TIP3    H123935   1.830   0.562   2.835  1.3032 -0.7407 -0.2944
 7994TIP3    H223936   1.862   0.631   2.704  0.4059 -0.2165 -0.2358
 7995TIP3   OH223937   0.673   7.338   2.118  0.7114 -0.1346 -0.6641
 7995TIP3    H123938   0.586   7.308   2.144 -0.2208  2.4505 -0.5857
 7995TIP3    H223939   0.710   7.266   2.067 -2.2104 -0.5880 -2.2571
 7996TIP3   OH223940   7.405   6.949   3.728 -0.6147 -0.5617 -0.3701
 7996TIP3    H123941   7.479   7.005   3.751 -1.2156  0.3049 -0.4964
 7996TIP3    H223942   7.422   6.866   3.772  0.5536 -0.4491 -0.6060
 7997TIP3   OH223943   6.948   6.772   0.142 -0.0835 -0.3110  0.1487
 7997TIP3    H123944   6.915   6.765   0.232 -0.1090 -0.3209  0.1384
 7997TIP3    H223945   6.889   6.835   0.100  0.6296  0.5788  0.4673
 7998TIP3   OH223946   1.616   0.330   2.019 -0.2877  0.0141 -0.3341
 7998TIP3    H123947   1.616   0.421   2.048  3.4913  0.0906 -0.3614
 7998TIP3    H223948   1.572   0.283   2.090  0.0867  1.4975  0.9107
 7999TIP3   OH223949   5.359   6.152   2.233 -0.0800  0.5954  0.1270
 7999TIP3    H123950   5.393   6.063   2.241  1.7791  1.3880  1.3070
 7999TIP3    H223951   5.384   6.181   2.145  0.2539  0.3514  0.1452
 8000TIP3   OH223952   5.420   0.144   1.686  0.1210 -0.1320  0.7108
 8000TIP3    H123953   5.414   0.058   1.729  0.1459  0.6271  2.2585
 8000TIP3    H223954   5.380   0.205   1.748  0.4562  1.0481 -0.2101
 8001TIP3   OH223955   0.417   6.108   2.019 -0.0015  0.5176  0.2843
 8001TIP3    H123956   0.350   6.040   2.028  1.3937 -0.7710  1.1870
 8001TIP3    H223957   0.453   6.095   1.932 -0.5704  0.9020 -0.0157
 8002TIP3   OH223958   0.024   7.129   2.552 -0.3061  0.3068  0.0604
 8002TIP3    H123959  -0.064   7.092   2.565  0.6890 -1.5277  1.7987
 8002TIP3    H223960   0.079   7.081   2.613  1.7553  2.1012 -0.3527
 8003TIP3   OH223961   5.101   6.630   1.913  0.0483 -0.4043 -0.3973
 8003TIP3    H123962   5.021   6.681   1.926  1.3566  1.4011  0.7471
 8003TIP3    H223963   5.137   6.619   2.001  2.3421  0.9285 -1.1377
 8004TIP3   OH223964   6.886   5.960   2.911 -0.0189  0.2080  0.1534
 8004TIP3    H123965   6.909   5.930   2.999  0.6474 -2.2697 -0.8331
 8004TIP3    H223966   6.791   5.965   2.911 -0.0678 -0.6622  0.7479
 8005TIP3   OH223967   7.550   0.162   1.866  0.5501  0.2200  0.5610
 8005TIP3    H123968   7.531   0.255   1.851  1.0220  0.1990 -0.1776
 8005TIP3    H223969   7.464   0.123   1.881  0.0286  0.2434 -2.1326
 8006TIP3   OH223970   1.989   1.089   2.601 -0.7426  0.0391 -0.0541
 8006TIP3    H123971   1.923   1.159   2.599 -0.0409  0.6996 -0.4265
 8006TIP3    H223972   1.968   1.034   2.525 -0.8760  0.2349 -0.1595
 8007TIP3   OH223973   4.533   5.934   5.492  0.2714  0.4978  0.1057
 8007TIP3    H123974   4.563   5.863   5.549  1.7526 -0.8343 -2.2643
 8007TIP3    H223975   4.460   5.896   5.444  0.7555  0.7320 -0.8165
 8008TIP3   OH223976   0.855   7.062   3.013 -0.3154  0.1217  0.5100
 8008TIP3    H123977   0.876   7.151   2.985  0.8272 -0.7740 -1.6541
 8008TIP3    H223978   0.765   7.048   2.983 -0.0087  0.0824 -0.4119
 8009TIP3   OH223979   0.621   0.317   3.832 -1.1055  0.2242 -0.5547
 8009TIP3    H123980   0.673   0.292   3.908  0.9977  0.1672 -1.9667
 8009TIP3    H223981   0.572   0.238   3.809 -1.0817 -0.0185  0.2121
 8010TIP3   OH223982   6.725   5.774   1.345  0.2379 -0.3567 -0.3012
 8010TIP3    H123983   6.784   5.793   1.417  0.5400 -2.5576  0.0630
 8010TIP3    H223984   6.639   5.801   1.377  0.9112  2.2779 -0.6045
 8011TIP3   OH223985   4.833   6.567   1.589 -0.5583 -0.0840  0.0102
 8011TIP3    H123986   4.920   6.558   1.627 -0.2826  0.2307 -0.5332
 8011TIP3    H223987   4.825   6.492   1.530 -1.0199 -0.6223  0.7486
 8012TIP3   OH223988   6.419   4.302   4.383  0.5976  0.0314  0.3950
 8012TIP3    H123989   6.377   4.247   4.449  0.4211  0.2990  0.5049
 8012TIP3    H223990   6.432   4.244   4.308 -2.5285  0.6565 -0.6880
 8013TIP3   OH223991   7.260   4.863   3.894  0.0954  0.0659 -0.5441
 8013TIP3    H123992   7.182   4.845   3.947 -0.5273  2.4114 -0.6199
 8013TIP3    H223993   7.257   4.799   3.824 -1.6370 -0.0353 -0.3900
 8014TIP3   OH223994   5.200   5.613   1.422  0.1315  0.0964 -0.0897
 8014TIP3    H123995   5.294   5.633   1.419  0.0419  0.3027 -1.6005
 8014TIP3    H223996   5.196   5.517   1.430  0.4639 -0.1073 -2.1179
 8015TIP3   OH223997   2.724   1.006   2.580  0.6893 -0.5319  0.0982
 8015TIP3    H123998   2.748   1.070   2.646  0.9510 -1.6475  1.0992
 8015TIP3    H223999   2.791   1.016   2.512 -0.2287  1.4020 -0.5687
 8016TIP3   OH224000   6.120   5.360   2.611  0.2214  0.8261 -0.4423
 8016TIP3    H124001   6.162   5.280   2.641  1.4158  1.4030 -0.5628
 8016TIP3    H224002   6.147   5.369   2.520 -2.5814 -0.3899 -1.4530
 8017TIP3   OH224003   0.105   0.245   3.915  0.0331 -0.2297  0.3829
 8017TIP3    H124004   0.117   0.158   3.877  0.6568  0.6061 -1.4127
 8017TIP3    H224005   0.172   0.252   3.983 -0.0175 -1.1430  0.5347
 8018TIP3   OH224006   2.170   5.317   0.107 -0.3595 -1.0278 -0.5623
 8018TIP3    H124007   2.258   5.282   0.119  0.2394 -0.2903 -2.5772
 8018TIP3    H224008   2.145   5.289   0.020 -1.1659  0.7834 -0.9314
 8019TIP3   OH224009   6.454   6.672   5.291  0.1324  0.0695 -0.0640
 8019TIP3    H124010   6.435   6.647   5.200  0.2921  0.5750 -0.2381
 8019TIP3    H224011   6.459   6.767   5.289  1.8957 -0.0050  0.1279
 8020TIP3   OH224012   6.495   6.333   2.912  0.1686  0.4596  0.0146
 8020TIP3    H124013   6.591   6.335   2.904  0.0258 -0.5021 -2.0338
 8020TIP3    H224014   6.463   6.358   2.826 -1.4634  2.9989  1.2962
 8021TIP3   OH224015   4.360   5.929   3.700 -0.6132  0.1561 -0.2751
 8021TIP3    H124016   4.364   6.021   3.674 -0.7209  0.1991 -0.1367
 8021TIP3    H224017   4.309   5.929   3.781 -1.1361 -0.0957 -0.6039
 8022TIP3   OH224018   5.982   0.306   3.841  0.1227  0.1263 -0.4497
 8022TIP3    H124019   5.989   0.248   3.916 -0.0665  0.7259  0.0362
 8022TIP3    H224020   5.900   0.280   3.799  1.2947 -1.6604 -1.6989
 8023TIP3   OH224021   4.580   6.171   3.847 -0.2200 -0.0409 -0.2509
 8023TIP3    H124022   4.548   6.113   3.917 -0.6979  0.6140  0.0754
 8023TIP3    H224023   4.528   6.147   3.770  0.3466 -0.8045 -0.4130
 8024TIP3   OH224024   5.999   6.725   2.090  0.3481 -0.0754  0.6665
 8024TIP3    H124025   6.040   6.638   2.089 -0.2644 -0.3798  1.3665
 8024TIP3    H224026   6.051   6.775   2.153 -0.8769 -0.7261  2.2101
 8025TIP3   OH224027   7.281   1.901   2.590  1.0581  0.0309 -0.0164
 8025TIP3    H124028   7.361   1.884   2.540  1.1376 -1.2599  0.5403
 8025TIP3    H224029   7.270   1.996   2.584  2.0811  0.1100 -0.9349
 8026TIP3   OH224030   6.976   6.385   4.492 -0.1148  0.0081  0.3838
 8026TIP3    H124031   7.043   6.318   4.508 -1.4333 -1.0868  1.3851
 8026TIP3    H224032   7.013   6.438   4.421  1.6943 -0.7473  0.7199
 8027TIP3   OH224033   5.735   7.300   3.198  0.4802 -0.1829  0.2368
 8027TIP3    H124034   5.689   7.282   3.115 -1.6914  2.8895  0.6729
 8027TIP3    H224035   5.672   7.275   3.266  0.6432  1.1541  0.8936
 8028TIP3   OH224036   6.665   0.423   0.736 -0.3566 -0.5459  0.2159
 8028TIP3    H124037   6.631   0.507   0.765 -0.5181 -0.4152 -0.3538
 8028TIP3    H224038   6.712   0.389   0.812 -0.8978 -0.2708  0.6788
 8029TIP3   OH224039   7.359   0.062   3.519 -0.6864 -0.4876  0.0289
 8029TIP3    H124040   7.265   0.074   3.510 -0.4686  1.0580 -0.3437
 8029TIP3    H224041   7.369   0.006   3.596 -1.7559  2.4426  2.3815
 8030TIP3   OH224042   7.480   5.498   4.901  0.3626 -0.3430  0.4022
 8030TIP3    H124043   7.473   5.540   4.815  0.1905 -0.6480  0.2647
 8030TIP3    H224044   7.528   5.561   4.955 -2.0118  1.0765  0.8998
 8031TIP3   OH224045   6.381   3.886   5.260  0.1088  0.5441  0.4495
 8031TIP3    H124046   6.412   3.973   5.282  1.4974 -0.4902  2.7110
 8031TIP3    H224047   6.287   3.896   5.248  0.2106  2.2676  1.0204
 8032TIP3   OH224048   6.805   3.973   3.845 -0.3847  0.6192  0.4342
 8032TIP3    H124049   6.717   3.989   3.880 -0.8287  0.6549 -0.7019
 8032TIP3    H224050   6.795   3.897   3.788  0.0718  1.3518 -0.6334
 8033TIP3   OH224051   5.679   6.117   2.409  0.5622  0.4821  0.5393
 8033TIP3    H124052   5.766   6.138   2.375  1.0084  1.6782  2.3617
 8033TIP3    H224053   5.693   6.098   2.502 -1.2073  1.3671  1.0134
 8034TIP3   OH224054   6.418   6.052   2.047 -0.4075 -0.7839  0.2063
 8034TIP3    H124055   6.414   6.114   2.119 -2.8491 -1.8649  1.0339
 8034TIP3    H224056   6.505   6.065   2.009 -0.4511  2.3568  1.0346
 8035TIP3   OH224057   7.457   5.985   0.934 -0.4212  0.6150  0.5905
 8035TIP3    H124058   7.380   5.979   0.990  0.2185  0.4396  1.4649
 8035TIP3    H224059   7.422   5.985   0.845 -1.3955 -0.0657  0.9615
 8036TIP3   OH224060   5.335   7.149   2.741  0.0433 -0.4617  0.0836
 8036TIP3    H124061   5.380   7.119   2.663  0.6091 -1.1871  0.6799
 8036TIP3    H224062   5.247   7.172   2.711  0.5052  0.0495 -0.9087
 8037TIP3   OH224063   5.069   7.240   2.362 -0.4774  0.0025  0.0505
 8037TIP3    H124064   5.136   7.308   2.362 -0.3503 -0.1056 -1.3345
 8037TIP3    H224065   5.014   7.261   2.286  0.4679 -2.2927 -1.3365
 8038TIP3   OH224066   6.908   0.951   2.996 -0.3364  0.2898 -0.7134
 8038TIP3    H124067   6.994   0.982   3.026 -0.7117 -1.4498  2.3596
 8038TIP3    H224068   6.916   0.856   2.993 -2.0091  0.1317 -0.8281
 8039TIP3   OH224069   5.586   4.500   1.102  0.1577 -0.0328 -0.5686
 8039TIP3    H124070   5.660   4.472   1.156  0.9031  1.7803 -0.6179
 8039TIP3    H224071   5.594   4.448   1.022  0.3681 -1.0843  0.1239
 8040TIP3   OH224072   5.212   5.387   0.796 -0.1559  0.3474 -0.3456
 8040TIP3    H124073   5.220   5.394   0.891  0.7422  2.9144 -0.5651
 8040TIP3    H224074   5.125   5.348   0.782  0.5573 -2.0232  1.5179
 8041TIP3   OH224075   4.142   0.143   2.335  0.2521  0.2549 -0.2736
 8041TIP3    H124076   4.078   0.147   2.264 -1.3839 -0.3901  1.1325
 8041TIP3    H224077   4.156   0.049   2.349  0.2825  0.3708  0.4899
 8042TIP3   OH224078   2.289   0.134   2.377  0.5782 -0.2112  0.0082
 8042TIP3    H124079   2.289   0.148   2.282  1.2236  0.3552  0.0815
 8042TIP3    H224080   2.285   0.222   2.414 -0.6112 -0.4704  0.5159
 8043TIP3   OH224081   4.055   6.730   3.506 -0.9634 -0.1292  0.2379
 8043TIP3    H124082   4.058   6.705   3.598 -0.1064  2.6260  1.0097
 8043TIP3    H224083   3.962   6.742   3.487 -0.9979  2.2607  1.6560
 8044TIP3   OH224084   6.800   6.805   2.781  0.1540  0.3153  0.3816
 8044TIP3    H124085   6.864   6.800   2.852  1.1264  1.4781 -0.3771
 8044TIP3    H224086   6.782   6.899   2.772 -1.4006  0.0255  0.3566
 8045TIP3   OH224087   4.708   7.346   4.222  0.4219 -0.3151  0.2499
 8045TIP3    H124088   4.663   7.327   4.139 -1.0839 -1.7706  1.3539
 8045TIP3    H224089   4.702   7.441   4.231  0.7913 -0.1206 -1.4164
 8046TIP3   OH224090   7.660   5.486   3.844  0.0028  0.2419  0.0539
 8046TIP3    H124091   7.581   5.502   3.896 -0.8229  0.8217 -1.3380
 8046TIP3    H224092   7.676   5.392   3.853  0.7153  0.5671  2.4891
 8047TIP3   OH224093   7.172   6.571   3.999 -0.0970 -0.8398  0.1234
 8047TIP3    H124094   7.080   6.548   3.987 -0.0524 -0.9417 -0.0317
 8047TIP3    H224095   7.179   6.600   4.090 -0.4527 -0.0288 -0.1059
 8048TIP3   OH224096   0.469   7.360   2.635 -0.0314 -0.3186 -0.0153
 8048TIP3    H124097   0.527   7.423   2.678  0.8878 -0.8084 -0.5206
 8048TIP3    H224098   0.416   7.324   2.706  0.5399 -0.1360  0.5109
 8049TIP3   OH224099   0.591   1.077   3.163 -0.0627 -0.1820  0.2191
 8049TIP3    H124100   0.502   1.078   3.199  0.4407  1.7551  1.4506
 8049TIP3    H224101   0.624   0.989   3.184 -1.6044 -0.8503 -0.0883
 8050TIP3   OH224102   7.793   4.604   2.190  0.2440  0.1284 -0.3241
 8050TIP3    H124103   7.862   4.650   2.141 -0.3156  1.0544 -0.2506
 8050TIP3    H224104   7.717   4.662   2.185 -0.0985 -0.2064  0.8494
 8051TIP3   OH224105   1.659   0.919   2.745 -0.4966 -0.0793 -0.3251
 8051TIP3    H124106   1.676   0.907   2.838  0.7399 -1.9922 -0.7695
 8051TIP3    H224107   1.690   1.007   2.726  0.4325 -0.1495  0.8106
 8052TIP3   OH224108   6.609   6.309   3.559  0.1793 -0.3990  0.4219
 8052TIP3    H124109   6.584   6.273   3.474  1.0806 -0.1139  0.0310
 8052TIP3    H224110   6.538   6.369   3.581  0.6865  0.7198 -0.8699
 8053TIP3   OH224111   7.434   1.678   2.755 -0.5690 -0.2648 -0.0338
 8053TIP3    H124112   7.403   1.662   2.844 -0.8012 -1.2967 -0.2863
 8053TIP3    H224113   7.361   1.653   2.698  0.3561 -1.7897 -0.5922
 8054TIP3   OH224114   1.458   5.834   3.868  0.0400  0.1288 -0.2193
 8054TIP3    H124115   1.552   5.831   3.886  0.3994  1.0702 -1.8666
 8054TIP3    H224116   1.447   5.906   3.806 -1.8217  0.2492  0.1918
 8055TIP3   OH224117   3.934   0.439   4.183  0.5993 -0.0167 -0.0779
 8055TIP3    H124118   3.936   0.442   4.278  0.8792 -2.0087  0.0154
 8055TIP3    H224119   4.004   0.498   4.155  1.4573 -0.5073  0.9896
 8056TIP3   OH224120   2.564   0.479   3.925  0.1743  0.0795  0.4134
 8056TIP3    H124121   2.598   0.471   3.836  1.0310  0.3233  0.7200
 8056TIP3    H224122   2.574   0.392   3.962  0.5042  0.1680  0.5252
 8057TIP3   OH224123   1.698   0.382   2.381 -0.3552  0.5750  0.2508
 8057TIP3    H124124   1.780   0.417   2.345 -1.0241  1.1447 -0.7610
 8057TIP3    H224125   1.630   0.422   2.327 -1.3193  0.3238  1.2686
 8058TIP3   OH224126   2.579   0.461   3.654 -0.3396  0.1565  0.2023
 8058TIP3    H124127   2.630   0.530   3.611  0.8792 -0.2778  0.9232
 8058TIP3    H224128   2.609   0.380   3.613 -0.3711 -0.1090  0.6998
 8059TIP3   OH224129   0.280   5.380   1.210 -0.1774  0.3584  0.1515
 8059TIP3    H124130   0.239   5.300   1.241 -2.9470  1.2914 -0.9791
 8059TIP3    H224131   0.287   5.368   1.115 -2.0470  2.0284 -0.2378
 8060TIP3   OH224132   6.911   6.452   4.183 -0.5040 -0.3889 -0.0791
 8060TIP3    H124133   6.853   6.499   4.243  1.3452  0.9938  0.6853
 8060TIP3    H224134   6.998   6.491   4.198  0.8071 -3.0414 -0.5032
 8061TIP3   OH224135   3.302   1.209   4.491  0.2397 -0.4482  0.1165
 8061TIP3    H124136   3.396   1.225   4.497  0.1777 -0.2826  0.7149
 8061TIP3    H224137   3.285   1.195   4.398  0.6739  0.6535 -0.1312
 8062TIP3   OH224138   7.278   5.316   1.228 -0.2646  0.2041 -0.7625
 8062TIP3    H124139   7.301   5.231   1.192  2.0993  0.6201 -0.2848
 8062TIP3    H224140   7.295   5.308   1.322 -0.6311  1.0006 -0.6186
 8063TIP3   OH224141   6.447   4.328   2.744  0.2338  0.0763  0.4463
 8063TIP3    H124142   6.384   4.385   2.788 -0.4991 -1.9620  2.1173
 8063TIP3    H224143   6.531   4.371   2.758 -0.2957  0.7491  1.6990
 8064TIP3   OH224144   1.945   1.220   3.785 -0.0655  0.3163  0.0192
 8064TIP3    H124145   1.957   1.276   3.862  1.3628  0.1209 -0.0335
 8064TIP3    H224146   1.886   1.269   3.728 -0.9877  0.5492  1.1542
 8065TIP3   OH224147   7.649   6.010   1.978  0.1001 -0.1384  0.1352
 8065TIP3    H124148   7.621   6.001   1.887 -2.2829  0.2534  0.7839
 8065TIP3    H224149   7.666   5.920   2.006  0.7418 -0.2686 -0.6660
 8066TIP3   OH224150   0.677   0.390   3.170 -0.0229 -0.9261  0.0617
 8066TIP3    H124151   0.584   0.387   3.192 -0.1208  0.7719 -0.0498
 8066TIP3    H224152   0.721   0.411   3.252 -0.0083  1.1403 -0.4464
 8067TIP3   OH224153   6.593   5.864   2.759 -0.0029  0.0048 -0.1531
 8067TIP3    H124154   6.665   5.849   2.696 -0.9440  1.1573 -1.5341
 8067TIP3    H224155   6.527   5.799   2.734 -0.6355  0.8774 -0.7653
 8068TIP3   OH224156   7.615   7.010   2.958 -0.3751  0.1162 -0.2878
 8068TIP3    H124157   7.627   6.921   2.928 -0.1370 -0.1445  0.5596
 8068TIP3    H224158   7.703   7.041   2.979 -0.3843  0.7781 -1.2113
 8069TIP3   OH224159   2.635   0.666   2.051  0.2823  0.0896  0.7292
 8069TIP3    H124160   2.620   0.668   2.146  0.6913 -0.7675  0.8156
 8069TIP3    H224161   2.625   0.757   2.024 -0.7640  0.2082  1.4489
 8070TIP3   OH224162   1.072   4.812   2.191 -0.2209  0.4852  0.4786
 8070TIP3    H124163   1.143   4.752   2.166 -0.7866  0.7469 -1.8721
 8070TIP3    H224164   1.118   4.888   2.229  0.5156 -1.1824  3.0575
 8071TIP3   OH224165   2.222   0.375   3.323 -0.0339  0.2153  0.1234
 8071TIP3    H124166   2.281   0.332   3.261 -1.0160 -2.0813  0.7336
 8071TIP3    H224167   2.278   0.400   3.396  0.5657 -0.0089 -0.2558
 8072TIP3   OH224168   0.640   6.690   4.489 -0.0466  0.0156  0.1437
 8072TIP3    H124169   0.581   6.756   4.527 -0.2211 -0.2943  0.4097
 8072TIP3    H224170   0.584   6.615   4.472  0.3354 -0.4000  0.7003
 8073TIP3   OH224171   2.743   0.464   2.642 -0.6807 -0.4191  0.1672
 8073TIP3    H124172   2.659   0.504   2.666  0.9779  0.6844  4.6628
 8073TIP3    H224173   2.802   0.489   2.713  3.6701 -0.6142 -3.2293
 8074TIP3   OH224174   6.874   6.058   2.162 -0.1452  0.0822  0.1708
 8074TIP3    H124175   6.923   6.020   2.090  0.1041  0.7708 -0.0188
 8074TIP3    H224176   6.834   5.982   2.206 -1.9397 -0.2002 -1.8681
 8075TIP3   OH224177   6.562   4.776   3.898 -0.1713 -0.5163  0.4882
 8075TIP3    H124178   6.614   4.723   3.958  0.0036 -0.5073  0.3429
 8075TIP3    H224179   6.538   4.716   3.827  0.3194 -0.3128  0.1473
 8076TIP3   OH224180   3.698   0.218   2.129  0.2400 -0.4712  0.1631
 8076TIP3    H124181   3.767   0.152   2.140  0.1219 -0.5848  0.2256
 8076TIP3    H224182   3.616   0.169   2.137  0.1417 -0.5665 -1.3150
 8077TIP3   OH224183   5.831   7.209   1.597 -0.1037 -0.5826  0.2572
 8077TIP3    H124184   5.809   7.256   1.517  1.5733  1.6218  1.0321
 8077TIP3    H224185   5.784   7.255   1.666  2.1713  0.5229  1.1267
 8078TIP3   OH224186   0.704   6.410   0.959  0.0292 -0.1673 -0.0429
 8078TIP3    H124187   0.637   6.351   0.994  1.9779 -1.8279  1.0083
 8078TIP3    H224188   0.729   6.371   0.875  0.4594 -0.1593  0.0805
 8079TIP3   OH224189   2.294   0.810   4.429  0.5779  0.4414 -0.1005
 8079TIP3    H124190   2.378   0.846   4.400  1.3445 -0.2395  1.2430
 8079TIP3    H224191   2.315   0.721   4.456 -0.4256  0.5488  1.0362
 8080TIP3   OH224192   7.119   6.567   5.278 -0.0306 -0.4041  0.3848
 8080TIP3    H124193   7.199   6.515   5.273  0.3985  0.4236 -2.1681
 8080TIP3    H224194   7.149   6.654   5.306 -0.1259 -0.2408 -0.0280
 8081TIP3   OH224195   0.575   5.788   3.178  0.1708  0.0855 -0.1820
 8081TIP3    H124196   0.661   5.802   3.217 -0.3545  2.8050  0.1318
 8081TIP3    H224197   0.516   5.784   3.253 -0.3569  1.5159 -0.5004
 8082TIP3   OH224198   3.813   0.249   3.447  0.0860 -0.1068  0.1822
 8082TIP3    H124199   3.755   0.322   3.423  1.3070  1.5751  2.1602
 8082TIP3    H224200   3.897   0.271   3.406 -0.1190 -1.5375 -1.0301
 8083TIP3   OH224201   7.881   6.072   2.156  0.5067 -0.2643 -0.1550
 8083TIP3    H124202   7.832   6.064   2.238 -0.0285 -2.0074 -0.6090
 8083TIP3    H224203   7.815   6.097   2.091  0.2496 -2.2066 -0.6878
 8084TIP3   OH224204   2.304   1.508   3.008  0.2531 -0.4689  0.5236
 8084TIP3    H124205   2.353   1.433   2.972  0.0952 -0.7892  0.9808
 8084TIP3    H224206   2.300   1.570   2.935  1.3951 -0.4181  0.5006
 8085TIP3   OH224207   3.988   0.029   1.467  0.2171  0.4989 -0.6042
 8085TIP3    H124208   4.005   0.067   1.381 -0.1750  0.0161 -0.8967
 8085TIP3    H224209   3.896   0.001   1.464  0.8178 -1.5384 -0.8030
 8086TIP3   OH224210   6.530   7.166   3.763  0.2023 -0.6861  0.6407
 8086TIP3    H124211   6.597   7.192   3.826  1.8089  1.1659 -1.7450
 8086TIP3    H224212   6.489   7.248   3.736  1.5842 -1.0650 -2.8996
 8087TIP3   OH224213   4.643   2.109   6.285 -0.2315  0.3438 -0.3959
 8087TIP3    H124214   4.613   2.018   6.279 -0.2262  0.3377 -0.3373
 8087TIP3    H224215   4.682   2.127   6.200  0.0940  0.1705 -0.2866
 8088TIP3   OH224216   0.405   3.607   4.921 -0.2233 -0.4139 -0.5314
 8088TIP3    H124217   0.416   3.609   5.016 -1.2026  0.4763 -0.4206
 8088TIP3    H224218   0.488   3.639   4.887 -0.1232 -0.0239  0.0645
 8089TIP3   OH224219   0.002   0.024   2.454  0.2695 -0.0111 -0.3249
 8089TIP3    H124220  -0.019   0.115   2.431 -1.1831  0.0655  1.1943
 8089TIP3    H224221   0.094   0.014   2.429  0.0605  1.4399 -1.8146
 8090TIP3   OH224222   2.005   0.687   1.928  0.3739  0.1275 -0.1389
 8090TIP3    H124223   2.034   0.778   1.935 -0.9815  0.4893  1.1115
 8090TIP3    H224224   1.960   0.670   2.011 -0.0771 -1.4389 -0.6820
 8091TIP3   OH224225   7.365   5.608   0.263 -0.0222 -0.1030  0.1340
 8091TIP3    H124226   7.313   5.545   0.213 -0.7154  1.2942 -0.9527
 8091TIP3    H224227   7.451   5.567   0.271  0.4925  0.1346 -3.2883
 8092TIP3   OH224228   0.054   6.849   3.736 -0.7647  0.2044 -0.1603
 8092TIP3    H124229  -0.037   6.820   3.742 -0.8263  0.5034  0.3546
 8092TIP3    H224230   0.100   6.774   3.699 -1.4725  0.5701 -1.8639
 8093TIP3   OH224231   6.545   6.665   3.233  0.3330  0.1024  0.5023
 8093TIP3    H124232   6.639   6.646   3.222  0.5762  0.9101  1.1159
 8093TIP3    H224233   6.534   6.674   3.328 -0.7444 -1.8587  0.5893
 8094TIP3   OH224234   1.160   0.616   3.113 -0.2452  0.5287 -0.0859
 8094TIP3    H124235   1.099   0.616   3.040  0.7038  0.8343 -0.8907
 8094TIP3    H224236   1.193   0.526   3.118 -0.1703  0.5529 -0.1480
 8095TIP3   OH224237   6.083   5.907   2.846 -0.2553  0.0983 -0.0073
 8095TIP3    H124238   6.034   5.886   2.766  1.0235 -2.5603 -0.1498
 8095TIP3    H224239   6.162   5.951   2.814 -0.4143  0.2950 -0.1271
 8096TIP3   OH224240   6.049   6.467   0.501  0.7317 -0.1112  0.1235
 8096TIP3    H124241   6.031   6.486   0.409  0.2790 -0.3992  0.1538
 8096TIP3    H224242   6.121   6.527   0.524  0.5064  0.3128 -0.2723
 8097TIP3   OH224243   7.147   5.677   2.295  0.3254 -0.2298  0.6707
 8097TIP3    H124244   7.185   5.729   2.225 -1.0620 -1.1880 -0.8420
 8097TIP3    H224245   7.209   5.605   2.307  0.0797 -0.6103 -0.2864
 8098TIP3   OH224246   1.675   3.370   4.533 -0.1852 -0.6296  0.1931
 8098TIP3    H124247   1.682   3.329   4.446  1.3134  2.0808 -1.0378
 8098TIP3    H224248   1.765   3.387   4.559 -0.7242  0.8612  1.1575
 8099TIP3   OH224249   1.712   0.702   1.280 -0.0526  0.0790  0.1142
 8099TIP3    H124250   1.685   0.670   1.366  1.2861  0.6792  0.7700
 8099TIP3    H224251   1.752   0.626   1.237  2.1919  0.5907  1.2710
 8100TIP3   OH224252   0.415   6.977   3.375 -0.2760  0.4868  0.3020
 8100TIP3    H124253   0.361   6.898   3.373 -0.2712  0.4411  1.6334
 8100TIP3    H224254   0.486   6.956   3.436  0.5841  0.9718 -0.5237
 8101TIP3   OH224255   7.786   6.800   4.067  0.5116  0.1366  0.3925
 8101TIP3    H124256   7.758   6.723   4.017 -1.9205  1.3822 -0.2758
 8101TIP3    H224257   7.749   6.787   4.154 -1.1152  1.1734 -0.1187
 8102TIP3   OH224258   7.503   7.087   2.340 -0.3580 -0.4115 -0.3092
 8102TIP3    H124259   7.477   7.142   2.413 -1.1927 -1.5084  0.2362
 8102TIP3    H224260   7.531   7.148   2.271  0.8042  0.6209  1.0502
 8103TIP3   OH224261   4.929   6.671   2.873 -0.2115  0.1110 -0.1248
 8103TIP3    H124262   4.985   6.718   2.811  3.4783 -1.3340  1.9480
 8103TIP3    H224263   4.899   6.595   2.824  0.1977  0.5652 -1.0977
 8104TIP3   OH224264   0.618   0.400   2.504  0.7517  0.3996 -0.1743
 8104TIP3    H124265   0.680   0.440   2.443  2.0280  1.2682  1.6638
 8104TIP3    H224266   0.667   0.328   2.544 -0.4027 -0.7963 -0.8862
 8105TIP3   OH224267   6.862   6.366   3.632  0.1387  0.3923  0.2150
 8105TIP3    H124268   6.836   6.413   3.711  0.2479  0.0662  0.4460
 8105TIP3    H224269   6.780   6.346   3.587 -0.1328 -1.8139  1.6097
 8106TIP3   OH224270   6.796   6.909   2.376 -0.1441 -0.0237 -0.4042
 8106TIP3    H124271   6.724   6.874   2.430 -1.2151  1.6829 -0.6816
 8106TIP3    H224272   6.871   6.911   2.436 -0.4666 -1.2627  0.0658
 8107TIP3   OH224273   2.327   0.412   4.173 -0.2332  0.0932 -0.2331
 8107TIP3    H124274   2.290   0.491   4.134  0.3764  0.9293  0.8504
 8107TIP3    H224275   2.379   0.444   4.247 -0.4026 -1.3636  0.5310
 8108TIP3   OH224276   0.489   6.482   3.441 -0.0482  0.4015  0.2026
 8108TIP3    H124277   0.415   6.428   3.468  0.5845  0.5284  2.2802
 8108TIP3    H224278   0.537   6.499   3.522  0.5528  2.8862 -0.6318
 8109TIP3   OH224279   0.076   5.848   2.474 -0.3252 -0.7124 -0.0501
 8109TIP3    H124280  -0.014   5.818   2.469 -0.4791 -0.8757  2.6718
 8109TIP3    H224281   0.077   5.931   2.427 -1.4185 -1.6742 -1.8283
 8110TIP3   OH224282   4.713   1.236   1.019  0.0265 -0.5229  0.1652
 8110TIP3    H124283   4.751   1.184   0.949 -1.8131  1.2998 -2.3010
 8110TIP3    H224284   4.632   1.190   1.042 -0.4461 -0.0042 -0.4281
 8111TIP3   OH224285   4.063   0.269   3.314 -0.1358  0.0283 -0.5475
 8111TIP3    H124286   4.136   0.318   3.352 -0.5988  0.7165 -0.5421
 8111TIP3    H224287   4.095   0.242   3.227  1.7073 -3.3213  1.0631
 8112TIP3   OH224288   6.817   5.511   4.455  0.3018 -0.2325 -0.1891
 8112TIP3    H124289   6.865   5.592   4.441  0.9075 -0.5848 -0.1608
 8112TIP3    H224290   6.773   5.523   4.540  0.3498  0.0843 -0.2102
 8113TIP3   OH224291   0.142   6.680   4.698  0.1937 -0.0374 -0.4022
 8113TIP3    H124292   0.220   6.645   4.741  1.1984  0.1997 -2.0096
 8113TIP3    H224293   0.138   6.634   4.614 -2.2458 -1.1326  0.2809
 8114TIP3   OH224294   1.319   4.451   5.917  0.4601  0.7620 -0.8339
 8114TIP3    H124295   1.226   4.433   5.925  0.6047  0.0755 -0.6153
 8114TIP3    H224296   1.355   4.372   5.877  1.1212  0.5483  0.1669
 8115TIP3   OH224297   0.592   0.314   2.049  0.4408 -0.2055  0.4481
 8115TIP3    H124298   0.505   0.320   2.009  1.0886 -3.6086 -1.6070
 8115TIP3    H224299   0.622   0.405   2.054 -1.1131  0.6262 -3.6138
 8116TIP3   OH224300   2.437   0.781   1.176 -0.0066 -0.1156 -0.0888
 8116TIP3    H124301   2.401   0.694   1.190  0.4019 -0.1782  0.6277
 8116TIP3    H224302   2.386   0.837   1.234 -0.9789  0.3035 -1.3375
 8117TIP3   OH224303   7.480   0.488   4.577  0.0978  0.0590 -0.2723
 8117TIP3    H124304   7.406   0.528   4.531  0.4593  2.0302  0.7934
 8117TIP3    H224305   7.527   0.440   4.509 -0.2993  1.5602 -1.6579
 8118TIP3   OH224306   5.277   6.047   0.967  0.3442 -0.4229 -0.0262
 8118TIP3    H124307   5.358   6.010   0.931  0.2804 -0.1855 -0.4132
 8118TIP3    H224308   5.305   6.125   1.014  0.3506 -0.3983 -0.0715
 8119TIP3   OH224309   2.992   0.232   3.510  0.0689  0.4914 -0.5925
 8119TIP3    H124310   3.084   0.207   3.506  0.2382  1.3606 -2.2104
 8119TIP3    H224311   2.965   0.243   3.419 -1.7266 -0.0661 -0.1646
 8120TIP3   OH224312   0.193   5.415   3.377  0.3286  0.1376 -0.0344
 8120TIP3    H124313   0.284   5.434   3.401  0.5312 -0.6233 -0.1685
 8120TIP3    H224314   0.146   5.497   3.392  1.6252  1.4718 -2.9670
 8121TIP3   OH224315   5.746   7.063   2.989 -0.1749  0.4555 -0.7026
 8121TIP3    H124316   5.652   7.051   3.000  0.2185 -3.2647 -0.9857
 8121TIP3    H224317   5.783   7.042   3.074  0.5750 -0.2775 -1.2070
 8122TIP3   OH224318   7.775   6.577   2.165 -0.4666 -0.1399 -0.0146
 8122TIP3    H124319   7.783   6.483   2.184  1.1703 -0.3140 -1.3864
 8122TIP3    H224320   7.801   6.620   2.247 -0.6953 -0.8810  0.4524
 8123TIP3   OH224321   1.386   2.791   3.183  0.2170  0.2323 -0.1870
 8123TIP3    H124322   1.454   2.725   3.189 -0.2975 -0.4008 -1.1838
 8123TIP3    H224323   1.330   2.775   3.259 -0.8246 -1.5467 -1.2844
 8124TIP3   OH224324   6.053   6.984   4.426 -0.1260 -0.2240 -0.5001
 8124TIP3    H124325   6.039   6.899   4.468 -2.1418  0.5337  0.4062
 8124TIP3    H224326   6.145   6.982   4.398 -0.7132 -3.5451 -2.4369
 8125TIP3   OH224327   2.910   5.426   2.760  0.4282  0.1584 -0.0430
 8125TIP3    H124328   2.822   5.395   2.737  0.1067  0.5616  0.6137
 8125TIP3    H224329   2.899   5.467   2.846  1.5096 -0.8997  0.6199
 8126TIP3   OH224330   6.314   7.405   1.075  0.0747  0.3963  0.3516
 8126TIP3    H124331   6.307   7.341   1.146  1.4459 -1.6703 -1.2889
 8126TIP3    H224332   6.346   7.354   1.000  1.5853  3.0868 -0.9209
 8127TIP3   OH224333   7.449   6.536   0.474 -0.4284 -0.8912  0.0193
 8127TIP3    H124334   7.446   6.627   0.445  2.1277 -1.0778 -0.9704
 8127TIP3    H224335   7.500   6.539   0.555  0.5064 -1.5382 -0.5329
 8128TIP3   OH224336   6.716   4.185   2.499  0.1320  0.4494  0.2683
 8128TIP3    H124337   6.713   4.130   2.421  1.9151  0.4693  0.1485
 8128TIP3    H224338   6.685   4.271   2.470 -0.4098  0.1223 -0.1126
 8129TIP3   OH224339   6.717   1.026   3.377  0.0753  0.2331  0.0233
 8129TIP3    H124340   6.767   0.962   3.326 -0.0508 -1.6508  2.1806
 8129TIP3    H224341   6.774   1.102   3.383  1.1519 -0.5004 -0.7029
 8130TIP3   OH224342   6.968   5.977   3.821  0.1521  0.7191  0.3718
 8130TIP3    H124343   6.911   6.053   3.830 -2.0899 -0.7932 -0.4958
 8130TIP3    H224344   6.918   5.905   3.862  1.2242 -0.7449 -0.8338
 8131TIP3   OH224345   6.937   4.911   3.192  0.3859 -0.3205 -0.3320
 8131TIP3    H124346   7.011   4.968   3.209  0.9402 -1.5485  1.5231
 8131TIP3    H224347   6.966   4.853   3.122  1.6214 -1.5455  1.1677
 8132TIP3   OH224348   7.144   4.599   4.030 -0.0999  0.1027 -0.6253
 8132TIP3    H124349   7.071   4.560   4.078 -1.3716  0.2630 -2.3990
 8132TIP3    H224350   7.207   4.528   4.020  0.5509  0.2606  1.9414
 8133TIP3   OH224351   5.746   5.270   4.703 -0.1631 -0.1356  0.0918
 8133TIP3    H124352   5.761   5.182   4.668  0.6131  0.4964 -1.2234
 8133TIP3    H224353   5.763   5.262   4.797 -0.7175 -1.5237  0.0884
 8134TIP3   OH224354   4.913   2.147   0.380 -0.4310  0.4442 -0.0364
 8134TIP3    H124355   4.853   2.096   0.433  0.6195 -0.7841 -0.0087
 8134TIP3    H224356   4.902   2.113   0.291 -0.8181  1.2057 -0.2874
 8135TIP3   OH224357   7.751   6.298   5.408  0.1535  0.2095  0.1302
 8135TIP3    H124358   7.704   6.230   5.359  1.0472 -0.4443  0.1720
 8135TIP3    H224359   7.724   6.285   5.499  1.3658 -0.9755  0.3383
 8136TIP3   OH224360   2.424   2.661   5.354  0.0640  0.0781 -0.0753
 8136TIP3    H124361   2.456   2.626   5.437 -1.6841 -0.5186  0.3844
 8136TIP3    H224362   2.498   2.653   5.294  2.0188  2.4084  1.9112
 8137TIP3   OH224363   0.590   5.471   5.733  0.3570 -0.6117  0.0020
 8137TIP3    H124364   0.538   5.468   5.653  0.7422  0.8463 -0.3179
 8137TIP3    H224365   0.525   5.472   5.804 -0.0680  0.9776 -0.3839
 8138TIP3   OH224366   1.389   6.644   3.679 -0.1712  0.1761 -0.1794
 8138TIP3    H124367   1.310   6.620   3.727  0.6425 -0.4387  0.8494
 8138TIP3    H224368   1.449   6.679   3.745 -0.2687  2.4332 -1.2239
 8139TIP3   OH224369   1.196   5.463   2.555  0.2830 -0.2822  0.0444
 8139TIP3    H124370   1.274   5.459   2.499  0.6970 -1.0852  0.6683
 8139TIP3    H224371   1.207   5.545   2.604 -0.3191  0.6560 -1.3852
 8140TIP3   OH224372   1.150   6.649   2.577  0.3189 -0.5988 -0.8917
 8140TIP3    H124373   1.239   6.676   2.601  0.1215  0.0719 -0.9047
 8140TIP3    H224374   1.162   6.598   2.497  0.8009 -1.4025 -0.3054
 8141TIP3   OH224375   0.913   5.426   5.485 -0.2123  0.2037 -0.2330
 8141TIP3    H124376   0.981   5.480   5.445  1.6095 -2.0532 -0.2830
 8141TIP3    H224377   0.904   5.351   5.427 -3.0783  0.6129 -0.4312
 8142TIP3   OH224378   1.978   5.576   4.132 -0.3910  0.2889 -0.1877
 8142TIP3    H124379   2.055   5.633   4.128  0.7930 -1.1823  0.9917
 8142TIP3    H224380   2.005   5.497   4.086 -0.8968 -0.5756  0.9923
 8143TIP3   OH224381   0.142   6.917   4.034 -0.0027  0.2130 -0.3264
 8143TIP3    H124382   0.055   6.896   4.066 -0.3792  1.4889 -0.4846
 8143TIP3    H224383   0.137   6.905   3.939 -0.4910  1.9019 -0.5278
 8144TIP3   OH224384   6.786   7.172   5.218  0.8473  0.1162  0.6339
 8144TIP3    H124385   6.734   7.198   5.294  1.1205 -1.9260  1.5532
 8144TIP3    H224386   6.873   7.155   5.254  1.0204 -0.6911 -0.1645
 8145TIP3   OH224387   0.874   6.731   3.160 -0.2059 -0.1243 -0.3911
 8145TIP3    H124388   0.933   6.665   3.197 -2.7480 -1.0657  2.1555
 8145TIP3    H224389   0.927   6.776   3.094  3.0709 -1.5433  1.1418
 8146TIP3   OH224390   6.702   5.572   5.742 -0.0972  0.2532  1.0621
 8146TIP3    H124391   6.719   5.494   5.794  0.1682  0.2989  1.0468
 8146TIP3    H224392   6.674   5.638   5.805 -1.0845 -0.0811  0.9804
 8147TIP3   OH224393   0.560   7.382   5.136 -0.7569 -0.0369  0.0825
 8147TIP3    H124394   0.523   7.304   5.095 -0.7329  1.0542 -2.1454
 8147TIP3    H224395   0.501   7.403   5.208 -2.3561 -0.4922 -1.0670
 8148TIP3   OH224396   3.131   1.690   5.184  0.0596  0.1217 -0.0978
 8148TIP3    H124397   3.226   1.702   5.174 -0.0115  0.3219 -0.5226
 8148TIP3    H224398   3.122   1.646   5.269  0.5230  0.2414  0.0176
 8149TIP3   OH224399   7.734   6.444   4.201  0.1898  0.6126  0.2362
 8149TIP3    H124400   7.727   6.351   4.227  0.5616  0.3765 -0.5145
 8149TIP3    H224401   7.647   6.479   4.219 -0.1556 -0.0492 -0.1037
 8150TIP3   OH224402   3.286   7.175   3.711 -0.0917 -0.0513  0.0925
 8150TIP3    H124403   3.379   7.162   3.730  0.1027  2.5231  1.0813
 8150TIP3    H224404   3.241   7.128   3.781  0.5004 -0.2710  0.3285
 8151TIP3   OH224405   0.370   7.186   3.904  0.0028  0.7104  0.1001
 8151TIP3    H124406   0.289   7.189   3.955 -0.6709  0.4605 -0.9611
 8151TIP3    H224407   0.347   7.224   3.819  0.5215 -1.0368 -0.8385
 8152TIP3   OH224408   1.869   6.081   2.850 -0.2593  0.6548 -0.1934
 8152TIP3    H124409   1.896   6.055   2.938  0.8110  0.1582 -0.6634
 8152TIP3    H224410   1.933   6.147   2.824 -1.5808  2.0718  0.0652
 8153TIP3   OH224411   0.820   5.772   5.485 -0.0871  0.2413  0.4156
 8153TIP3    H124412   0.793   5.745   5.398 -0.1293  0.4804  0.3551
 8153TIP3    H224413   0.740   5.770   5.537  0.3343 -2.3166  1.0793
 8154TIP3   OH224414   7.624   6.727   5.614 -0.3943 -0.2800 -0.4888
 8154TIP3    H124415   7.684   6.685   5.676 -2.9630 -1.9237  0.9460
 8154TIP3    H224416   7.645   6.688   5.530  3.2494  2.0810 -0.8091
 8155TIP3   OH224417   0.795   5.546   3.216 -0.3695 -0.5693 -0.1281
 8155TIP3    H124418   0.804   5.642   3.215 -1.2100 -0.4814  0.6870
 8155TIP3    H224419   0.814   5.521   3.306  0.4842 -1.2401 -0.4877
 8156TIP3   OH224420   1.612   6.492   1.978  0.2672 -0.4293 -0.3698
 8156TIP3    H124421   1.645   6.431   2.044  0.2327 -1.2306 -1.0896
 8156TIP3    H224422   1.618   6.578   2.020  1.2474 -0.8103  0.2913
 8157TIP3   OH224423   1.625   7.245   5.573 -0.0289  0.2296 -0.2598
 8157TIP3    H124424   1.583   7.331   5.582  0.2613  0.1627  1.9170
 8157TIP3    H224425   1.703   7.262   5.520  0.7807  1.5772  1.3451
 8158TIP3   OH224426   4.206   0.000   4.659 -0.1407  0.1558 -0.0348
 8158TIP3    H124427   4.182  -0.072   4.600 -4.2069 -0.0055  1.6263
 8158TIP3    H224428   4.206   0.078   4.603 -1.5802 -0.3248 -0.7210
 8159TIP3   OH224429   3.468   6.243   4.924 -0.2553  0.2307  0.1336
 8159TIP3    H124430   3.374   6.226   4.932 -0.2563  0.4270  0.6041
 8159TIP3    H224431   3.487   6.302   4.998  0.2721  0.0439  0.1452
 8160TIP3   OH224432   0.544   6.577   5.906  0.3608 -0.1226 -0.2326
 8160TIP3    H124433   0.504   6.664   5.913 -0.6582 -0.6255  0.4788
 8160TIP3    H224434   0.596   6.580   5.826 -0.4317  0.8461 -0.7247
 8161TIP3   OH224435   3.945   5.230   4.645  0.2019 -0.6400 -0.0026
 8161TIP3    H124436   4.022   5.244   4.700 -0.0289  0.2441  0.0987
 8161TIP3    H224437   3.916   5.142   4.668  1.1526 -0.9682 -0.0102
 8162TIP3   OH224438   0.613   5.316   6.024 -0.0969  0.4914  0.1993
 8162TIP3    H124439   0.539   5.375   6.036  1.7099  2.9117 -0.0826
 8162TIP3    H224440   0.625   5.273   6.109 -1.9697 -0.1591  0.1579
 8163TIP3   OH224441   1.713   6.389   4.666 -0.2146 -0.1577  0.3716
 8163TIP3    H124442   1.784   6.413   4.607  0.1228 -0.1214  0.7839
 8163TIP3    H224443   1.656   6.332   4.615  0.2226 -0.3471  0.0986
 8164TIP3   OH224444   0.653   5.521   3.918  0.1812 -0.0206  0.1925
 8164TIP3    H124445   0.613   5.601   3.886 -1.4973 -0.3151  1.4665
 8164TIP3    H224446   0.624   5.453   3.857  2.8694  0.5641 -1.7860
 8165TIP3   OH224447   2.284   5.641   5.031 -0.3072  0.1784 -0.6785
 8165TIP3    H124448   2.305   5.550   5.054 -1.4441 -0.3612 -1.7283
 8165TIP3    H224449   2.220   5.634   4.960 -0.8074  1.8012 -0.4114
 8166TIP3   OH224450   0.584   6.915   2.325  0.4574  0.4050  0.5799
 8166TIP3    H124451   0.530   6.965   2.387  0.7010 -0.3069  1.3698
 8166TIP3    H224452   0.606   6.979   2.257  0.0462  1.1534  1.1324
 8167TIP3   OH224453   3.933   4.597   3.208 -0.4770 -0.1148 -0.1363
 8167TIP3    H124454   3.852   4.545   3.213  0.2217 -1.1447  0.6636
 8167TIP3    H224455   3.909   4.681   3.247 -1.1784 -0.3971  0.0628
 8168TIP3   OH224456   2.325   6.680   5.675  0.3003  0.1451  0.9241
 8168TIP3    H124457   2.417   6.699   5.693  0.4933  0.3535 -0.2484
 8168TIP3    H224458   2.325   6.588   5.647  0.2106  0.2538  0.5594
 8169TIP3   OH224459   4.855   1.718   3.684  0.4947  1.0697  0.2551
 8169TIP3    H124460   4.854   1.803   3.729  1.9851  0.6147  1.1906
 8169TIP3    H224461   4.931   1.723   3.625  0.4985  0.4574  0.2032
 8170TIP3   OH224462   2.526   6.102   5.604  0.1585  0.2197 -0.0392
 8170TIP3    H124463   2.438   6.115   5.638  0.4539  0.6927  0.5762
 8170TIP3    H224464   2.572   6.056   5.674  0.4406  0.1286 -0.2840
 8171TIP3   OH224465   4.464   0.649   5.260 -0.4547 -0.4694  0.2589
 8171TIP3    H124466   4.375   0.680   5.280  0.0413  0.5645  0.8797
 8171TIP3    H224467   4.509   0.727   5.225 -0.0867 -1.2337 -1.0067
 8172TIP3   OH224468   0.175   6.019   4.688 -0.4867 -0.0912  0.5660
 8172TIP3    H124469   0.127   6.101   4.681 -1.1444 -0.4510  0.8313
 8172TIP3    H224470   0.107   5.951   4.692  0.0723 -0.7725 -1.2092
 8173TIP3   OH224471   4.096   6.618   4.510 -0.0352 -0.3778 -0.5711
 8173TIP3    H124472   4.008   6.581   4.522  0.1593 -0.8493 -0.5899
 8173TIP3    H224473   4.135   6.564   4.442  0.5059 -0.5857 -0.1004
 8174TIP3   OH224474   0.652   7.356   6.268 -0.6692  0.0535  0.6620
 8174TIP3    H124475   0.662   7.270   6.228 -0.7346 -0.4787  1.7502
 8174TIP3    H224476   0.590   7.402   6.211  0.5991 -0.0321 -0.8155
 8175TIP3   OH224477   0.291   6.322   3.513 -0.1675 -0.4053 -0.0273
 8175TIP3    H124478   0.291   6.247   3.572  1.1971  1.0811  1.9261
 8175TIP3    H224479   0.202   6.326   3.478 -1.1009 -1.1435  2.1800
 8176TIP3   OH224480   4.086   0.570   6.122  0.5807 -0.3980  0.4198
 8176TIP3    H124481   4.018   0.507   6.098  0.8421 -0.6037  0.2111
 8176TIP3    H224482   4.104   0.617   6.040  0.1557  0.1761  0.6466
 8177TIP3   OH224483   2.117   5.645   4.821  0.0087  0.1997  0.1851
 8177TIP3    H124484   2.042   5.687   4.779 -1.0698 -0.9361  0.9058
 8177TIP3    H224485   2.105   5.552   4.802  0.2234 -0.1822  1.8455
 8178TIP3   OH224486   0.987   6.700   4.162 -0.1178 -0.7919 -0.3134
 8178TIP3    H124487   1.082   6.689   4.162 -0.3087 -2.5745 -0.3203
 8178TIP3    H224488   0.965   6.721   4.072  0.0362 -2.7785 -0.8465
 8179TIP3   OH224489   4.239   1.708   3.155 -0.3608  0.0262  0.0649
 8179TIP3    H124490   4.276   1.706   3.243  1.4231  1.1754 -0.6122
 8179TIP3    H224491   4.145   1.698   3.168 -0.3356  2.0755  2.2510
 8180TIP3   OH224492   3.283   6.900   2.689  0.3058 -0.4013  0.5251
 8180TIP3    H124493   3.194   6.929   2.673  1.1510  1.0030 -1.8849
 8180TIP3    H224494   3.315   6.956   2.760  0.6991  2.1221 -1.5882
 8181TIP3   OH224495   6.713   6.587   4.322  0.1671 -0.1518 -0.4295
 8181TIP3    H124496   6.648   6.521   4.346  0.2281 -0.5011 -1.1966
 8181TIP3    H224497   6.673   6.635   4.250 -0.8521  2.2027  1.6328
 8182TIP3   OH224498   2.023   6.411   4.926  0.1190  0.0950 -0.6578
 8182TIP3    H124499   2.083   6.408   4.852 -0.6179  0.7089 -1.2823
 8182TIP3    H224500   1.987   6.500   4.926  1.3955  0.6567  1.4684
 8183TIP3   OH224501   7.607   5.901   5.286 -0.5443 -0.4555  0.1173
 8183TIP3    H124502   7.594   5.986   5.244 -1.6915 -1.0177 -0.6706
 8183TIP3    H224503   7.538   5.895   5.352  0.1937 -0.3228  0.9192
 8184TIP3   OH224504   1.576   6.683   3.929  0.0099  0.2551 -0.6470
 8184TIP3    H124505   1.623   6.766   3.924 -1.0298  0.8756 -0.0465
 8184TIP3    H224506   1.646   6.618   3.939  0.7673  1.1436 -0.0361
 8185TIP3   OH224507   7.303   3.824   0.071 -0.1421 -0.2893 -0.3008
 8185TIP3    H124508   7.313   3.791  -0.019 -1.4522 -0.6137 -0.3368
 8185TIP3    H224509   7.234   3.890   0.064 -0.0327 -0.0977  0.4180
 8186TIP3   OH224510   7.459   5.923   4.044  0.0376 -0.1406 -0.1071
 8186TIP3    H124511   7.407   5.878   3.977  2.3927 -2.1394 -0.6337
 8186TIP3    H224512   7.542   5.942   4.002 -0.5861  4.0824  0.3640
 8187TIP3   OH224513   0.780   5.960   4.917  0.4526  0.1891 -0.3075
 8187TIP3    H124514   0.867   5.927   4.939 -0.0338 -0.1890  1.0781
 8187TIP3    H224515   0.771   6.041   4.968 -0.4479 -0.3821  0.4685
 8188TIP3   OH224516   3.145   4.266   4.980  0.1076  0.3170 -0.6957
 8188TIP3    H124517   3.091   4.229   5.050  1.9401  0.8878  1.0696
 8188TIP3    H224518   3.208   4.322   5.026  1.4009  0.6322 -2.8077
 8189TIP3   OH224519   1.143   6.784   3.402 -0.4592  0.7532 -0.2469
 8189TIP3    H124520   1.064   6.747   3.442 -0.1766 -0.0334 -0.4193
 8189TIP3    H224521   1.121   6.876   3.386 -1.3387  0.5355 -0.2968
 8190TIP3   OH224522   3.422   2.841   3.645 -0.5226 -0.3591  0.1701
 8190TIP3    H124523   3.386   2.894   3.716  0.5392  0.4196  0.1483
 8190TIP3    H224524   3.479   2.778   3.690  0.6517  0.5454 -0.0123
 8191TIP3   OH224525   0.232   6.424   4.322  0.0586  0.3843 -0.2594
 8191TIP3    H124526   0.212   6.427   4.416 -0.4347 -0.8035 -0.3042
 8191TIP3    H224527   0.209   6.334   4.297 -0.4120  0.8816 -1.6434
 8192TIP3   OH224528   5.563   1.616   5.440 -0.3676  0.7325 -0.6552
 8192TIP3    H124529   5.648   1.587   5.409  0.2720  0.9543  0.8998
 8192TIP3    H224530   5.547   1.698   5.393  0.9269  1.4418  0.1354
 8193TIP3   OH224531   1.503   7.226   4.536 -0.8142 -0.2826 -0.0303
 8193TIP3    H124532   1.443   7.169   4.488 -0.0392 -0.7660 -0.4333
 8193TIP3    H224533   1.557   7.167   4.588 -1.7302  0.2430  1.5712
 8194TIP3   OH224534   4.477   0.076   4.626  0.1040 -0.0600 -0.2364
 8194TIP3    H124535   4.474   0.013   4.553 -1.6176  0.2067 -0.4126
 8194TIP3    H224536   4.502   0.159   4.585 -1.3506  0.1992 -0.6116
 8195TIP3   OH224537   1.092   6.770   5.315 -0.1599 -0.1740  0.4316
 8195TIP3    H124538   1.028   6.840   5.306 -1.2136 -1.3232 -1.2166
 8195TIP3    H224539   1.040   6.690   5.323  1.0551 -1.1289 -1.0040
 8196TIP3   OH224540   0.324   3.499   0.810 -0.3696 -0.0080  0.3535
 8196TIP3    H124541   0.394   3.440   0.785  0.3134  0.5986  0.8087
 8196TIP3    H224542   0.314   3.486   0.904 -1.6003 -0.8706  0.1102
 8197TIP3   OH224543   4.227   0.233   4.915 -0.8291  0.0898  0.0178
 8197TIP3    H124544   4.309   0.267   4.952  1.4360 -1.1518 -3.5350
 8197TIP3    H224545   4.182   0.310   4.881 -0.8253  0.7205  1.4333
 8198TIP3   OH224546   5.805  -0.012   4.720 -0.1438  0.2124 -0.2829
 8198TIP3    H124547   5.889   0.012   4.759 -0.2862  0.8384 -0.3564
 8198TIP3    H224548   5.743   0.053   4.754 -0.8135 -0.8761  0.6236
 8199TIP3   OH224549   2.999   0.091   5.555 -0.5314  0.2193 -1.1997
 8199TIP3    H124550   2.961   0.025   5.613  0.5803 -0.6115 -1.3929
 8199TIP3    H224551   2.924   0.135   5.517 -1.3100 -1.1439 -1.2926
 8200TIP3   OH224552   3.627   1.045   5.561  0.7615 -0.1768  0.3555
 8200TIP3    H124553   3.583   0.983   5.503 -0.2249  0.2595  0.6216
 8200TIP3    H224554   3.639   0.998   5.643  0.7841 -0.2964  0.2834
 8201TIP3   OH224555   0.950   6.417   5.844 -0.2620  0.3226 -0.6213
 8201TIP3    H124556   0.904   6.445   5.765 -0.6635  1.6256  0.0631
 8201TIP3    H224557   0.902   6.339   5.872 -1.2956  0.9474 -0.6064
 8202TIP3   OH224558   2.554   4.861   2.953  0.1034  0.4126  0.1297
 8202TIP3    H124559   2.637   4.877   2.908 -0.3587  1.4396 -0.3677
 8202TIP3    H224560   2.514   4.947   2.961 -1.1784 -0.1467 -0.1370
 8203TIP3   OH224561   4.953   4.299   4.132  0.6152  0.4117  0.1813
 8203TIP3    H124562   4.976   4.348   4.053  0.6272 -0.8963 -0.6370
 8203TIP3    H224563   4.886   4.353   4.174 -2.6930 -0.9147 -3.0224
 8204TIP3   OH224564   4.816   1.126   4.510 -0.1055 -0.2896  0.9176
 8204TIP3    H124565   4.736   1.168   4.478 -0.1133  0.2028  1.5663
 8204TIP3    H224566   4.870   1.199   4.540  0.7458 -0.5936  0.1181
 8205TIP3   OH224567   1.486   0.227   2.247  0.2672  0.2987 -0.3845
 8205TIP3    H124568   1.485   0.136   2.277  1.4339  0.5380  0.4264
 8205TIP3    H224569   1.444   0.276   2.318 -0.5281  0.3720 -0.9043
 8206TIP3   OH224570   0.733   6.608   4.736 -0.5355 -0.0225 -0.5931
 8206TIP3    H124571   0.698   6.653   4.659 -0.5928  0.6859 -0.1479
 8206TIP3    H224572   0.665   6.544   4.759  0.1390 -1.3153 -2.0592
 8207TIP3   OH224573   1.470   6.449   3.470  0.2155 -0.2257  0.3874
 8207TIP3    H124574   1.417   6.472   3.547 -0.4213  0.9701 -0.3875
 8207TIP3    H224575   1.424   6.491   3.397  1.1093 -0.9145 -0.5741
 8208TIP3   OH224576   0.972   6.133   4.074 -0.0429 -0.0196 -0.0659
 8208TIP3    H124577   1.041   6.109   4.011 -1.6535  0.2229 -1.9701
 8208TIP3    H224578   0.920   6.054   4.084  0.2404 -0.0761  1.0591
 8209TIP3   OH224579   4.930   2.271   4.228 -0.5267 -0.6403  0.1435
 8209TIP3    H124580   4.962   2.361   4.233 -0.1000 -0.6125 -2.3373
 8209TIP3    H224581   4.834   2.280   4.227 -0.5110 -0.3086  1.0809
 8210TIP3   OH224582   1.454   6.614   4.255  0.0776 -0.0838 -0.2194
 8210TIP3    H124583   1.366   6.624   4.219  0.3849 -0.9092 -1.2392
 8210TIP3    H224584   1.502   6.692   4.225  0.7936 -1.5341 -3.0638
 8211TIP3   OH224585   1.437   5.631   2.865  0.1317  0.0314  0.7233
 8211TIP3    H124586   1.489   5.558   2.830 -0.9656 -0.2118 -0.4316
 8211TIP3    H224587   1.360   5.635   2.808  0.5875  2.6324  0.1911
 8212TIP3   OH224588   5.288   1.407   5.692  0.7900 -0.1457 -0.1596
 8212TIP3    H124589   5.260   1.327   5.737  1.5627 -0.2277  0.1823
 8212TIP3    H224590   5.215   1.468   5.705  0.2302 -0.7721 -0.3586
 8213TIP3   OH224591   3.699   1.164   4.821  0.3014  0.3089 -0.2473
 8213TIP3    H124592   3.750   1.131   4.748 -3.7095 -0.1014 -3.0005
 8213TIP3    H224593   3.702   1.259   4.811 -0.5225  0.2381 -1.1196
 8214TIP3   OH224594   3.952   0.778   5.447  0.0002  0.1472  0.0975
 8214TIP3    H124595   3.874   0.723   5.437 -0.1526  0.3046  0.4353
 8214TIP3    H224596   3.918   0.867   5.456  0.2818  0.4287 -1.4406
 8215TIP3   OH224597   6.178   3.402   0.173 -0.4626  0.4202  0.3044
 8215TIP3    H124598   6.262   3.391   0.216 -0.8784 -1.1446  0.7673
 8215TIP3    H224599   6.167   3.323   0.120 -0.8324  1.4337 -1.1684
 8216TIP3   OH224600   1.398   5.786   5.139 -0.0132 -0.2495  0.4979
 8216TIP3    H124601   1.404   5.788   5.235 -0.3251  1.8439  0.5009
 8216TIP3    H224602   1.486   5.812   5.110 -0.6949  1.9087  0.2679
 8217TIP3   OH224603   4.851   0.824   6.131 -0.0710  0.4054 -0.1022
 8217TIP3    H124604   4.923   0.887   6.135 -1.5712  2.1937 -0.4778
 8217TIP3    H224605   4.834   0.812   6.038 -0.4671  0.2127 -0.0070
 8218TIP3   OH224606   4.368   0.307   2.103  0.3749 -0.2373 -0.1390
 8218TIP3    H124607   4.444   0.346   2.147 -0.5647  1.3914  0.0457
 8218TIP3    H224608   4.293   0.337   2.153 -0.3421 -2.8816  0.4388
 8219TIP3   OH224609   4.375   0.976   5.394  0.6024  0.4201 -0.2242
 8219TIP3    H124610   4.331   0.891   5.391 -0.6300  0.9441  1.9974
 8219TIP3    H224611   4.411   0.981   5.482 -0.5272  2.7586  0.1457
 8220TIP3   OH224612   1.490   5.659   0.340  0.2754 -0.2763  0.8566
 8220TIP3    H124613   1.438   5.731   0.377 -0.0749 -0.1296  0.0879
 8220TIP3    H224614   1.507   5.601   0.415  2.0400  1.4661  1.8324
 8221TIP3   OH224615   2.192   6.372   4.700 -0.2630 -0.2543 -0.0054
 8221TIP3    H124616   2.231   6.284   4.700 -0.0949 -0.1769  0.6339
 8221TIP3    H224617   2.252   6.424   4.645  0.5863 -0.1159  1.0477
 8222TIP3   OH224618   4.470   7.155   5.023  0.6004 -0.6141  0.1446
 8222TIP3    H124619   4.439   7.231   4.975  1.3472  0.1243  0.8071
 8222TIP3    H224620   4.390   7.112   5.054  0.1775  0.1062  0.0701
 8223TIP3   OH224621   2.408   6.390   5.761 -0.3682 -0.0267 -0.5550
 8223TIP3    H124622   2.373   6.426   5.843 -0.5194 -1.3399 -0.0224
 8223TIP3    H224623   2.501   6.376   5.778 -0.4251 -0.4198 -0.5649
 8224TIP3   OH224624   5.689   3.087   2.853 -0.2095  0.1259  0.0561
 8224TIP3    H124625   5.663   3.016   2.911 -1.0901  0.1291 -0.3276
 8224TIP3    H224626   5.614   3.099   2.794  0.6411  0.1626 -1.0445
 8225TIP3   OH224627   7.863   6.917   5.293 -0.9781  0.3295  0.2711
 8225TIP3    H124628   7.778   6.872   5.294  0.1572 -1.9025  0.2507
 8225TIP3    H224629   7.915   6.867   5.230  0.1672  2.0351 -0.1554
 8226TIP3   OH224630   2.811   6.677   3.301  0.1635 -0.1242 -0.2228
 8226TIP3    H124631   2.737   6.680   3.363 -0.4890 -1.0345 -0.9411
 8226TIP3    H224632   2.888   6.667   3.356 -0.4602 -1.4824  0.4463
 8227TIP3   OH224633   4.462   0.964   3.428  0.2378  0.2236 -0.1799
 8227TIP3    H124634   4.422   0.953   3.342 -2.5263  0.2794  1.0391
 8227TIP3    H224635   4.421   0.897   3.482  1.1206  0.9204  1.3701
 8228TIP3   OH224636   7.750   7.221   3.570 -0.4300  0.5346  0.2480
 8228TIP3    H124637   7.799   7.206   3.651  1.4849  0.7303 -0.8541
 8228TIP3    H224638   7.745   7.135   3.529  0.9395  0.9005 -0.7123
 8229TIP3   OH224639   2.489   7.088   2.825  0.1228  0.1805  0.2787
 8229TIP3    H124640   2.473   7.165   2.770 -4.2737 -0.3220  0.6756
 8229TIP3    H224641   2.531   7.123   2.903 -2.2690  2.3089  0.6687
 8230TIP3   OH224642   5.128   1.123   3.023  0.3326 -0.5539  0.2483
 8230TIP3    H124643   5.175   1.143   3.104  0.8907 -0.7902 -0.0171
 8230TIP3    H224644   5.193   1.138   2.954 -0.1620 -0.2908 -0.1565
 8231TIP3   OH224645   6.997   4.488   5.042 -0.3797  0.0680  0.0139
 8231TIP3    H124646   6.991   4.552   4.970  0.1168 -0.6686 -0.6940
 8231TIP3    H224647   7.076   4.439   5.023 -2.2924 -2.6967 -1.0424
 8232TIP3   OH224648   2.370   7.347   4.632  0.6813  0.4305 -0.4964
 8232TIP3    H124649   2.433   7.312   4.695  1.4302 -0.2999 -1.6041
 8232TIP3    H224650   2.286   7.346   4.677  1.1665 -0.3004  0.4020
 8233TIP3   OH224651   4.912   5.385   3.518 -0.1556 -0.0595  0.2027
 8233TIP3    H124652   4.951   5.299   3.528 -0.6680 -0.3657 -0.4133
 8233TIP3    H224653   4.985   5.442   3.493  0.5685  0.1038  2.5714
 8234TIP3   OH224654   3.570   6.564   3.524 -0.0377  0.3329 -0.1333
 8234TIP3    H124655   3.551   6.509   3.599 -0.6987  2.1140  1.0419
 8234TIP3    H224656   3.646   6.523   3.482  0.7320 -0.3360  1.8568
 8235TIP3   OH224657   2.397   5.626   3.519 -0.2300  0.2426  0.5699
 8235TIP3    H124658   2.476   5.662   3.560  1.6569 -0.4076 -2.3425
 8235TIP3    H224659   2.379   5.685   3.445 -1.4133 -0.6317  0.1358
 8236TIP3   OH224660   1.075   4.168   4.345 -0.2379 -0.3108 -0.1008
 8236TIP3    H124661   1.145   4.103   4.348  0.1396  0.1239  0.5485
 8236TIP3    H224662   1.095   4.229   4.416  1.3714  2.5328 -2.8238
 8237TIP3   OH224663   0.358   5.254   3.108 -0.5328 -0.1901  0.0556
 8237TIP3    H124664   0.427   5.320   3.117 -0.9414  0.2621 -0.1314
 8237TIP3    H224665   0.378   5.211   3.024 -0.1866 -0.4041  0.2440
 8238TIP3   OH224666   1.525   6.611   5.908  0.3557  0.0672 -0.2175
 8238TIP3    H124667   1.451   6.620   5.969  0.2039 -0.3540 -0.3379
 8238TIP3    H224668   1.585   6.682   5.933 -0.0310  0.3349 -0.0383
 8239TIP3   OH224669   5.540   1.054   4.194 -0.7636  0.4763  0.0719
 8239TIP3    H124670   5.565   0.969   4.229  0.3276  0.2970 -1.0935
 8239TIP3    H224671   5.463   1.079   4.244 -0.2097 -0.5133  1.4511
 8240TIP3   OH224672   2.569   6.036   2.862 -0.3267 -0.0239 -0.0166
 8240TIP3    H124673   2.650   6.004   2.902  1.5465  2.7978 -1.3608
 8240TIP3    H224674   2.547   6.114   2.912 -1.0912  0.3423 -0.9126
 8241TIP3   OH224675   2.055   7.090   4.746  0.0386  0.1153 -0.1985
 8241TIP3    H124676   2.007   7.063   4.668 -0.7798 -0.8119  0.6069
 8241TIP3    H224677   2.119   7.020   4.761 -1.4633 -0.9514  1.3613
 8242TIP3   OH224678   6.415   4.662   0.260 -0.0555 -0.3678 -0.3261
 8242TIP3    H124679   6.431   4.599   0.330  0.5683  0.7681  0.5754
 8242TIP3    H224680   6.323   4.651   0.237 -0.1266 -1.1079  0.3221
 8243TIP3   OH224681   3.749   5.898   5.127  0.5835  0.0458 -0.6428
 8243TIP3    H124682   3.717   5.988   5.126 -0.1141 -0.1929  0.2224
 8243TIP3    H224683   3.749   5.874   5.220  1.9681 -0.4156 -0.7541
 8244TIP3   OH224684   3.278   5.172   4.856 -0.5598 -0.6630 -0.8465
 8244TIP3    H124685   3.213   5.196   4.923 -3.0756 -0.5100 -3.2224
 8244TIP3    H224686   3.262   5.079   4.840 -0.3787 -0.5594 -1.6378
 8245TIP3   OH224687   6.219   1.391   5.078 -0.1704  0.6294  0.4190
 8245TIP3    H124688   6.129   1.423   5.085 -0.1663  0.7469 -0.0426
 8245TIP3    H224689   6.218   1.306   5.123 -0.6397  0.3827 -0.0499
 8246TIP3   OH224690   4.313   7.071   0.930  0.1023 -0.6048 -0.3265
 8246TIP3    H124691   4.254   7.144   0.909  1.0086  0.4365  0.7264
 8246TIP3    H224692   4.254   6.996   0.943 -1.0135  0.4434  0.7757
 8247TIP3   OH224693   6.593   0.633   2.350  0.5762  0.0908 -0.1283
 8247TIP3    H124694   6.565   0.677   2.270  2.1340  0.8802 -0.2585
 8247TIP3    H224695   6.642   0.700   2.398  0.7723 -0.7598  0.8628
 8248TIP3   OH224696   6.685   2.245   2.971 -0.2625 -0.1166 -0.3436
 8248TIP3    H124697   6.620   2.207   2.913 -0.1981  0.1531 -0.5955
 8248TIP3    H224698   6.645   2.242   3.058 -0.2260 -0.8207 -0.3500
 8249TIP3   OH224699   6.798   4.100   4.499  0.2113 -0.2779  0.4664
 8249TIP3    H124700   6.705   4.094   4.522 -0.1711 -1.8156 -1.3528
 8249TIP3    H224701   6.814   4.024   4.443  2.4882  0.1753  0.4532
 8250TIP3   OH224702   0.768   4.781   0.367  0.0417 -0.0478 -0.6360
 8250TIP3    H124703   0.819   4.762   0.447  1.0215 -1.0294 -1.4783
 8250TIP3    H224704   0.763   4.876   0.364  0.7543  0.0232  0.1448
 8251TIP3   OH224705   6.348   7.029   4.341  0.5502  0.1370 -0.3546
 8251TIP3    H124706   6.359   7.119   4.372  0.0002  0.2499 -0.4969
 8251TIP3    H224707   6.407   7.023   4.265  2.2798 -0.2876  0.9940
 8252TIP3   OH224708   6.049   1.386   4.330  0.0291  0.2190  0.3866
 8252TIP3    H124709   6.103   1.316   4.368 -1.9151  0.0059  2.8600
 8252TIP3    H224710   6.079   1.466   4.373  0.2724  0.5061 -0.3115
 8253TIP3   OH224711   4.688   5.356   3.968 -0.5034 -0.4899  0.1402
 8253TIP3    H124712   4.736   5.437   3.986  0.2249 -0.7452 -0.6340
 8253TIP3    H224713   4.646   5.335   4.051 -0.6449  0.6440  0.3741
 8254TIP3   OH224714   5.159   7.357   3.910 -0.3505  0.1550 -0.0516
 8254TIP3    H124715   5.088   7.294   3.922 -0.5375  0.3893  0.0716
 8254TIP3    H224716   5.155   7.413   3.987  0.0836  0.0589  0.0438
 8255TIP3   OH224717   2.937   4.877   0.053  0.3370  0.0154  0.2839
 8255TIP3    H124718   2.854   4.831   0.045  0.7854 -0.8855  0.6931
 8255TIP3    H224719   2.934   4.919   0.139  1.7391 -3.0197  1.9280
 8256TIP3   OH224720   3.793   7.451   3.311  0.3652  0.3152  0.6475
 8256TIP3    H124721   3.787   7.476   3.404 -1.1397  0.5171  0.5065
 8256TIP3    H224722   3.794   7.356   3.312  1.9574  0.3147  0.9482
 8257TIP3   OH224723   4.300   5.998   1.519  0.0374 -0.3535 -0.1106
 8257TIP3    H124724   4.251   6.066   1.564  0.6734  2.6541 -3.7279
 8257TIP3    H224725   4.268   6.001   1.429  2.2705 -2.7793 -1.0422
 8258TIP3   OH224726   7.109   0.218   2.528 -0.4083 -0.2643  0.0399
 8258TIP3    H124727   7.099   0.292   2.588  0.7379 -0.6943  0.7891
 8258TIP3    H224728   7.147   0.149   2.582 -0.8574 -1.1876 -0.8094
 8259TIP3   OH224729   0.100   0.568   3.654 -0.2854  0.4473 -0.2355
 8259TIP3    H124730   0.131   0.485   3.616  0.9395  0.7669  0.0245
 8259TIP3    H224731   0.114   0.632   3.585  1.8378  1.0087  0.6604
 8260TIP3   OH224732   3.732   6.813   2.008 -0.6512 -0.3574 -0.0492
 8260TIP3    H124733   3.696   6.827   1.921 -0.4030 -0.3231 -0.1477
 8260TIP3    H224734   3.738   6.718   2.017 -0.2869 -0.3555 -0.2351
 8261TIP3   OH224735   0.808   0.606   3.012  0.5988 -0.1629 -0.3457
 8261TIP3    H124736   0.756   0.533   3.047 -0.5924  0.5915 -0.4839
 8261TIP3    H224737   0.883   0.565   2.970  0.5578 -1.2366  0.6164
 8262TIP3   OH224738   5.614   0.769   2.344 -0.2378 -0.3015  0.5817
 8262TIP3    H124739   5.668   0.739   2.270 -0.8105  0.0466  0.0111
 8262TIP3    H224740   5.589   0.858   2.320 -0.2973 -0.1345  1.2772
 8263TIP3   OH224741   4.467   1.412   3.527 -0.1729  0.0192 -0.3211
 8263TIP3    H124742   4.460   1.475   3.455 -0.1259  1.1285  0.6249
 8263TIP3    H224743   4.523   1.455   3.591  2.2870 -2.2052 -0.9116
 8264TIP3   OH224744   7.593   2.157   3.842  0.4407 -0.5022 -0.3184
 8264TIP3    H124745   7.686   2.165   3.863  0.2600  1.1136 -0.0559
 8264TIP3    H224746   7.591   2.144   3.748  1.0040 -2.2089 -0.1068
 8265TIP3   OH224747   5.036   0.389   4.196  0.1185  0.1470  0.0998
 8265TIP3    H124748   5.050   0.300   4.165  0.1900 -0.5179  2.0449
 8265TIP3    H224749   4.940   0.398   4.200  0.0330  1.0442 -2.5470
 8266TIP3   OH224750   0.126   1.817   3.269 -0.3541  0.2010 -0.0830
 8266TIP3    H124751   0.219   1.823   3.290 -0.8214  2.8907  1.4745
 8266TIP3    H224752   0.107   1.896   3.220 -2.3324  1.0571  1.9537
 8267TIP3   OH224753   4.254   6.997   5.365 -0.1021 -0.5081  0.4113
 8267TIP3    H124754   4.309   7.021   5.440  0.5348 -0.9088  0.0797
 8267TIP3    H224755   4.235   6.904   5.379 -1.1074 -0.2612  0.7754
 8268TIP3   OH224756   2.503   3.848   6.180  0.3667  0.0165 -0.1748
 8268TIP3    H124757   2.512   3.862   6.086  0.7748 -0.6565 -0.2414
 8268TIP3    H224758   2.559   3.772   6.198  1.0803  0.7655  0.7829
 8269TIP3   OH224759   0.762   6.517   4.142 -0.2359 -0.0124 -0.5123
 8269TIP3    H124760   0.775   6.448   4.077  0.8486 -1.2572  0.9756
 8269TIP3    H224761   0.849   6.557   4.151 -0.2600 -0.1821  0.5268
 8270TIP3   OH224762   4.557   6.263   2.724  0.4964 -0.1486  0.1762
 8270TIP3    H124763   4.485   6.202   2.742  1.0988 -1.1944 -0.8755
 8270TIP3    H224764   4.617   6.213   2.670  1.3195  1.1950 -0.1653
 8271TIP3   OH224765   2.774   0.908   4.825  0.1373 -0.1844  0.4590
 8271TIP3    H124766   2.859   0.936   4.790  0.6033 -1.1046  0.8311
 8271TIP3    H224767   2.771   0.813   4.809 -1.6135  0.1153 -1.2019
 8272TIP3   OH224768   4.753   6.466   2.749  0.2356 -0.0639  0.7457
 8272TIP3    H124769   4.668   6.423   2.742  0.8205 -0.9116 -1.5226
 8272TIP3    H224770   4.797   6.420   2.820 -1.1916  0.4376  2.0023
 8273TIP3   OH224771   6.874   0.174   3.920  0.3255  0.3581  0.5669
 8273TIP3    H124772   6.804   0.220   3.875 -0.3641 -0.9732  0.2454
 8273TIP3    H224773   6.869   0.204   4.010 -0.9928 -0.0853  0.6559
 8274TIP3   OH224774   4.068   0.318   3.766  0.0779 -0.2154  0.2174
 8274TIP3    H124775   4.098   0.408   3.775 -2.5745  0.6180  0.8173
 8274TIP3    H224776   3.991   0.323   3.710  0.9242 -2.3423 -1.2301
 8275TIP3   OH224777   3.663   0.428   2.298 -0.3373  0.3927 -0.0182
 8275TIP3    H124778   3.665   0.336   2.271 -0.1013  0.7033 -1.0724
 8275TIP3    H224779   3.573   0.443   2.327 -1.5921  0.9691 -3.9446
 8276TIP3   OH224780   4.277   6.842   3.355  0.2060  0.0645 -0.4675
 8276TIP3    H124781   4.225   6.798   3.422  0.0465  0.8197 -0.0925
 8276TIP3    H224782   4.236   6.928   3.345  0.0406 -0.1552 -1.7598
 8277TIP3   OH224783   2.385   6.324   3.355 -1.1351  0.2919  0.2626
 8277TIP3    H124784   2.471   6.295   3.323 -1.2100  0.4668 -0.0915
 8277TIP3    H224785   2.344   6.366   3.280 -1.0936  1.1771  0.7236
 8278TIP3   OH224786   3.493   7.095   2.833 -0.0326 -0.3503 -0.5070
 8278TIP3    H124787   3.545   7.174   2.819 -0.5721 -0.6217 -4.5351
 8278TIP3    H224788   3.556   7.028   2.861  0.7403  0.8971  0.8195
 8279TIP3   OH224789   4.852   7.254   4.455 -0.5743 -0.1802 -0.6098
 8279TIP3    H124790   4.865   7.160   4.467 -1.6103 -0.2975 -0.4110
 8279TIP3    H224791   4.801   7.262   4.374  2.7446  0.4145 -2.7335
 8280TIP3   OH224792   4.962   6.103   4.207  0.2200  0.2284 -0.1717
 8280TIP3    H124793   5.044   6.054   4.209 -0.3616 -0.7713 -0.2318
 8280TIP3    H224794   4.983   6.185   4.163  1.1859 -0.0271 -0.1828
 8281TIP3   OH224795   3.352   6.589   1.803 -0.0583  0.2944  0.1319
 8281TIP3    H124796   3.311   6.521   1.749  0.6440 -0.4595  0.5273
 8281TIP3    H224797   3.415   6.631   1.744 -0.1287  0.2531  0.0270
 8282TIP3   OH224798   4.133   7.419   5.056 -0.1194 -0.1097  0.2482
 8282TIP3    H124799   4.051   7.376   5.034  0.2673  0.0271 -1.5665
 8282TIP3    H224800   4.169   7.367   5.128 -0.7770 -1.4625 -0.3758
 8283TIP3   OH224801   2.112   7.336   1.476 -0.4221 -0.0789 -0.0986
 8283TIP3    H124802   2.128   7.408   1.536  1.2696 -1.3147  0.9811
 8283TIP3    H224803   2.032   7.294   1.507 -1.1936  1.0752 -0.5033
 8284TIP3   OH224804   5.983   0.521   4.203 -0.4634 -0.2853  0.4327
 8284TIP3    H124805   5.965   0.473   4.284 -0.9920  1.7148  1.5557
 8284TIP3    H224806   5.913   0.494   4.143 -0.7793 -0.8740  1.0571
 8285TIP3   OH224807   5.018   7.348   1.892  0.1129  0.1210  0.3904
 8285TIP3    H124808   5.112   7.329   1.898  0.0374  0.4363  3.4619
 8285TIP3    H224809   5.014   7.436   1.854  1.1558  0.7703  1.7219
 8286TIP3   OH224810   5.858   6.743   2.849  0.4847 -0.1952 -0.1015
 8286TIP3    H124811   5.871   6.759   2.755  2.2463 -1.0695 -0.0324
 8286TIP3    H224812   5.769   6.774   2.866 -1.0158 -2.7526 -2.7016
 8287TIP3   OH224813   3.786   6.857   3.641  0.0398  0.6870  0.3901
 8287TIP3    H124814   3.828   6.938   3.670  3.8745 -1.3284  0.7564
 8287TIP3    H224815   3.826   6.839   3.556  0.1085 -1.4493  0.8693
 8288TIP3   OH224816   4.532   6.787   4.856 -0.0334  0.1764 -0.1237
 8288TIP3    H124817   4.523   6.845   4.780 -4.4884 -1.9407 -1.4015
 8288TIP3    H224818   4.604   6.728   4.834  0.3707  1.2027 -1.5994
 8289TIP3   OH224819   6.911   0.822   2.170  0.4214 -0.3843 -0.4866
 8289TIP3    H124820   6.893   0.806   2.262 -1.4680 -1.7749 -1.0636
 8289TIP3    H224821   6.991   0.773   2.152  0.9623  0.1438  0.4908
 8290TIP3   OH224822   3.627   5.493   4.432 -0.0563 -0.0131  0.3952
 8290TIP3    H124823   3.667   5.477   4.347 -0.0461 -0.0994  0.4165
 8290TIP3    H224824   3.692   5.544   4.480 -1.2532  2.6389 -0.7069
 8291TIP3   OH224825   4.325   6.789   4.597 -0.2284  0.1462 -0.3959
 8291TIP3    H124826   4.248   6.746   4.560 -2.1490  1.4466  1.9273
 8291TIP3    H224827   4.356   6.729   4.664  1.7267 -1.0492 -2.3105
 8292TIP3   OH224828   7.887   0.143   3.126 -0.3607 -0.6893 -0.3486
 8292TIP3    H124829   7.905   0.093   3.206  1.2673  0.7796  0.2340
 8292TIP3    H224830   7.868   0.076   3.060 -1.7380 -1.9341  1.2529
 8293TIP3   OH224831   5.042   0.022   3.849 -0.4295  0.3978  0.3322
 8293TIP3    H124832   4.955   0.050   3.819 -0.5212 -1.1070 -0.8907
 8293TIP3    H224833   5.103   0.075   3.798 -0.6103 -0.8174 -1.1866
 8294TIP3   OH224834   1.537   7.123   5.174 -0.7761  0.0576  0.1705
 8294TIP3    H124835   1.467   7.134   5.239 -2.3205  2.6939 -1.8793
 8294TIP3    H224836   1.499   7.153   5.092  2.0368 -0.7126 -1.4744
 8295TIP3   OH224837   5.996   7.264   5.142 -0.4132 -0.3518  0.3405
 8295TIP3    H124838   6.019   7.179   5.103 -0.6951 -0.8798  1.3101
 8295TIP3    H224839   5.906   7.279   5.114 -0.2368 -0.1911 -0.1449
 8296TIP3   OH224840   7.818   1.346   3.678 -0.0043  0.0743  0.1063
 8296TIP3    H124841   7.732   1.320   3.711 -0.1793 -0.0962 -0.4761
 8296TIP3    H224842   7.880   1.310   3.741 -0.2466 -1.6352 -0.6010
 8297TIP3   OH224843   3.993   6.634   3.811  0.2491  0.6529  0.4167
 8297TIP3    H124844   4.053   6.577   3.860  0.9933  1.8059  0.8726
 8297TIP3    H224845   3.906   6.606   3.839  0.6506  0.8445  1.9144
 8298TIP3   OH224846   4.523   0.156   4.919  0.0918  0.0942 -0.3717
 8298TIP3    H124847   4.596   0.191   4.868 -0.6653  0.5714 -1.1618
 8298TIP3    H224848   4.542   0.181   5.009 -0.5213  2.8051 -0.9426
 8299TIP3   OH224849   5.070   6.969   4.273 -0.3541  0.4426  0.1492
 8299TIP3    H124850   4.991   6.957   4.326 -0.6915  0.3175 -0.3742
 8299TIP3    H224851   5.077   7.063   4.261  0.3965  0.5550  1.4191
 8300TIP3   OH224852   7.064   0.300   3.698  0.0830 -0.0120 -0.2415
 8300TIP3    H124853   7.044   0.280   3.789  0.6395  1.0684  0.1177
 8300TIP3    H224854   6.994   0.360   3.670 -0.0071 -0.2284 -0.4937
 8301TIP3   OH224855   6.679   0.681   5.859  0.0566  0.7004 -0.2136
 8301TIP3    H124856   6.610   0.688   5.792  0.8848  0.9446 -1.0559
 8301TIP3    H224857   6.726   0.601   5.836  2.0505  2.1997 -1.5940
 8302TIP3   OH224858   0.988   4.684   0.590 -0.0222 -0.0219 -0.5052
 8302TIP3    H124859   0.919   4.668   0.654  0.4669 -0.0949  0.0123
 8302TIP3    H224860   1.058   4.727   0.640  0.6509 -0.7190 -0.8369
 8303TIP3   OH224861   3.789   6.199   5.302 -0.1189 -0.2628 -0.3529
 8303TIP3    H124862   3.814   6.281   5.258 -1.1045  0.9130  1.2355
 8303TIP3    H224863   3.705   6.175   5.262 -0.8951  0.6734  0.6962
 8304TIP3   OH224864   4.328   7.307   2.729 -0.0578  0.5185 -0.2427
 8304TIP3    H124865   4.399   7.367   2.707 -0.0106  0.7811  0.6208
 8304TIP3    H224866   4.371   7.223   2.744  0.2759  1.0226  1.8315
 8305TIP3   OH224867   3.864   6.850   2.457 -0.3099 -0.6060 -0.1231
 8305TIP3    H124868   3.959   6.850   2.450 -0.2503  1.2042  0.3942
 8305TIP3    H224869   3.844   6.919   2.520 -2.0138 -0.1630 -1.0964
 8306TIP3   OH224870   6.339   0.489   2.095  0.5840 -0.3437 -0.3592
 8306TIP3    H124871   6.324   0.521   2.184  0.3337 -0.7772 -0.2456
 8306TIP3    H224872   6.349   0.569   2.043 -0.2406 -0.0757 -0.1144
 8307TIP3   OH224873   4.647   6.896   3.353 -0.0606 -0.1849  0.0971
 8307TIP3    H124874   4.583   6.866   3.289 -0.0399 -0.7690  0.3473
 8307TIP3    H224875   4.717   6.935   3.301 -1.7088  2.6269 -0.0891
 8308TIP3   OH224876   0.680   0.818   3.217  0.7407 -0.3463 -0.5229
 8308TIP3    H124877   0.590   0.805   3.187  0.1463 -2.5037  1.9909
 8308TIP3    H224878   0.727   0.740   3.188  1.9009  0.8759 -2.0255
 8309TIP3   OH224879   2.409   7.223   3.286  0.1543 -0.5469  0.4162
 8309TIP3    H124880   2.460   7.141   3.290 -0.0040 -0.5856  1.8721
 8309TIP3    H224881   2.405   7.244   3.193  1.3792 -1.4681  0.1368
 8310TIP3   OH224882   1.840   0.011   2.234  0.3104  0.3674  0.0767
 8310TIP3    H124883   1.785   0.073   2.283 -0.1288  0.5721 -0.6664
 8310TIP3    H224884   1.876   0.063   2.162  0.1418 -0.1735 -0.4043
 8311TIP3   OH224885   4.733   7.087   1.313 -0.0070 -0.0673 -0.2212
 8311TIP3    H124886   4.637   7.090   1.317  0.0189  2.3273 -0.4018
 8311TIP3    H224887   4.760   7.054   1.399 -0.9776 -0.5356 -0.0906
 8312TIP3   OH224888   7.813   1.804   2.103 -0.1669  0.0625 -0.2538
 8312TIP3    H124889   7.895   1.779   2.061 -0.4527 -1.8944  0.3168
 8312TIP3    H224890   7.810   1.752   2.183 -0.9589  1.6961  0.8153
 8313TIP3   OH224891   6.339   0.706   2.745 -0.2139 -0.0013  0.6609
 8313TIP3    H124892   6.356   0.612   2.756 -0.4849 -0.2781 -1.1402
 8313TIP3    H224893   6.245   0.715   2.759 -0.2032 -0.0102  0.7395
 8314TIP3   OH224894   0.987   0.852   3.869 -0.2212 -0.1568 -0.3787
 8314TIP3    H124895   0.990   0.845   3.773  0.5918  1.6523 -0.5117
 8314TIP3    H224896   0.976   0.762   3.899  1.2762 -0.9703 -2.1267
 8315TIP3   OH224897   6.647   0.161   3.301  0.9976 -0.4638 -0.1819
 8315TIP3    H124898   6.593   0.218   3.246  1.1823 -0.3552 -0.2546
 8315TIP3    H224899   6.585   0.113   3.356  0.8790  0.5244  0.5666
 8316TIP3   OH224900   5.191   5.966   4.203 -0.1172  0.3450  0.3333
 8316TIP3    H124901   5.207   5.879   4.238 -1.9178 -0.8863 -1.8038
 8316TIP3    H224902   5.276   5.992   4.165  0.1002 -0.9886 -0.1056
 8317TIP3   OH224903   1.296   6.526   5.036 -0.3372 -0.1887 -0.2448
 8317TIP3    H124904   1.295   6.567   5.122  0.5165 -1.2107  0.2673
 8317TIP3    H224905   1.379   6.553   4.997  0.4477 -1.7540  0.2810
 8318TIP3   OH224906   3.394   6.134   3.077  0.4012  0.5056 -0.0794
 8318TIP3    H124907   3.339   6.058   3.060  1.5935 -0.1703 -0.9315
 8318TIP3    H224908   3.379   6.154   3.170 -0.3770 -0.3829 -0.0101
 8319TIP3   OH224909   2.707   6.496   4.615  0.2251 -0.3505 -0.0803
 8319TIP3    H124910   2.786   6.540   4.584 -1.4739  0.8867 -2.8144
 8319TIP3    H224911   2.641   6.565   4.621 -0.7056 -1.3615  2.1767
 8320TIP3   OH224912   6.334   0.235   1.364  0.0549  0.0880  0.0949
 8320TIP3    H124913   6.332   0.311   1.422 -0.3617  1.1212 -1.2635
 8320TIP3    H224914   6.339   0.160   1.424 -0.2702  1.1364  1.4661
 8321TIP3   OH224915   2.257   5.881   4.899 -0.0126  0.4814 -0.3157
 8321TIP3    H124916   2.200   5.806   4.884  1.2511 -0.3173 -1.1932
 8321TIP3    H224917   2.203   5.942   4.950 -0.4900 -1.7252  1.9123
 8322TIP3   OH224918   4.418   4.676   3.582 -0.0219 -0.2889 -0.3591
 8322TIP3    H124919   4.506   4.639   3.576 -0.2004 -0.7772 -0.0218
 8322TIP3    H224920   4.396   4.672   3.675 -0.3218  0.0214 -0.4135
 8323TIP3   OH224921   4.466   6.776   3.158  0.7508 -0.8608  0.2933
 8323TIP3    H124922   4.403   6.765   3.229  0.0661 -1.8509 -0.4538
 8323TIP3    H224923   4.417   6.754   3.079  0.6439  3.0949 -0.8464
 8324TIP3   OH224924   5.160   7.246   3.310  0.0769 -0.0291 -0.0872
 8324TIP3    H124925   5.227   7.313   3.294  0.6580 -0.8214 -1.0975
 8324TIP3    H224926   5.146   7.247   3.404  2.9896 -1.2166  0.3958
 8325TIP3   OH224927   0.487   1.348   2.427  1.0749  0.0345 -0.5887
 8325TIP3    H124928   0.516   1.259   2.409 -0.6170 -0.4889 -0.7624
 8325TIP3    H224929   0.440   1.375   2.348 -2.5614 -0.6660  1.2396
 8326TIP3   OH224930   4.886   0.232   4.446 -0.0430 -0.4562  0.3585
 8326TIP3    H124931   4.915   0.152   4.402  2.6152  1.2262 -1.0535
 8326TIP3    H224932   4.875   0.296   4.376 -0.4084  0.9208  1.6422
 8327TIP3   OH224933   7.221   0.784   3.834 -0.2495  1.0173  0.6703
 8327TIP3    H124934   7.276   0.731   3.777  1.1299 -0.5760  3.3748
 8327TIP3    H224935   7.143   0.803   3.782  0.9214 -0.3992 -1.6845
 8328TIP3   OH224936   6.251   0.532   4.994  0.2738  0.3201 -0.4722
 8328TIP3    H124937   6.267   0.467   4.926  2.9506 -0.7417  1.0880
 8328TIP3    H224938   6.234   0.614   4.947 -1.4165 -1.1052 -2.4159
 8329TIP3   OH224939   7.695   1.044   2.147 -0.1119 -0.3498  0.2277
 8329TIP3    H124940   7.660   0.963   2.109  1.3451 -1.5654  1.4275
 8329TIP3    H224941   7.785   1.023   2.171  0.4908  1.8228  0.0233
 8330TIP3   OH224942   3.869   7.104   3.770 -0.0484 -0.0444  0.0618
 8330TIP3    H124943   3.797   7.165   3.757 -0.6068 -0.8975 -0.9208
 8330TIP3    H224944   3.879   7.099   3.865 -1.2724  0.0847  0.2061
 8331TIP3   OH224945   4.308   6.954   4.171  0.2004 -0.0205  0.1009
 8331TIP3    H124946   4.241   7.018   4.145 -0.0068 -0.5334 -0.6550
 8331TIP3    H224947   4.345   6.923   4.088  0.8218 -0.3291  0.4884
 8332TIP3   OH224948   7.342   0.675   2.265  0.1153 -0.4919 -0.0525
 8332TIP3    H124949   7.247   0.662   2.258 -0.2103  1.1076  1.1209
 8332TIP3    H224950   7.361   0.747   2.204  0.0086  1.4870  2.1708
 8333TIP3   OH224951   7.750   0.374   4.683 -0.1289 -0.2206  0.5009
 8333TIP3    H124952   7.671   0.425   4.696 -0.4687 -0.6460  0.1287
 8333TIP3    H224953   7.762   0.374   4.588  0.8686  0.6744  0.6117
 8334TIP3   OH224954   3.553   6.881   3.317 -0.1459 -0.3191  0.8342
 8334TIP3    H124955   3.497   6.875   3.394 -1.4307  1.0973  0.0492
 8334TIP3    H224956   3.491   6.891   3.244  1.1499  2.2168  0.0505
 8335TIP3   OH224957   7.866   2.084   2.143  0.2762  0.2541 -0.3978
 8335TIP3    H124958   7.908   2.074   2.057  0.4078 -1.2283 -0.1630
 8335TIP3    H224959   7.866   1.996   2.180 -1.8632  0.4794  0.1660
 8336TIP3   OH224960   5.555   7.228   2.515 -0.0860 -0.2043  0.1585
 8336TIP3    H124961   5.547   7.298   2.450 -1.1065 -1.1862 -0.7985
 8336TIP3    H224962   5.485   7.166   2.493 -0.6257 -0.4166  2.3844
 8337TIP3   OH224963   2.417   0.519   1.614 -0.0558 -0.3600 -0.3072
 8337TIP3    H124964   2.337   0.549   1.657  0.0910 -1.9192  1.0938
 8337TIP3    H224965   2.483   0.585   1.637 -0.4302 -0.2001  0.3012
 8338TIP3   OH224966   1.291   2.954   2.711 -0.2032  0.2756 -0.6901
 8338TIP3    H124967   1.366   2.895   2.720 -1.5699 -1.2524  0.9794
 8338TIP3    H224968   1.254   2.960   2.799 -1.6866  1.5243 -1.3607
 8339TIP3   OH224969   0.182   0.508   3.999  0.3059  0.3245 -0.5662
 8339TIP3    H124970   0.146   0.431   3.956 -0.9567  1.7354 -2.1412
 8339TIP3    H224971   0.274   0.510   3.974  0.0728 -0.0427 -1.4632
 8340TIP3   OH224972   1.034   0.502   3.687 -0.7187 -0.4661  0.3318
 8340TIP3    H124973   0.950   0.471   3.653  0.1632 -0.7917 -1.5624
 8340TIP3    H224974   1.016   0.522   3.779 -3.0465  0.1043 -0.2102
 8341TIP3   OH224975   1.846   0.860   3.005 -0.4115 -0.0546 -0.6542
 8341TIP3    H124976   1.852   0.765   3.014 -0.4550  0.2220  2.6651
 8341TIP3    H224977   1.803   0.890   3.085 -0.8881  2.7181 -1.8810
 8342TIP3   OH224978   0.033   0.309   1.293  0.0303  0.3036 -0.6542
 8342TIP3    H124979  -0.044   0.286   1.240 -0.2255  1.2606 -0.7070
 8342TIP3    H224980   0.020   0.262   1.376  0.2858 -0.9669 -1.3181
 8343TIP3   OH224981   7.305   5.447   3.609 -0.3619 -0.5698 -0.3676
 8343TIP3    H124982   7.376   5.405   3.658  1.1519  1.2846 -0.8990
 8343TIP3    H224983   7.257   5.498   3.674  1.0651  1.1182 -0.5763
 8344TIP3   OH224984   6.939   0.560   4.661  0.1844 -0.0189 -0.2930
 8344TIP3    H124985   6.947   0.467   4.641 -2.2534 -0.3023 -0.0768
 8344TIP3    H224986   7.025   0.597   4.639  0.8089 -2.1050 -1.4588
 8345TIP3   OH224987   4.006   7.155   1.108 -0.0846 -0.1868 -0.2262
 8345TIP3    H124988   4.032   7.173   1.017 -0.0560 -0.8620 -0.3493
 8345TIP3    H224989   4.011   7.241   1.151 -0.3976  0.1914 -0.9358
 8346TIP3   OH224990   6.285   7.211   3.417 -0.0035  0.0825  0.1417
 8346TIP3    H124991   6.270   7.269   3.342 -1.3035  0.4033  0.6531
 8346TIP3    H224992   6.298   7.124   3.378 -0.3727  0.2995 -0.4652
 8347TIP3   OH224993   1.872   0.669   3.335  0.4009 -0.4074 -0.1636
 8347TIP3    H124994   1.919   0.663   3.252 -0.7359 -4.0991 -0.6274
 8347TIP3    H224995   1.780   0.679   3.310  0.2182 -0.0199  0.6508
 8348TIP3   OH224996   4.058   3.387   0.898 -0.3623 -0.3943 -0.4764
 8348TIP3    H124997   4.124   3.369   0.832 -0.5941 -0.2329 -0.7572
 8348TIP3    H224998   3.976   3.392   0.848 -0.5923 -0.6539 -0.1252
 8349TIP3   OH224999   7.615   0.387   4.379 -0.2835 -0.7080  0.0290
 8349TIP3    H125000   7.569   0.469   4.363  1.3436  0.4053  0.9038
 8349TIP3    H225001   7.637   0.354   4.292  0.8034  0.8028 -0.2816
 8350TIP3   OH225002   3.602   7.112   3.113 -0.0758 -0.2782  0.3534
 8350TIP3    H125003   3.599   7.207   3.126  1.3739 -0.2033  0.2812
 8350TIP3    H225004   3.521   7.080   3.153 -0.2415  0.9206  1.0213
 8351TIP3   OH225005   6.395   1.429   4.031 -0.2120 -0.0213 -0.3761
 8351TIP3    H125006   6.354   1.472   3.956  0.3177  0.7641 -0.2249
 8351TIP3    H225007   6.443   1.499   4.075 -0.2150 -0.5540  0.4844
 8352TIP3   OH225008   4.963   6.979   2.941  0.2428 -0.2833  0.1955
 8352TIP3    H125009   4.989   6.917   2.873 -0.0161 -1.1813  0.9140
 8352TIP3    H225010   4.909   7.043   2.895  0.2466 -0.7624 -0.4837
 8353TIP3   OH225011   0.492   0.499   2.894  0.0862  0.4215 -0.3922
 8353TIP3    H125012   0.523   0.548   2.971  2.8544 -0.4337 -0.9040
 8353TIP3    H225013   0.470   0.567   2.831  0.8466  1.0947  0.0435
 8354TIP3   OH225014   5.521   7.311   0.615  0.3332 -0.2264 -0.0877
 8354TIP3    H125015   5.587   7.291   0.682 -0.1632 -1.5272  0.0406
 8354TIP3    H225016   5.570   7.319   0.534  0.6423 -1.4397 -0.0375
 8355TIP3   OH225017   7.448   0.270   1.074 -0.1418  0.0138  0.3381
 8355TIP3    H125018   7.440   0.238   0.984  2.1125 -0.9518  0.4496
 8355TIP3    H225019   7.380   0.224   1.123  0.2554 -1.3352 -0.3779
 8356TIP3   OH225020   1.715   0.656   3.619  0.2051  0.1084  0.3072
 8356TIP3    H125021   1.765   0.636   3.541  1.2727  1.1336  0.7151
 8356TIP3    H225022   1.673   0.740   3.601 -0.5003 -0.2158  0.3891
 8357TIP3   OH225023   6.234   0.647   1.887 -0.5298 -0.4545  0.1235
 8357TIP3    H125024   6.298   0.717   1.879  1.4394 -2.1033  0.9228
 8357TIP3    H225025   6.183   0.651   1.807  1.7162 -0.1867 -1.3388
 8358TIP3   OH225026   2.849   3.486   6.052  0.2745 -0.0216  0.5943
 8358TIP3    H125027   2.910   3.419   6.020 -0.6514 -0.9846  0.8174
 8358TIP3    H225028   2.820   3.531   5.972 -1.4521 -1.9223  0.1307
 8359TIP3   OH225029   3.228   6.775   2.094 -0.0244 -0.1621  0.9185
 8359TIP3    H125030   3.256   6.817   2.013  1.1059 -2.0548  0.2877
 8359TIP3    H225031   3.306   6.773   2.149 -0.1556 -1.0754  1.0882
 8360TIP3   OH225032   0.065   1.046   4.019  0.9901  0.1116 -0.0594
 8360TIP3    H125033  -0.023   1.048   4.058 -0.1843 -0.7567 -2.5395
 8360TIP3    H225034   0.106   0.967   4.056  1.1089  1.0469  1.8503
 8361TIP3   OH225035   0.707   1.123   2.688 -0.3258  0.3783  0.1553
 8361TIP3    H125036   0.802   1.108   2.694  0.2432  3.0249 -1.4573
 8361TIP3    H225037   0.677   1.057   2.625 -0.0959 -2.3315  2.7468
 8362TIP3   OH225038   7.513   0.723   3.744 -0.0213 -0.3775 -0.3953
 8362TIP3    H125039   7.512   0.749   3.652 -1.7177 -0.1185 -0.3215
 8362TIP3    H225040   7.565   0.791   3.787  1.6788 -1.0752 -1.3090
 8363TIP3   OH225041   1.384   0.937   3.365  0.0410  0.3071 -0.5024
 8363TIP3    H125042   1.300   0.892   3.359  0.7289 -1.3377  1.3063
 8363TIP3    H225043   1.362   1.025   3.397 -1.1779  0.7138 -2.4016
 8364TIP3   OH225044   6.552   7.337   0.276  0.3225 -0.0228 -0.3504
 8364TIP3    H125045   6.618   7.279   0.314 -0.9111 -0.4488  1.1887
 8364TIP3    H225046   6.516   7.288   0.203  1.1022 -0.1445 -0.6528
 8365TIP3   OH225047   1.035   2.158   2.644 -0.6201  0.0132 -0.2990
 8365TIP3    H125048   0.961   2.210   2.675 -2.0108 -0.9946 -1.8509
 8365TIP3    H225049   1.100   2.223   2.617 -1.5342  0.9269 -0.3328
 8366TIP3   OH225050   5.637   6.488   4.151  0.0619  0.4489 -0.4039
 8366TIP3    H125051   5.667   6.425   4.216 -1.9651 -1.1160 -0.9255
 8366TIP3    H225052   5.708   6.552   4.145  1.7465 -1.2410  0.8546
 8367TIP3   OH225053   3.995   6.480   4.224 -0.3352  0.3933 -0.0200
 8367TIP3    H125054   3.948   6.402   4.253 -1.0057  0.4648 -0.8684
 8367TIP3    H225055   3.930   6.550   4.229 -0.9224  0.1427 -3.0002
 8368TIP3   OH225056   7.363   7.443   3.165  0.5439 -0.1504 -0.0110
 8368TIP3    H125057   7.373   7.382   3.092 -0.7992 -1.0972  0.5805
 8368TIP3    H225058   7.291   7.501   3.139  2.3878  1.7781 -0.9535
 8369TIP3   OH225059   0.458   0.574   1.762 -0.6408 -0.3844  0.2215
 8369TIP3    H125060   0.493   0.592   1.674  0.0228  1.7936  0.9018
 8369TIP3    H225061   0.530   0.594   1.821 -2.2533  1.9549  1.4961
 8370TIP3   OH225062   7.660   0.278   2.664 -0.3180 -0.0064  0.7352
 8370TIP3    H125063   7.584   0.314   2.709  0.2283  1.0131  0.8655
 8370TIP3    H225064   7.634   0.274   2.572 -0.6421  0.0289  0.8248
 8371TIP3   OH225065   5.919   7.051   4.174 -0.3347  0.1380 -0.0551
 8371TIP3    H125066   5.947   7.045   4.266 -0.8080 -1.1061  0.0101
 8371TIP3    H225067   5.840   7.105   4.177  0.0971  0.7652  0.1710
 8372TIP3   OH225068   4.647   6.990   4.670  0.0497 -0.3291 -0.4844
 8372TIP3    H125069   4.610   7.042   4.599  1.4361  0.4351 -0.6655
 8372TIP3    H225070   4.652   6.901   4.635 -0.0904 -0.1209 -1.0286
 8373TIP3   OH225071   0.347   2.025   2.459 -0.6013  0.5060 -0.1524
 8373TIP3    H125072   0.360   2.057   2.369  0.7694 -0.6392 -0.3744
 8373TIP3    H225073   0.433   2.036   2.500 -0.6810 -0.9187  0.3911
 8374TIP3   OH225074   7.293   0.858   3.356  0.1127 -0.5335  0.4717
 8374TIP3    H125075   7.304   0.763   3.345 -0.1069 -0.6616  1.3316
 8374TIP3    H225076   7.358   0.882   3.422 -0.2342 -0.1855  0.6893
 8375TIP3   OH225077   0.306   0.960   3.739  0.4336  0.5267  0.1318
 8375TIP3    H125078   0.318   0.890   3.674 -2.2483  0.5973 -0.5327
 8375TIP3    H225079   0.388   1.009   3.738  1.0053 -0.4228 -2.0942
 8376TIP3   OH225080   6.957   7.416   3.659  0.3617  0.0056  0.1037
 8376TIP3    H125081   6.940   7.506   3.686  1.8752  0.8721 -1.7376
 8376TIP3    H225082   7.025   7.385   3.719 -1.7603 -0.7374  2.2227
 8377TIP3   OH225083   6.329   6.015   2.761  0.1807  0.3011  0.1487
 8377TIP3    H125084   6.322   6.040   2.853  1.7624 -0.4805  0.5066
 8377TIP3    H225085   6.423   6.006   2.745 -0.0894 -0.0180 -1.4239
 8378TIP3   OH225086   2.188   0.622   1.699 -0.2783  0.3775 -0.0315
 8378TIP3    H125087   2.234   0.638   1.781 -0.1841 -0.5477  0.1041
 8378TIP3    H225088   2.110   0.676   1.703  0.4200  1.3803  0.0714
 8379TIP3   OH225089   0.682   0.911   2.525  0.5380 -0.4938  0.2437
 8379TIP3    H125090   0.754   0.890   2.465  1.0897 -0.5017  0.9042
 8379TIP3    H225091   0.637   0.827   2.538 -0.7770 -0.1086 -1.7036
 8380TIP3   OH225092   1.404   2.494   3.523 -0.0345 -0.2033 -0.2353
 8380TIP3    H125093   1.396   2.414   3.472 -0.7878 -0.9224  0.9964
 8380TIP3    H225094   1.447   2.467   3.605 -0.3980  0.6177  0.2348
 8381TIP3   OH225095   6.393   1.504   2.685  0.0670 -0.1495 -0.1040
 8381TIP3    H125096   6.383   1.599   2.678  2.0868 -0.0610 -2.0558
 8381TIP3    H225097   6.480   1.491   2.721 -0.0505 -1.2798 -0.1965
 8382TIP3   OH225098   7.694   0.404   3.338 -0.0153  0.1376 -1.1572
 8382TIP3    H125099   7.691   0.452   3.420 -0.4780  1.3407 -1.8606
 8382TIP3    H225100   7.603   0.404   3.307 -0.0885 -1.4905 -1.0098
 8383TIP3   OH225101   7.299   1.216   0.521 -0.1043  0.0780 -0.5415
 8383TIP3    H125102   7.283   1.125   0.547 -0.7573  0.1637 -0.6291
 8383TIP3    H225103   7.212   1.252   0.504 -0.1296  1.5637  2.3225
 8384TIP3   OH225104   6.632   2.669   2.674  0.3743 -0.0876 -0.4582
 8384TIP3    H125105   6.542   2.641   2.691  0.3655  0.0353 -0.2995
 8384TIP3    H225106   6.687   2.602   2.716  0.3489  0.5854  0.6590
 8385TIP3   OH225107   0.464   0.238   2.811 -0.2607  0.2195 -0.1573
 8385TIP3    H125108   0.458   0.330   2.839  1.7711  0.0088  1.0761
 8385TIP3    H225109   0.451   0.188   2.892 -2.2429 -0.6297 -0.9689
 8386TIP3   OH225110   1.691   0.663   2.630  0.7848 -0.4329 -0.8032
 8386TIP3    H125111   1.626   0.610   2.676  0.5069 -0.9787 -1.8038
 8386TIP3    H225112   1.684   0.750   2.669 -0.6448 -0.4524 -0.9977
 8387TIP3   OH225113   2.915   0.656   2.295 -0.1305 -0.2056 -0.0585
 8387TIP3    H125114   2.904   0.568   2.332 -1.0272 -0.1518 -0.1798
 8387TIP3    H225115   2.850   0.710   2.340  0.2052  0.3279 -0.2081
 8388TIP3   OH225116   7.532   2.371   4.983 -0.2136  0.4038 -0.5856
 8388TIP3    H125117   7.585   2.438   5.027  1.5742  1.2988 -3.8735
 8388TIP3    H225118   7.596   2.319   4.934 -1.6940 -3.0509  0.9749
 8389TIP3   OH225119   1.266   0.946   3.875  0.3697  0.1173 -0.3616
 8389TIP3    H125120   1.171   0.932   3.871  0.2680  1.0200 -2.0373
 8389TIP3    H225121   1.303   0.859   3.885 -0.4964 -0.7428 -3.7998
 8390TIP3   OH225122   0.760   0.802   3.456  0.1230 -0.2396  0.0097
 8390TIP3    H125123   0.845   0.834   3.487  1.0363 -1.5291 -1.1017
 8390TIP3    H225124   0.755   0.831   3.365 -1.1930  0.8995  0.4289
 8391TIP3   OH225125   2.843   1.666   4.883  0.2529 -0.2142 -0.0125
 8391TIP3    H125126   2.906   1.679   4.812 -0.3631  1.5381 -0.2778
 8391TIP3    H225127   2.818   1.755   4.909  0.9606 -0.8030  2.8563
 8392TIP3   OH225128   6.441   0.488   2.600 -0.0110  0.3569 -0.3476
 8392TIP3    H125129   6.411   0.559   2.543 -0.6043  1.6999  1.5696
 8392TIP3    H225130   6.361   0.449   2.634  0.3381 -0.1536 -0.1090
 8393TIP3   OH225131   6.275   7.119   3.887 -0.1964  0.5674  0.0200
 8393TIP3    H125132   6.328   7.096   3.811  0.2129  2.3194 -0.2570
 8393TIP3    H225133   6.224   7.195   3.858 -1.1191  0.3403  1.0293
 8394TIP3   OH225134   1.967   0.179   3.670 -0.1913  0.1332  0.2846
 8394TIP3    H125135   1.980   0.186   3.764 -0.7497  2.2347  0.2284
 8394TIP3    H225136   1.879   0.214   3.655 -0.2734 -0.5767 -0.9575
 8395TIP3   OH225137   1.783   5.055   0.830 -0.4031 -0.0357  0.1362
 8395TIP3    H125138   1.733   5.057   0.912 -0.7562 -0.5383 -0.0599
 8395TIP3    H225139   1.831   4.972   0.834 -0.4988 -0.1085 -0.2090
 8396TIP3   OH225140   0.188   0.625   1.815 -0.1988 -0.4955  0.0686
 8396TIP3    H125141   0.274   0.584   1.819 -1.2178 -2.7804 -0.1832
 8396TIP3    H225142   0.130   0.555   1.782 -2.4678  0.4095  1.9744
 8397TIP3   OH225143   7.261   0.925   2.911 -0.1353  0.3700 -0.0911
 8397TIP3    H125144   7.236   1.013   2.885 -3.4163 -0.9823 -1.7131
 8397TIP3    H225145   7.354   0.918   2.886 -0.0160  3.1208 -0.4994
 8398TIP3   OH225146   6.934   1.594   3.096  0.2720 -0.7366 -0.2410
 8398TIP3    H125147   6.893   1.657   3.156 -1.0399 -1.2256 -0.6080
 8398TIP3    H225148   6.995   1.545   3.150  0.4732  0.0878  0.2938
 8399TIP3   OH225149   0.418   0.784   2.885 -0.1080  0.1325  0.3730
 8399TIP3    H125150   0.380   0.859   2.839 -3.1420 -0.5563  1.6208
 8399TIP3    H225151   0.511   0.803   2.890 -0.2398  1.9639 -2.7512
 8400TIP3   OH225152   7.039   0.872   1.458 -0.5610  0.1313  0.3000
 8400TIP3    H125153   7.076   0.878   1.547  0.6071 -0.7726 -0.0947
 8400TIP3    H225154   6.955   0.916   1.463 -0.2373  0.6113  1.7190
 8401TIP3   OH225155   0.282   0.210   4.122  0.6216 -0.1442  0.9703
 8401TIP3    H125156   0.227   0.185   4.196 -0.1177  1.2164  0.9063
 8401TIP3    H225157   0.340   0.278   4.157 -1.0844  1.9442 -0.1658
 8402TIP3   OH225158   5.039   7.060   3.538 -0.3307  0.3631  0.5674
 8402TIP3    H125159   5.080   6.997   3.478 -1.7139 -0.4177  0.4308
 8402TIP3    H225160   5.062   7.028   3.625  0.8878  0.9654  0.4754
 8403TIP3   OH225161   2.136   1.158   5.442  0.1219 -0.5903  0.2019
 8403TIP3    H125162   2.217   1.131   5.486  0.8882  0.0280 -0.8032
 8403TIP3    H225163   2.165   1.189   5.356 -1.0458  0.8674  0.3184
 8404TIP3   OH225164   3.307   1.179   3.463 -0.4199 -0.0867  0.0087
 8404TIP3    H125165   3.391   1.138   3.482 -0.9226 -1.8023 -1.3822
 8404TIP3    H225166   3.318   1.221   3.378 -0.7995  0.1831  0.0862
 8405TIP3   OH225167   1.855   1.138   1.977  0.3277 -0.3581  0.0838
 8405TIP3    H125168   1.888   1.053   1.948  0.5578  0.0388 -0.8407
 8405TIP3    H225169   1.844   1.188   1.896  0.9864  0.7839  0.6840
 8406TIP3   OH225170   6.831   1.373   1.269 -0.5735  0.6333 -0.0694
 8406TIP3    H125171   6.897   1.355   1.202 -0.4318  1.1245 -0.0620
 8406TIP3    H225172   6.873   1.350   1.352 -1.4434 -1.9684 -0.2849
 8407TIP3   OH225173   6.487   6.401   4.354  0.3456  0.3982 -0.2498
 8407TIP3    H125174   6.423   6.379   4.422  0.4460  0.5779 -0.0963
 8407TIP3    H225175   6.552   6.331   4.360  0.5126  0.5779  0.0435
 8408TIP3   OH225176   6.297   6.284   3.512 -0.3095  0.3808  0.2946
 8408TIP3    H125177   6.234   6.291   3.584  1.3217  1.6243  1.6366
 8408TIP3    H225178   6.272   6.354   3.451 -1.4801 -0.4570 -0.2131
 8409TIP3   OH225179   7.092   6.495   2.968 -0.5562 -0.0214 -0.6284
 8409TIP3    H125180   7.070   6.411   3.009 -3.0594  0.1027 -1.6142
 8409TIP3    H225181   7.131   6.472   2.884 -0.1258 -0.2162 -0.3746
 8410TIP3   OH225182   7.169   7.110   3.788 -0.1617  0.4193  0.0950
 8410TIP3    H125183   7.258   7.085   3.763 -0.6532 -0.7604 -0.4961
 8410TIP3    H225184   7.181   7.176   3.856  1.1649  0.4473 -0.1514
 8411TIP3   OH225185   5.489   5.634   1.146  0.2993 -0.5066 -0.4396
 8411TIP3    H125186   5.543   5.709   1.122 -1.2655  0.7630 -0.0789
 8411TIP3    H225187   5.493   5.632   1.242  0.7573 -1.2165 -0.4683
 8412TIP3   OH225188   6.841   6.865   1.086  0.6204  0.4890 -0.0763
 8412TIP3    H125189   6.845   6.894   1.177  1.6828 -1.1279  0.4257
 8412TIP3    H225190   6.789   6.784   1.089 -0.6191  1.2340 -1.1311
 8413TIP3   OH225191   0.714   4.645   0.113 -0.6217  0.2897  0.3432
 8413TIP3    H125192   0.734   4.636   0.206  0.5835  0.8447  0.1550
 8413TIP3    H225193   0.751   4.730   0.089 -0.9581  0.1674 -0.6298
 8414TIP3   OH225194   7.600   1.120   3.036 -0.0791 -0.2598 -0.4519
 8414TIP3    H125195   7.607   1.067   2.957  0.3628 -1.4181  0.3616
 8414TIP3    H225196   7.514   1.098   3.072 -0.1451  0.0240 -0.4366
 8415TIP3   OH225197   3.129   1.533   4.972 -0.3815  0.4097  0.3370
 8415TIP3    H125198   3.123   1.593   5.046 -1.5946  0.2592  0.3678
 8415TIP3    H225199   3.039   1.521   4.943 -0.2433 -1.9529  0.7796
 8416TIP3   OH225200   7.873   1.547   4.588 -0.1883  0.7839 -0.0229
 8416TIP3    H125201   7.827   1.499   4.520  1.0883  0.3376 -0.5736
 8416TIP3    H225202   7.929   1.608   4.541  2.7750 -1.4175  0.5128
 8417TIP3   OH225203   2.138   1.928   1.791  0.1886  0.0612 -0.0952
 8417TIP3    H125204   2.050   1.893   1.804  0.2438  0.2295  0.7885
 8417TIP3    H225205   2.140   1.955   1.699 -1.3077  1.7235  0.3187
 8418TIP3   OH225206   5.191   5.347   1.436  0.0481 -0.1654 -0.3600
 8418TIP3    H125207   5.228   5.266   1.400 -0.3113  0.1706 -1.5038
 8418TIP3    H225208   5.103   5.323   1.464 -0.4156  0.0410 -1.5887
 8419TIP3   OH225209   3.000   5.227   0.060 -0.2048  0.1695  0.4458
 8419TIP3    H125210   3.084   5.249   0.101 -0.8538  0.1341  1.8460
 8419TIP3    H225211   2.995   5.131   0.065 -0.6812  0.2262  1.0918
 8420TIP3   OH225212   3.100   3.374   6.408 -0.2357  0.0844 -0.1194
 8420TIP3    H125213   3.081   3.281   6.396 -0.2481 -0.0537  0.8712
 8420TIP3    H225214   3.036   3.419   6.353 -0.1203 -0.5025 -0.7263
 8421TIP3   OH225215   6.565   7.000   4.723  0.7550 -0.5157 -0.1316
 8421TIP3    H125216   6.626   6.950   4.778  0.3618 -1.5535 -0.6294
 8421TIP3    H225217   6.483   7.000   4.772  1.2085  1.1116  0.6642
 8422TIP3   OH225218   1.497   0.835   4.136  0.3432  0.2001  0.4214
 8422TIP3    H125219   1.415   0.857   4.179  0.3924 -0.0794  0.6609
 8422TIP3    H225220   1.478   0.754   4.088 -0.0094  1.0790 -0.9505
 8423TIP3   OH225221   1.609   0.446   4.963 -0.1578  0.0661 -0.4890
 8423TIP3    H125222   1.575   0.374   5.016 -0.9473  1.0176  0.3001
 8423TIP3    H225223   1.679   0.483   5.016 -1.8681  1.9033  0.5087
 8424TIP3   OH225224   7.434   7.406   3.649 -0.0864 -0.2262  0.2225
 8424TIP3    H125225   7.488   7.429   3.574  1.5384 -0.0471  1.4187
 8424TIP3    H225226   7.406   7.490   3.685  0.1827 -0.2836  0.5653
 8425TIP3   OH225227   1.654   2.059   5.232 -0.0237  0.0865 -0.0657
 8425TIP3    H125228   1.618   2.145   5.253 -0.3590  0.0988 -0.6768
 8425TIP3    H225229   1.749   2.072   5.233 -0.0809  0.6051 -0.7326
 8426TIP3   OH225230   1.895   0.273   5.368  0.0398  0.8620  0.0292
 8426TIP3    H125231   1.862   0.200   5.316 -0.2598  1.0573 -0.0543
 8426TIP3    H225232   1.926   0.336   5.303 -0.3129  1.0958  0.0847
 8427TIP3   OH225233   1.873   1.167   5.534  0.7235  0.6847  0.3239
 8427TIP3    H125234   1.961   1.162   5.497  0.2834 -1.1846 -0.5308
 8427TIP3    H225235   1.815   1.175   5.459  0.0680  0.3906  0.7898
 8428TIP3   OH225236   2.998   0.552   5.843 -0.5171 -0.5368 -0.2371
 8428TIP3    H125237   2.965   0.635   5.809 -0.2127  0.4566  1.8110
 8428TIP3    H225238   2.929   0.521   5.902  0.9506  0.1597  1.9140
 8429TIP3   OH225239   6.289   4.067   1.175 -0.3013 -0.3084  0.8686
 8429TIP3    H125240   6.194   4.071   1.168 -0.3815 -0.6094  1.7419
 8429TIP3    H225241   6.318   4.156   1.154 -0.7504 -0.2986  0.2801
 8430TIP3   OH225242   5.600   4.232   0.657  0.1191 -0.0232  0.3628
 8430TIP3    H125243   5.551   4.201   0.734 -0.1135 -0.6941 -0.0595
 8430TIP3    H225244   5.571   4.323   0.647  0.4700  0.2043  1.3285
 8431TIP3   OH225245   6.054   5.183   0.456  0.1131 -0.4519 -0.5528
 8431TIP3    H125246   6.106   5.228   0.390  4.1078  0.7158  3.1028
 8431TIP3    H225247   6.081   5.091   0.450  0.7258 -0.2870 -0.3405
 8432TIP3   OH225248   4.914   0.405   5.897  0.5439 -0.1820  0.4671
 8432TIP3    H125249   4.918   0.391   5.991 -0.5122 -0.1845  0.5143
 8432TIP3    H225250   4.852   0.339   5.865  0.9372 -0.2211 -0.2359
 8433TIP3   OH225251   5.964   7.335   6.155  0.3425  0.3184 -0.4898
 8433TIP3    H125252   5.907   7.392   6.207  1.6465  1.0926  0.1194
 8433TIP3    H225253   6.013   7.284   6.221 -0.7671 -1.4740 -1.0221
 8434TIP3   OH225254   0.359   1.444   4.001 -0.2032 -0.2152  0.5809
 8434TIP3    H125255   0.360   1.534   4.033  0.8667 -0.2142  0.5906
 8434TIP3    H225256   0.384   1.450   3.909  0.7871 -0.5665  0.8129
 8435TIP3   OH225257   5.786   3.265   1.122 -0.2356 -0.1210 -0.3055
 8435TIP3    H125258   5.830   3.350   1.118  1.4552 -0.9561 -0.1546
 8435TIP3    H225259   5.773   3.240   1.031 -1.1684  0.5027 -0.3501
 8436TIP3   OH225260   4.777   4.655   0.520  0.2802  0.2787 -0.2287
 8436TIP3    H125261   4.784   4.621   0.608  0.5838  0.4578 -0.1814
 8436TIP3    H225262   4.702   4.610   0.482  0.7806 -0.5621 -0.2276
 8437TIP3   OH225263   6.784   5.286   1.066 -0.5315  0.0592 -0.2472
 8437TIP3    H125264   6.804   5.368   1.112 -0.2233 -0.3028  0.2692
 8437TIP3    H225265   6.772   5.221   1.136 -0.3050 -0.4402 -0.6673
 8438TIP3   OH225266   6.265   5.311   0.324 -0.1066  0.4011  0.1524
 8438TIP3    H125267   6.290   5.402   0.336  1.3034 -0.0679  0.9624
 8438TIP3    H225268   6.341   5.261   0.355 -1.3458 -1.0591  0.9138
 8439TIP3   OH225269   5.061   4.460   0.772 -0.0702  0.3266 -0.0901
 8439TIP3    H125270   5.093   4.548   0.792  0.7770  0.4442 -1.9577
 8439TIP3    H225271   5.054   4.457   0.677  0.3104 -1.7679 -0.0799
 8440TIP3   OH225272   2.326   5.634   1.346 -0.0557 -0.0002  0.5162
 8440TIP3    H125273   2.234   5.608   1.338  0.6581 -2.7376  1.0116
 8440TIP3    H225274   2.346   5.623   1.439  0.5847  1.3837  0.5643
 8441TIP3   OH225275   6.548   4.331   0.796 -0.5395  0.3661 -0.2482
 8441TIP3    H125276   6.631   4.371   0.821 -0.5701 -0.5034  1.3017
 8441TIP3    H225277   6.572   4.246   0.758 -0.6930  0.2174 -0.0187
 8442TIP3   OH225278   7.059   5.286   0.235  0.1498  0.2474  0.4710
 8442TIP3    H125279   7.140   5.317   0.194 -1.5398  1.3666 -2.1519
 8442TIP3    H225280   7.050   5.340   0.313  2.8922 -1.2097  1.8874
 8443TIP3   OH225281   6.839   4.680   0.171 -0.2434 -0.3866 -0.2124
 8443TIP3    H125282   6.878   4.695   0.258 -2.5219  0.6820  0.6562
 8443TIP3    H225283   6.794   4.596   0.179 -3.1485  1.1722  0.6992
 8444TIP3   OH225284   4.540   0.347   5.579 -0.0223 -0.2140  0.3476
 8444TIP3    H125285   4.539   0.434   5.537 -2.2129 -0.3465  0.0872
 8444TIP3    H225286   4.508   0.363   5.668 -0.3124 -0.7216  0.3379
 8445TIP3   OH225287   6.671   5.186   5.520  0.1230 -0.1468  0.0247
 8445TIP3    H125288   6.702   5.273   5.494  0.1462 -0.6442 -1.7114
 8445TIP3    H225289   6.585   5.178   5.479  0.5166 -1.2923 -0.6054
 8446TIP3   OH225290   6.357   3.628   0.067 -0.6175 -0.3935 -0.4691
 8446TIP3    H125291   6.291   3.565   0.096 -2.0147  0.9903 -0.5780
 8446TIP3    H225292   6.415   3.639   0.142 -0.4044 -1.7628 -0.4305
 8447TIP3   OH225293   6.379   6.219   1.344  0.6958  0.1477 -0.1370
 8447TIP3    H125294   6.388   6.153   1.413  0.2967  0.0529 -0.1728
 8447TIP3    H225295   6.346   6.171   1.269  0.5978  0.3521 -0.2249
 8448TIP3   OH225296   7.148   4.926   0.094  0.1362 -0.1394  0.4619
 8448TIP3    H125297   7.084   4.855   0.093 -1.2098  1.0527  0.3918
 8448TIP3    H225298   7.231   4.884   0.116 -0.3340 -1.9658 -1.1910
 8449TIP3   OH225299   5.924   6.423   0.231  0.4810  0.2627 -0.0001
 8449TIP3    H125300   5.845   6.477   0.238  0.1285 -0.3793  1.0433
 8449TIP3    H225301   5.891   6.334   0.218  1.0425  0.0505  0.0081
 8450TIP3   OH225302   0.060   4.456   0.040 -0.0031  0.1323 -0.0595
 8450TIP3    H125303   0.111   4.415   0.110 -2.1272 -0.4514  1.2076
 8450TIP3    H225304  -0.011   4.394   0.023 -1.2423  1.6575 -0.5993
 8451TIP3   OH225305   5.887   4.807   1.461 -0.0442  0.1290 -0.3462
 8451TIP3    H125306   5.815   4.857   1.422  0.2882  0.3730 -0.6410
 8451TIP3    H225307   5.852   4.718   1.470 -0.2610  0.1690 -0.8159
 8452TIP3   OH225308   3.374   0.919   6.304  0.1828  0.8462  0.7755
 8452TIP3    H125309   3.466   0.946   6.305  0.8988 -1.4577  1.4770
 8452TIP3    H225310   3.333   0.974   6.238  2.3599  1.0322 -0.4557
 8453TIP3   OH225311   7.884   2.910   1.225 -0.1307  0.2802  0.0982
 8453TIP3    H125312   7.966   2.872   1.256  0.2022  2.1147  1.5384
 8453TIP3    H225313   7.834   2.835   1.193  1.5753 -1.0255  0.4053
 8454TIP3   OH225314   5.069   4.942   0.192 -0.6366 -0.8046 -0.2558
 8454TIP3    H125315   5.150   4.904   0.225 -0.6942 -0.6553  0.0575
 8454TIP3    H225316   5.081   5.037   0.204 -1.5941 -0.8952  1.4454
 8455TIP3   OH225317   4.740   3.955   0.083 -0.4750  0.0290 -0.5230
 8455TIP3    H125318   4.664   3.979   0.029 -0.9566 -1.1964 -0.3844
 8455TIP3    H225319   4.711   3.971   0.173 -0.1613  0.6766 -0.5310
 8456TIP3   OH225320   7.787   4.573   0.241  0.2878 -0.6504 -0.5776
 8456TIP3    H125321   7.866   4.598   0.193  0.3962  2.6105  1.1831
 8456TIP3    H225322   7.715   4.600   0.184  0.4219  0.6684 -0.1169
 8457TIP3   OH225323   6.871   4.648   0.428 -0.5089 -0.6960 -0.4615
 8457TIP3    H125324   6.888   4.575   0.487 -0.1604  0.3145  0.6920
 8457TIP3    H225325   6.917   4.722   0.467 -1.5501  0.3421 -1.1850
 8458TIP3   OH225326   1.126   3.045   0.201  0.1343  0.1112 -0.4092
 8458TIP3    H125327   1.202   3.026   0.256 -0.5725 -0.0306  0.5384
 8458TIP3    H225328   1.086   2.959   0.185  0.3031  0.1567 -1.1046
 8459TIP3   OH225329   1.316   0.969   0.534 -0.0696  0.3231 -0.1719
 8459TIP3    H125330   1.303   0.951   0.627 -0.0812 -0.9621 -0.4046
 8459TIP3    H225331   1.370   1.048   0.532 -0.7334  0.8119  0.9126
 8460TIP3   OH225332   3.026   2.661   1.364 -0.3753 -0.5744  0.3616
 8460TIP3    H125333   3.044   2.668   1.270 -2.1794  0.2331  0.0548
 8460TIP3    H225334   3.030   2.751   1.396 -1.6145 -0.6390  0.7009
 8461TIP3   OH225335   0.883   5.313   0.113 -0.5184  0.4730 -0.0863
 8461TIP3    H125336   0.820   5.257   0.158 -2.0086  1.1807 -1.2546
 8461TIP3    H225337   0.962   5.260   0.105 -1.0152 -0.4828  1.2522
 8462TIP3   OH225338   6.193   3.578   5.408 -0.2793  0.6025 -0.2036
 8462TIP3    H125339   6.225   3.492   5.434  0.6286  0.9818 -0.0358
 8462TIP3    H225340   6.268   3.637   5.422 -0.1817  1.0368 -2.4425
 8463TIP3   OH225341   7.805   5.285   1.000  0.0035  0.0089 -0.3764
 8463TIP3    H125342   7.838   5.370   1.030  0.8077 -0.7607  0.9772
 8463TIP3    H225343   7.720   5.276   1.044  0.5954 -0.5489  0.6504
 8464TIP3   OH225344   6.134   3.465   0.699 -0.3743 -0.0228  0.0230
 8464TIP3    H125345   6.227   3.485   0.691 -0.3273  0.0080  0.6856
 8464TIP3    H225346   6.119   3.455   0.792 -1.0756  0.1432 -0.0692
 8465TIP3   OH225347   4.380   4.121   0.758 -0.0076 -0.0270 -0.4532
 8465TIP3    H125348   4.457   4.162   0.719  0.4991  0.5359  1.0793
 8465TIP3    H225349   4.371   4.038   0.713  1.0880  0.2160 -1.1274
 8466TIP3   OH225350   7.077   3.050   0.544  0.3901  0.1000 -0.5084
 8466TIP3    H125351   7.065   3.132   0.498 -0.0550  0.3594  0.0722
 8466TIP3    H225352   7.007   2.993   0.511 -1.6841  1.1879  1.9025
 8467TIP3   OH225353   3.705   1.491   6.327 -0.1769 -0.2496  0.1256
 8467TIP3    H125354   3.650   1.428   6.375  0.1071 -0.6609 -0.0873
 8467TIP3    H225355   3.774   1.514   6.388  0.4065 -1.0727 -0.2220
 8468TIP3   OH225356   0.146   7.172   4.078 -0.3581 -1.0825 -0.1718
 8468TIP3    H125357   0.111   7.084   4.066 -1.1377 -0.8533  0.3847
 8468TIP3    H225358   0.069   7.229   4.077  0.1810 -0.3438 -1.0389
 8469TIP3   OH225359   6.479   3.023   0.095  0.7890 -0.4789 -0.0694
 8469TIP3    H125360   6.423   2.949   0.072  0.9416 -1.6347  2.9915
 8469TIP3    H225361   6.556   3.013   0.039 -0.2343 -1.2542 -1.3764
 8470TIP3   OH225362   7.656   4.098   1.906  0.4000 -0.1591 -0.1398
 8470TIP3    H125363   7.717   4.144   1.848  1.8175 -2.2641 -0.3850
 8470TIP3    H225364   7.699   4.099   1.992  0.6156 -1.2993 -0.2259
 8471TIP3   OH225365   7.342   7.380   6.204  0.8740  0.5223  0.0328
 8471TIP3    H125366   7.264   7.402   6.256  0.3203 -0.9442 -0.1723
 8471TIP3    H225367   7.396   7.460   6.208 -1.5043  2.2581 -1.4491
 8472TIP3   OH225368   5.233   1.391   6.133 -0.7901  0.3785 -0.3086
 8472TIP3    H125369   5.219   1.485   6.130 -1.2169  0.3211 -0.2520
 8472TIP3    H225370   5.327   1.380   6.147 -0.7268  0.7942 -0.4196
 8473TIP3   OH225371   2.682   2.666   5.210  0.0512  0.0020 -0.2637
 8473TIP3    H125372   2.756   2.670   5.272  1.0121  0.4890 -1.4190
 8473TIP3    H225373   2.693   2.743   5.155 -1.4541  0.1846 -0.3273
 8474TIP3   OH225374   5.366   5.163   1.582  0.0861 -0.3232  0.1729
 8474TIP3    H125375   5.341   5.243   1.536 -0.9676 -1.4120 -1.2003
 8474TIP3    H225376   5.298   5.151   1.648  0.5734  0.2219  0.7840
 8475TIP3   OH225377   1.136   1.496   5.843 -0.3602 -0.3838 -0.3061
 8475TIP3    H125378   1.165   1.577   5.800  0.9415 -0.9532 -0.5323
 8475TIP3    H225379   1.156   1.427   5.779 -1.5546 -0.8687 -0.1552
 8476TIP3   OH225380   7.688   4.253   0.980 -0.5655 -0.1283  0.0511
 8476TIP3    H125381   7.739   4.284   0.906 -0.5193  0.0530  0.1581
 8476TIP3    H225382   7.604   4.226   0.942 -0.4238 -0.3441 -0.1114
 8477TIP3   OH225383   6.788   3.820   0.517 -0.2857 -0.1698 -0.0852
 8477TIP3    H125384   6.856   3.865   0.568 -2.1849  2.0667  0.5699
 8477TIP3    H225385   6.801   3.850   0.427 -1.4069  1.6268  0.3139
 8478TIP3   OH225386   6.411   3.489   1.470  0.6803 -0.0023 -0.7688
 8478TIP3    H125387   6.438   3.398   1.486  0.3424  0.1230  0.5573
 8478TIP3    H225388   6.379   3.489   1.379 -0.8067 -1.5689 -0.2646
 8479TIP3   OH225389   6.511   6.284   5.463 -0.1520 -0.0692  0.5192
 8479TIP3    H125390   6.531   6.370   5.426 -1.0510  0.8036  2.0097
 8479TIP3    H225391   6.595   6.251   5.494  0.1470  0.4240  0.2343
 8480TIP3   OH225392   0.459   5.142   0.334  0.2387  0.2423  0.3449
 8480TIP3    H125393   0.419   5.181   0.411 -1.1296  1.6597 -1.0583
 8480TIP3    H225394   0.447   5.207   0.265  2.0877 -0.6917 -0.9034
 8481TIP3   OH225395   0.443   5.583   6.223 -0.2136  0.2305  0.0864
 8481TIP3    H125396   0.363   5.635   6.223 -0.2191  0.2825  2.9033
 8481TIP3    H225397   0.440   5.533   6.304  2.1286 -0.5199 -0.2430
 8482TIP3   OH225398   2.838   5.118   1.616 -0.2224 -0.0042 -0.2934
 8482TIP3    H125399   2.800   5.125   1.704  0.0463 -0.9194 -0.0948
 8482TIP3    H225400   2.791   5.183   1.564 -0.5919  0.3345  0.4592
 8483TIP3   OH225401   6.895   2.869   0.920 -0.1064 -0.0019 -0.5995
 8483TIP3    H125402   6.904   2.805   0.991 -2.1999 -0.0283 -0.3260
 8483TIP3    H225403   6.863   2.818   0.846  1.1653  0.2004 -1.3046
 8484TIP3   OH225404   4.153   2.699   0.970  0.3301 -0.2662  0.0380
 8484TIP3    H125405   4.086   2.661   1.027  0.3057 -1.7052 -0.9222
 8484TIP3    H225406   4.222   2.633   0.968  1.7687  1.1739  0.9526
 8485TIP3   OH225407   6.540   4.633   1.031 -0.3050  0.1928  0.8078
 8485TIP3    H125408   6.602   4.658   0.963 -0.3937 -0.0654  0.6316
 8485TIP3    H225409   6.454   4.656   0.996 -0.3630 -0.0798  0.7676
 8486TIP3   OH225410   2.092   0.725   6.173 -0.2614  0.4521  0.0390
 8486TIP3    H125411   2.027   0.742   6.105 -0.9257 -0.8661  0.3059
 8486TIP3    H225412   2.040   0.700   6.249  0.5816 -2.0694 -0.1646
 8487TIP3   OH225413   0.607   6.990   6.451 -0.4796 -0.0403 -0.1085
 8487TIP3    H125414   0.675   7.047   6.414 -2.4513  1.8981 -0.8172
 8487TIP3    H225415   0.584   6.930   6.380 -1.8333  1.4545 -0.9532
 8488TIP3   OH225416   3.638   3.722   0.254 -0.1351  0.3447 -0.6996
 8488TIP3    H125417   3.714   3.778   0.267 -1.2028  1.9009 -0.9419
 8488TIP3    H225418   3.657   3.674   0.174  0.9413  0.1257 -0.3145
 8489TIP3   OH225419   3.565   0.684   6.210  0.5780  0.6063 -0.0109
 8489TIP3    H125420   3.563   0.622   6.137 -1.9293  0.4561  0.1587
 8489TIP3    H225421   3.510   0.645   6.277  2.9394  0.7049  2.0516
 8490TIP3   OH225422   6.865   6.104   1.327 -0.5103  0.0542 -0.0710
 8490TIP3    H125423   6.951   6.141   1.308 -0.0815  0.9204  3.2127
 8490TIP3    H225424   6.803   6.172   1.300  0.0134  0.8412  0.6799
 8491TIP3   OH225425   7.521   4.996   0.464  0.0472  0.2221 -0.0584
 8491TIP3    H125426   7.519   4.901   0.453  1.8908  0.1141  0.3505
 8491TIP3    H225427   7.614   5.017   0.478 -0.3891  2.0276  0.3105
 8492TIP3   OH225428   4.971   3.556   0.339  0.0293 -0.5814  0.0330
 8492TIP3    H125429   4.879   3.547   0.315  0.2416 -0.1816 -0.9456
 8492TIP3    H225430   5.006   3.467   0.335 -0.1367 -0.6295 -0.3030
 8493TIP3   OH225431   7.011   4.283   1.666  0.0575 -0.2816 -0.3592
 8493TIP3    H125432   7.030   4.236   1.585  1.1930 -0.6051  0.0837
 8493TIP3    H225433   7.005   4.214   1.732  0.4426  0.0882  0.0622
 8494TIP3   OH225434   5.993   5.737   1.581  0.2062  0.2701  0.3055
 8494TIP3    H125435   5.960   5.817   1.541  0.0275  0.6714  1.2349
 8494TIP3    H225436   5.926   5.712   1.644  0.6015 -0.2061  0.5432
 8495TIP3   OH225437   4.936   3.269   0.343 -0.0938 -0.5110 -0.2248
 8495TIP3    H125438   4.926   3.285   0.436  0.7371  0.0505 -0.2305
 8495TIP3    H225439   4.955   3.176   0.336 -2.8079 -1.1079 -0.0319
 8496TIP3   OH225440   7.730   5.269   0.207 -0.4125  0.6675 -0.3241
 8496TIP3    H125441   7.670   5.196   0.223  0.0933  0.4958  0.9011
 8496TIP3    H225442   7.692   5.316   0.133 -2.0949  0.5943  0.4676
 8497TIP3   OH225443   5.204   2.763   5.628  0.4520  0.0303  0.3793
 8497TIP3    H125444   5.191   2.759   5.723  0.5466  0.6632  0.4196
 8497TIP3    H225445   5.124   2.803   5.594  0.4196 -0.1911  0.1905
 8498TIP3   OH225446   3.865   1.202   6.356  0.3011 -0.4469  0.4918
 8498TIP3    H125447   3.830   1.254   6.429 -0.2336 -0.7622  0.4609
 8498TIP3    H225448   3.940   1.156   6.394 -0.3369 -1.0733  1.0081
 8499TIP3   OH225449   0.596   6.218   0.321  0.3230 -0.1194  0.0057
 8499TIP3    H125450   0.662   6.158   0.286  1.1330 -0.5211  2.2022
 8499TIP3    H225451   0.516   6.165   0.326  0.5346 -0.4391  0.0431
 8500TIP3   OH225452   7.638   5.473   0.356  0.1827 -0.2967  0.4985
 8500TIP3    H125453   7.628   5.447   0.447  1.8037 -0.0350  0.7679
 8500TIP3    H225454   7.695   5.406   0.318 -3.3984 -2.5135 -1.3077
 8501TIP3   OH225455   3.459   3.919   6.236 -0.2910  0.1854 -0.4472
 8501TIP3    H125456   3.424   3.927   6.325  0.0588 -2.4062 -0.0508
 8501TIP3    H225457   3.500   4.004   6.219  0.1923  0.4928  2.0856
 8502TIP3   OH225458   4.666   6.295   1.682  0.5289 -0.1479 -0.4790
 8502TIP3    H125459   4.676   6.304   1.588  2.3025 -0.3003 -0.3132
 8502TIP3    H225460   4.622   6.211   1.694 -0.1090  0.0839 -1.1779
 8503TIP3   OH225461   1.552   3.638   6.132 -0.5471  0.2480  0.5066
 8503TIP3    H125462   1.509   3.698   6.071  1.5837  1.1095 -0.2232
 8503TIP3    H225463   1.516   3.660   6.218 -0.2523  2.1920  0.1614
 8504TIP3   OH225464   4.165   1.853   5.089 -0.4613 -0.0630 -0.2023
 8504TIP3    H125465   4.138   1.901   5.168  2.4335 -0.5847  1.1695
 8504TIP3    H225466   4.159   1.917   5.019 -1.4411  0.8851  0.7116
 8505TIP3   OH225467   5.900   4.875   0.981  0.2693  0.0089  0.1512
 8505TIP3    H125468   5.821   4.821   0.972 -0.3156  1.0960 -1.5978
 8505TIP3    H225469   5.955   4.848   0.907  0.7555  0.5027  0.3364
 8506TIP3   OH225470   6.820   5.919   0.233 -0.0043  0.5542  0.2134
 8506TIP3    H125471   6.801   6.012   0.244  0.9980  0.6733  1.0607
 8506TIP3    H225472   6.786   5.878   0.312 -2.1591 -0.0800 -1.0221
 8507TIP3   OH225473   0.031   5.438   2.543  0.2631  0.3424  0.0742
 8507TIP3    H125474   0.019   5.510   2.605 -0.1929  0.9270 -0.6879
 8507TIP3    H225475   0.074   5.478   2.468  1.7566 -0.5729  0.4171
 8508TIP3   OH225476   2.237   2.071   6.216 -0.0006  0.5579  0.4529
 8508TIP3    H125477   2.239   1.975   6.218 -0.4206  0.4509 -2.2126
 8508TIP3    H225478   2.313   2.096   6.163  0.3437  1.7139  1.4839
 8509TIP3   OH225479   4.572   3.157   0.313 -0.5889 -0.2027 -0.4040
 8509TIP3    H125480   4.497   3.108   0.279 -1.2606  0.1613  0.5431
 8509TIP3    H225481   4.636   3.089   0.335 -0.8560 -0.5482 -0.6682
 8510TIP3   OH225482   5.170   6.856   0.511 -0.7509  0.1222 -0.1910
 8510TIP3    H125483   5.246   6.818   0.468 -0.7760  0.9952 -1.0422
 8510TIP3    H225484   5.198   6.943   0.538 -1.8332  1.0128 -1.7851
 8511TIP3   OH225485   6.316   4.925   0.517 -0.7777 -0.6385  0.4061
 8511TIP3    H125486   6.293   4.912   0.609 -0.8746  0.0449  0.4827
 8511TIP3    H225487   6.239   4.897   0.468 -2.1390  2.3527  0.6866
 8512TIP3   OH225488   2.781   2.852   5.617  0.6712 -0.1355  0.3035
 8512TIP3    H125489   2.785   2.803   5.534  1.3542  0.4021  0.0180
 8512TIP3    H225490   2.687   2.861   5.633  0.5235  0.0105 -0.5730
 8513TIP3   OH225491   6.551   5.758   0.897  0.1210 -0.0616  0.2151
 8513TIP3    H125492   6.561   5.696   0.969  1.0243 -1.4687 -1.0882
 8513TIP3    H225493   6.459   5.784   0.899 -0.2018 -1.2444  0.9427
 8514TIP3   OH225494   3.608   0.931   6.053  0.0425 -1.2275  0.4125
 8514TIP3    H125495   3.634   0.980   6.130 -0.2635 -0.7980  0.2411
 8514TIP3    H225496   3.554   0.859   6.087  0.6010 -1.5269  0.6732
 8515TIP3   OH225497   2.549   0.968   5.380  0.1792  0.0535 -0.4347
 8515TIP3    H125498   2.506   1.011   5.306 -0.1220  0.1168 -0.2294
 8515TIP3    H225499   2.481   0.965   5.448  1.0549  1.9318  0.5903
 8516TIP3   OH225500   4.844   2.802   1.459  0.1223  0.4334 -0.3089
 8516TIP3    H125501   4.888   2.841   1.534  1.3477 -2.3264  0.4856
 8516TIP3    H225502   4.751   2.814   1.477  0.4557  3.0255 -0.1719
 8517TIP3   OH225503   1.827   3.080   4.696 -0.1009  0.3613 -0.7165
 8517TIP3    H125504   1.827   3.152   4.760  0.1473 -0.1813 -0.0933
 8517TIP3    H225505   1.888   3.107   4.628  3.2757 -1.0645  1.6105
 8518TIP3   OH225506   7.684   6.682   4.804 -0.5497  0.3949  0.5141
 8518TIP3    H125507   7.776   6.699   4.824 -0.2719 -1.6493  1.0625
 8518TIP3    H225508   7.641   6.679   4.889 -1.1038  1.1588  0.2681
 8519TIP3   OH225509   1.531   6.792   4.775  0.4213  0.4846 -0.2053
 8519TIP3    H125510   1.576   6.709   4.793 -0.2617 -0.0972 -1.1435
 8519TIP3    H225511   1.439   6.768   4.769  0.2894  1.2194 -1.0791
 8520TIP3   OH225512   7.234   2.059   0.150 -0.0849  0.0502 -0.3759
 8520TIP3    H125513   7.284   2.000   0.206  0.8044 -0.4092 -1.6361
 8520TIP3    H225514   7.169   2.003   0.107 -1.5354  0.5964  1.0421
 8521TIP3   OH225515   6.705   4.007   1.792 -0.5291  0.3258 -0.1689
 8521TIP3    H125516   6.632   4.044   1.841 -0.2667  0.1016  0.4067
 8521TIP3    H225517   6.737   4.079   1.738 -1.3056  0.3612 -0.5776
 8522TIP3   OH225518   6.800   5.103   0.180 -0.5348  0.0002  0.1192
 8522TIP3    H125519   6.804   5.071   0.270 -0.7910 -1.5317 -0.3895
 8522TIP3    H225520   6.773   5.026   0.129 -0.4168  0.8567 -1.2561
 8523TIP3   OH225521   1.877   1.259   6.384  0.4953  0.4156  0.2505
 8523TIP3    H125522   1.914   1.210   6.458  0.7852 -0.1989 -0.2994
 8523TIP3    H225523   1.948   1.263   6.320 -0.8250 -2.1255 -1.4809
 8524TIP3   OH225524   0.092   6.603   5.938 -0.1878 -0.0945  0.0465
 8524TIP3    H125525   0.003   6.636   5.951  0.1039  1.2201 -1.1103
 8524TIP3    H225526   0.145   6.682   5.925  1.0405 -0.8916  0.1371
 8525TIP3   OH225527   6.250   3.688   0.466  0.0387 -0.4653  0.4619
 8525TIP3    H125528   6.197   3.663   0.391  0.7742  0.5231 -0.4001
 8525TIP3    H225529   6.320   3.623   0.469  0.7923  0.2845 -0.5492
 8526TIP3   OH225530   4.106   0.105   6.396  0.2405 -0.6088 -0.2080
 8526TIP3    H125531   4.164   0.093   6.471  0.8296 -0.7111 -0.6734
 8526TIP3    H225532   4.059   0.022   6.389  0.2751 -0.6437 -0.0221
 8527TIP3   OH225533   3.132   0.925   5.657 -0.5673  0.4086  0.0014
 8527TIP3    H125534   3.154   0.873   5.735  0.4046 -0.9727 -1.1660
 8527TIP3    H225535   3.081   0.998   5.691 -2.3957 -1.5768  1.6511
 8528TIP3   OH225536   0.774   4.293   0.749 -0.3529  0.4878  0.2203
 8528TIP3    H125537   0.839   4.262   0.813  0.4203  0.0046 -0.7853
 8528TIP3    H225538   0.797   4.385   0.734 -0.0051  0.3639 -0.0068
 8529TIP3   OH225539   5.108   3.766   0.488  0.0016 -0.2232  0.8776
 8529TIP3    H125540   5.074   3.689   0.441  1.1285 -1.4975  2.0923
 8529TIP3    H225541   5.077   3.755   0.578 -4.8510  3.8421 -0.0755
 8530TIP3   OH225542   6.242   5.752   0.542 -0.1477  0.1571  0.2678
 8530TIP3    H125543   6.303   5.826   0.548 -0.0354  0.0210  0.8254
 8530TIP3    H225544   6.174   5.782   0.482  0.3888  0.3668 -0.2484
 8531TIP3   OH225545   5.240   5.431   1.059 -0.1743  0.1907 -0.3956
 8531TIP3    H125546   5.257   5.402   1.149  0.7488 -1.5978 -1.1337
 8531TIP3    H225547   5.267   5.523   1.058 -2.1826  0.8515  1.7029
 8532TIP3   OH225548   6.644   5.484   0.445  0.3399  0.2271  0.4131
 8532TIP3    H125549   6.551   5.499   0.424  0.3867 -0.0583 -0.0087
 8532TIP3    H225550   6.691   5.541   0.384  0.5255 -1.7301 -1.3272
 8533TIP3   OH225551   5.072   1.440   6.359  0.7760 -0.0925 -0.5109
 8533TIP3    H125552   5.127   1.437   6.437 -0.0642 -0.3306  0.0789
 8533TIP3    H225553   5.130   1.412   6.288  0.8096 -2.4981  0.4437
 8534TIP3   OH225554   4.570   2.488   4.717  0.1129 -0.4851 -0.1930
 8534TIP3    H125555   4.604   2.459   4.801 -0.2240  0.4306  0.2696
 8534TIP3    H225556   4.518   2.566   4.738  1.0986  0.5224 -1.4074
 8535TIP3   OH225557   4.047   1.914   5.848  0.4448  0.2519  0.1293
 8535TIP3    H125558   4.030   1.913   5.754  1.7202  1.5846 -0.1494
 8535TIP3    H225559   4.001   1.838   5.882 -1.0300  0.4206 -1.3979
 8536TIP3   OH225560   1.098   7.333   5.341  0.1285 -0.2284 -0.3410
 8536TIP3    H125561   1.011   7.353   5.376  0.0223 -1.0098 -0.1587
 8536TIP3    H225562   1.080   7.302   5.252  0.1562 -1.0726 -0.0590
 8537TIP3   OH225563   1.078   5.095   0.087 -0.3351 -1.0035 -0.0948
 8537TIP3    H125564   1.148   5.097   0.153 -1.0218 -0.0745  0.6344
 8537TIP3    H225565   1.124   5.103   0.004  0.3407  1.6061  0.4663
 8538TIP3   OH225566   5.037   1.854   5.851 -0.3029  0.4229  0.6904
 8538TIP3    H125567   5.022   1.934   5.902 -1.4490 -0.3537  1.6111
 8538TIP3    H225568   5.129   1.832   5.865 -0.4138  0.6539  1.7856
 8539TIP3   OH225569   7.476   3.896   0.273  0.3874  0.3208 -0.9079
 8539TIP3    H125570   7.406   3.846   0.233 -1.5003  3.0579 -1.1374
 8539TIP3    H225571   7.538   3.912   0.202  0.9822 -1.5714 -0.8436
 8540TIP3   OH225572   3.087   6.508   5.802 -0.4461  0.0425 -0.4550
 8540TIP3    H125573   3.010   6.522   5.747 -0.1662 -0.6440 -1.0392
 8540TIP3    H225574   3.087   6.581   5.864 -0.0351  1.6092 -2.2303
 8541TIP3   OH225575   5.125   0.101   5.214 -0.0277 -0.3706  0.4658
 8541TIP3    H125576   5.219   0.110   5.197  0.4616 -3.5236  1.1811
 8541TIP3    H225577   5.110   0.154   5.293  1.3786 -0.6542  0.9423
 8542TIP3   OH225578   6.025   3.386   1.889 -0.2759  0.1111  0.1138
 8542TIP3    H125579   6.048   3.420   1.976 -1.4623 -0.1883  0.5453
 8542TIP3    H225580   5.957   3.321   1.905  1.0084 -1.5453 -0.8299
 8543TIP3   OH225581   5.482   4.461   0.564  0.1652  0.2829 -0.2486
 8543TIP3    H125582   5.403   4.416   0.533 -0.3113 -0.1337  1.5006
 8543TIP3    H225583   5.477   4.548   0.524 -1.6353  0.5474  0.4685
 8544TIP3   OH225584   2.618   7.140   6.341  0.0381  0.9596  0.3412
 8544TIP3    H125585   2.692   7.179   6.294 -0.1638  0.6586 -0.2404
 8544TIP3    H225586   2.603   7.198   6.415  0.4221  1.3987  0.0801
 8545TIP3   OH225587   2.861   7.434   6.427  0.3515  0.1104  0.4050
 8545TIP3    H125588   2.922   7.466   6.360 -0.5972 -2.9493 -2.0037
 8545TIP3    H225589   2.905   7.359   6.466 -0.6279 -0.2904  0.7482
 8546TIP3   OH225590   7.881   6.763   1.305 -0.8524 -0.4898 -0.3662
 8546TIP3    H125591   7.853   6.848   1.339  1.8642  1.2055 -2.1985
 8546TIP3    H225592   7.882   6.706   1.382  0.6683  2.0572  1.5752
 8547TIP3   OH225593   7.201   6.190   1.808  0.3269 -0.0613 -0.4168
 8547TIP3    H125594   7.232   6.279   1.825  0.1069  0.2715 -1.7092
 8547TIP3    H225595   7.108   6.201   1.789 -0.0324 -0.7503  0.8812
 8548TIP3   OH225596   6.873   5.739   1.720 -0.2689 -0.0700 -0.5390
 8548TIP3    H125597   6.877   5.803   1.649  1.5282  2.1144  1.4880
 8548TIP3    H225598   6.964   5.715   1.736 -0.6370 -0.3408  1.2026
 8549TIP3   OH225599   7.499   4.357   2.093 -0.0731  0.6700 -0.0447
 8549TIP3    H125600   7.462   4.436   2.054  0.6701  1.3720  0.6521
 8549TIP3    H225601   7.587   4.351   2.056  0.1507  0.6047  0.4872
 8550TIP3   OH225602   4.791   1.416   6.323 -0.1836 -0.4064  0.2706
 8550TIP3    H125603   4.764   1.454   6.240 -2.0923 -1.2789  0.4639
 8550TIP3    H225604   4.880   1.448   6.337 -0.4403  1.0267 -1.3225
 8551TIP3   OH225605   6.144   2.474   6.416 -0.6447 -0.4304  0.0810
 8551TIP3    H125606   6.224   2.514   6.451 -1.5358  0.2951  1.3479
 8551TIP3    H225607   6.132   2.395   6.470 -0.5125 -0.8048 -0.4370
 8552TIP3   OH225608   4.485   3.710   0.145 -0.5784 -0.0049 -0.1497
 8552TIP3    H125609   4.497   3.759   0.227  0.2646 -0.7851  0.2135
 8552TIP3    H225610   4.428   3.637   0.170 -1.0350  0.2458 -0.4629
 8553TIP3   OH225611   6.621   4.485   0.161  0.1583 -0.3819  0.6898
 8553TIP3    H125612   6.592   4.436   0.084 -0.4220 -0.5128  0.9923
 8553TIP3    H225613   6.550   4.546   0.180  0.2062 -0.4969  1.2515
 8554TIP3   OH225614   7.458   5.252   1.570 -0.0712  0.2427  0.3241
 8554TIP3    H125615   7.483   5.213   1.486  0.0348  0.9254  0.0422
 8554TIP3    H225616   7.541   5.268   1.615 -0.0953  0.6336  0.2260
 8555TIP3   OH225617   1.580   7.112   6.176 -0.0721  0.8069  0.3884
 8555TIP3    H125618   1.654   7.140   6.122 -0.6503 -0.2413 -1.0182
 8555TIP3    H225619   1.505   7.114   6.116 -1.0127  0.9983  1.5524
 8556TIP3   OH225620   1.911   2.029   5.335  0.6219  0.1525  0.4125
 8556TIP3    H125621   1.965   1.958   5.301 -0.8211 -0.6660 -0.2597
 8556TIP3    H225622   1.956   2.109   5.307  1.2529 -0.5067 -0.5161
 8557TIP3   OH225623   6.651   6.502   1.579 -0.4685  0.3413  0.1530
 8557TIP3    H125624   6.705   6.572   1.616 -0.4247  0.5760 -0.3484
 8557TIP3    H225625   6.709   6.426   1.575 -0.5833  0.2150  0.9159
 8558TIP3   OH225626   5.043   5.728   0.890  0.5313 -0.3305 -0.1907
 8558TIP3    H125627   5.015   5.639   0.909  0.2239 -0.2943 -0.4653
 8558TIP3    H225628   5.138   5.727   0.899  0.5858 -0.8326 -0.8027
 8559TIP3   OH225629   3.165   2.423   6.368 -0.2312 -0.0242 -0.0829
 8559TIP3    H125630   3.173   2.377   6.285 -0.4961 -1.0560  0.4595
 8559TIP3    H225631   3.083   2.471   6.361  0.5063  1.1449 -1.0175
 8560TIP3   OH225632   7.622   3.659   0.892  0.2715  0.2664 -0.8004
 8560TIP3    H125633   7.694   3.650   0.830  0.7336 -1.7985 -0.0106
 8560TIP3    H225634   7.652   3.727   0.953  2.1614 -1.5201  0.3066
 8561TIP3   OH225635   7.051   4.898   0.960 -0.2433  0.4599  0.3653
 8561TIP3    H125636   7.084   4.982   0.928 -4.0504  0.7947 -3.1569
 8561TIP3    H225637   6.967   4.918   1.001 -0.1694 -1.3470  1.4668
 8562TIP3   OH225638   2.504   6.368   5.185  0.4559  0.2559  0.3600
 8562TIP3    H125639   2.458   6.289   5.156 -1.1366  1.2797  0.0010
 8562TIP3    H225640   2.582   6.336   5.230  0.2744 -1.4926 -0.5323
 8563TIP3   OH225641   4.513   1.431   6.395 -0.2783 -0.4279  0.0438
 8563TIP3    H125642   4.525   1.342   6.430 -0.4965 -0.9527 -1.2036
 8563TIP3    H225643   4.599   1.472   6.407 -0.4676 -0.4438  1.6110
 8564TIP3   OH225644   4.193   6.818   4.913  0.1707 -0.4709 -0.0075
 8564TIP3    H125645   4.246   6.861   4.846 -1.5270 -0.2954 -1.2721
 8564TIP3    H225646   4.182   6.884   4.981  2.2395 -0.7822  0.6575
 8565TIP3   OH225647   7.867   4.755   0.557  0.0445 -0.6373 -0.0566
 8565TIP3    H125648   7.957   4.782   0.573 -0.3696  1.5464 -1.2742
 8565TIP3    H225649   7.869   4.713   0.471 -0.5116  1.6857 -1.2469
 8566TIP3   OH225650   0.555   7.228   0.795 -0.6187  0.5613  0.0885
 8566TIP3    H125651   0.472   7.184   0.777 -0.5059  0.7475 -0.8612
 8566TIP3    H225652   0.619   7.179   0.744  0.1072 -0.4903  1.9170
 8567TIP3   OH225653   5.103   2.748   6.256  0.0516 -0.6585  0.6691
 8567TIP3    H125654   5.119   2.674   6.315  1.4986 -0.1221  0.9809
 8567TIP3    H225655   5.109   2.825   6.313  0.5440 -0.1897 -0.0066
 8568TIP3   OH225656   5.262   1.665   6.149 -0.2790 -0.0956  0.4562
 8568TIP3    H125657   5.335   1.685   6.208  0.4102 -0.2511 -0.3368
 8568TIP3    H225658   5.235   1.750   6.115  0.8390 -0.2271 -0.7803
 8569TIP3   OH225659   7.019   3.517   1.026  0.0062 -0.3318  0.0248
 8569TIP3    H125660   7.081   3.476   1.086  0.0572  0.0943  0.2642
 8569TIP3    H225661   6.934   3.505   1.068 -0.0663 -0.8363 -0.2598
 8570TIP3   OH225662   0.479   1.907   2.014  0.3905  0.1875 -0.6974
 8570TIP3    H125663   0.426   1.948   2.082 -1.1927  1.0980 -2.4475
 8570TIP3    H225664   0.416   1.866   1.954  1.7612 -0.8456 -1.4871
 8571TIP3   OH225665   5.293   0.979   6.369 -0.1768 -0.0696  0.2341
 8571TIP3    H125666   5.310   0.893   6.406 -1.0313  0.6553  2.3556
 8571TIP3    H225667   5.359   1.036   6.408 -1.8988  0.9671  1.7426
 8572TIP3   OH225668   1.401   2.566   0.995  0.0923  0.2140 -0.5533
 8572TIP3    H125669   1.328   2.571   0.933 -2.1409 -0.7607  1.8727
 8572TIP3    H225670   1.419   2.473   1.004  0.1511  0.3157  0.4906
 8573TIP3   OH225671   2.652   2.433   4.480  0.1151  0.4458 -0.2367
 8573TIP3    H125672   2.668   2.502   4.544 -0.0665  0.6154 -0.3684
 8573TIP3    H225673   2.636   2.354   4.531  1.0021  0.3552 -0.1058
 8574TIP3   OH225674   5.453   0.931   4.791  0.2927  0.3824 -0.1210
 8574TIP3    H125675   5.474   0.837   4.800  0.5036  0.3710 -0.7115
 8574TIP3    H225676   5.416   0.955   4.876 -0.3730 -0.3908 -0.1852
 8575TIP3   OH225677   4.303   1.239   5.976 -0.0493 -0.4299 -0.1347
 8575TIP3    H125678   4.323   1.304   5.908  0.8413 -1.0980 -0.5250
 8575TIP3    H225679   4.209   1.222   5.965 -0.4481  1.3328  0.4645
 8576TIP3   OH225680   2.954   0.526   6.396  0.9112  0.2641 -0.2896
 8576TIP3    H125681   2.933   0.457   6.459  1.8409 -1.1101 -1.4512
 8576TIP3    H225682   3.047   0.544   6.411  0.7033  1.1656 -0.0864
 8577TIP3   OH225683   6.069   3.301   5.312  0.0736 -0.3728  0.1602
 8577TIP3    H125684   5.976   3.281   5.299 -0.0683  0.1166  0.4262
 8577TIP3    H225685   6.087   3.272   5.402  0.3547 -1.1195 -0.1312
 8578TIP3   OH225686   0.397   5.658   0.510 -0.4133  0.0750 -0.3282
 8578TIP3    H125687   0.490   5.633   0.507 -0.2153  0.8811 -0.8698
 8578TIP3    H225688   0.385   5.691   0.599  0.5042  2.5898 -1.1137
 8579TIP3   OH225689   2.810   5.631   1.437  0.0253 -0.1803 -0.2842
 8579TIP3    H125690   2.901   5.656   1.423 -0.3919  0.1529 -2.5268
 8579TIP3    H225691   2.798   5.553   1.382 -0.1819 -2.1419  2.4434
 8580TIP3   OH225692   0.174   5.853   0.104  0.1381  0.2883 -0.1234
 8580TIP3    H125693   0.156   5.800   0.181 -1.3268  0.3177 -0.4222
 8580TIP3    H225694   0.113   5.926   0.110  0.4238  0.6150 -0.9999
 8581TIP3   OH225695   6.115   0.754   4.277  0.1143 -0.0294  0.1824
 8581TIP3    H125696   6.119   0.832   4.221 -0.5007  0.4111  0.7497
 8581TIP3    H225697   6.064   0.691   4.226 -2.1985  1.0784  1.0830
 8582TIP3   OH225698   0.749   5.115   0.243 -0.5030  0.1864  0.1340
 8582TIP3    H125699   0.660   5.151   0.247 -0.5286  0.1642 -0.2135
 8582TIP3    H225700   0.762   5.074   0.329 -0.7271  0.4278  0.2838
 8583TIP3   OH225701   1.215   4.064   1.352 -0.3912  0.5279 -0.2690
 8583TIP3    H125702   1.196   4.104   1.437  0.1017 -1.2578  0.6837
 8583TIP3    H225703   1.246   3.976   1.372  2.0337  0.8892 -2.1848
 8584TIP3   OH225704   3.967   0.189   5.842 -0.1600  0.2364  0.2521
 8584TIP3    H125705   3.967   0.227   5.930 -0.5379  1.5128 -0.2838
 8584TIP3    H225706   3.878   0.206   5.809 -0.1551 -0.6256 -0.2058
 8585TIP3   OH225707   0.922   5.605   0.703  0.3509  0.2243 -0.2001
 8585TIP3    H125708   0.911   5.564   0.789  1.6524  0.9562  0.3289
 8585TIP3    H225709   1.005   5.571   0.670  2.0454  3.2087  0.7413
 8586TIP3   OH225710   0.422   3.768   0.745  1.2996  0.7794  0.0871
 8586TIP3    H125711   0.344   3.717   0.765  1.7261  0.4202  0.8372
 8586TIP3    H225712   0.465   3.719   0.675  2.4561 -0.6753  1.7786
 8587TIP3   OH225713   6.774   4.936   0.999 -0.0745  0.0570  0.4349
 8587TIP3    H125714   6.685   4.969   1.010  0.1808  1.5041 -1.7288
 8587TIP3    H225715   6.766   4.864   0.936  0.4464  0.9881 -0.7095
 8588TIP3   OH225716   7.493   4.553   0.975  0.0928  0.6514  0.7398
 8588TIP3    H125717   7.526   4.561   0.886  1.8188  1.8727  1.4453
 8588TIP3    H225718   7.407   4.594   0.974  0.2675  0.9968 -0.2917
 8589TIP3   OH225719   7.559   5.469   2.242  0.2970 -0.2175 -0.3219
 8589TIP3    H125720   7.630   5.531   2.224  0.4332 -0.4012 -0.4097
 8589TIP3    H225721   7.566   5.403   2.174 -0.3346  0.0906 -0.6991
 8590TIP3   OH225722   7.613   4.341   0.266  0.2120 -0.5561 -0.5646
 8590TIP3    H125723   7.690   4.286   0.280  0.4970  0.1252  0.7094
 8590TIP3    H225724   7.649   4.430   0.257 -0.4063 -0.2574 -0.1058
 8591TIP3   OH225725   6.491   2.190   4.379 -0.4253 -0.0266  0.2328
 8591TIP3    H125726   6.582   2.199   4.406 -0.0664 -1.2515 -0.5353
 8591TIP3    H225727   6.491   2.211   4.285 -1.2523  1.7608  0.5923
 8592TIP3   OH225728   0.173   4.344   1.474  0.3373 -0.2854  0.8221
 8592TIP3    H125729   0.145   4.433   1.452  0.2884 -0.8319 -1.4173
 8592TIP3    H225730   0.099   4.289   1.452  1.4721 -1.2158 -0.7827
 8593TIP3   OH225731   4.422   2.044   6.000 -0.4480 -0.0518 -0.1978
 8593TIP3    H125732   4.455   1.957   5.980  0.8403  0.2762  0.4249
 8593TIP3    H225733   4.358   2.030   6.070  1.9841 -0.2157  2.0818
 8594TIP3   OH225734   1.639   7.313   2.113 -0.0785  0.1109  0.1285
 8594TIP3    H125735   1.580   7.302   2.188  0.0976 -1.3842  0.0645
 8594TIP3    H225736   1.587   7.286   2.038  0.6201 -0.9962  0.0428
 8595TIP3   OH225737   6.472   0.963   6.135 -0.3780 -0.0873 -0.6992
 8595TIP3    H125738   6.386   0.968   6.177 -1.1066 -0.1861 -2.1733
 8595TIP3    H225739   6.453   0.947   6.043  1.2385 -1.0584 -0.8867
 8596TIP3   OH225740   0.928   6.458   2.519 -0.4644 -0.0949 -0.2419
 8596TIP3    H125741   0.872   6.505   2.458 -1.7988  0.1303  1.1014
 8596TIP3    H225742   1.009   6.508   2.522 -0.2066 -0.3768 -2.1592
 8597TIP3   OH225743   4.319   1.112   6.224  0.1072  0.1022 -0.2694
 8597TIP3    H125744   4.305   1.025   6.188 -1.5052  0.9661 -1.7864
 8597TIP3    H225745   4.352   1.163   6.150 -0.4990  1.1795  0.1945
 8598TIP3   OH225746   5.378   1.440   3.924  0.3561  0.0814 -0.0763
 8598TIP3    H125747   5.467   1.403   3.928  0.9144  1.3262 -0.6537
 8598TIP3    H225748   5.385   1.510   3.860 -1.1257  0.0209 -0.3065
 8599TIP3   OH225749   1.779   6.559   1.484  0.2525 -0.0520 -0.4060
 8599TIP3    H125750   1.730   6.565   1.402  0.1621  0.0820 -0.3410
 8599TIP3    H225751   1.757   6.472   1.519  2.3848 -1.2500 -1.8742
 8600TIP3   OH225752   4.304   0.257   6.290 -0.2322 -0.0356 -0.3562
 8600TIP3    H125753   4.367   0.257   6.362  1.0305  2.9001 -1.3706
 8600TIP3    H225754   4.236   0.195   6.316  1.7630 -1.2924  1.9483
 8601TIP3   OH225755   0.406   4.886   0.316  0.2155  0.2062  0.5123
 8601TIP3    H125756   0.397   4.980   0.329  1.8439  0.3461  0.6835
 8601TIP3    H225757   0.500   4.870   0.319 -0.0881 -1.5555  1.3950
 8602TIP3   OH225758   0.165   6.045   0.405 -0.2583 -0.4657  0.1832
 8602TIP3    H125759   0.121   6.067   0.487 -0.8393 -0.7449 -0.0503
 8602TIP3    H225760   0.144   5.953   0.391 -0.0139 -0.4661 -0.1884
 8603TIP3   OH225761   3.943   0.150   4.877 -0.4142  0.6103  0.2820
 8603TIP3    H125762   4.029   0.173   4.913 -0.1483  1.9440 -1.1201
 8603TIP3    H225763   3.942   0.054   4.877  1.7402  0.5361 -1.0903
 8604TIP3   OH225764   0.835   3.422   0.936  0.5461  0.3429  0.1756
 8604TIP3    H125765   0.901   3.447   1.001 -0.6938 -1.3507  2.1413
 8604TIP3    H225766   0.752   3.422   0.984 -0.4895 -0.3977 -1.5600
 8605TIP3   OH225767   6.052   2.352   5.243  0.0857 -0.5850  0.3637
 8605TIP3    H125768   6.109   2.325   5.315 -0.5508 -3.0618 -0.0027
 8605TIP3    H225769   6.111   2.362   5.168  0.4229 -0.3735  0.6553
 8606TIP3   OH225770   1.503   7.125   0.999  0.4060 -0.0077  0.5872
 8606TIP3    H125771   1.437   7.061   0.973  1.6493 -0.6715 -0.9687
 8606TIP3    H225772   1.496   7.129   1.095  0.4253 -2.6044  0.7186
 8607TIP3   OH225773   4.564   2.383   6.222  0.0661  0.0865  0.0253
 8607TIP3    H125774   4.486   2.403   6.170  0.2217 -1.6465 -0.9049
 8607TIP3    H225775   4.550   2.293   6.253  1.1187  0.2153  0.9156
 8608TIP3   OH225776   4.009   1.124   5.248 -0.4033 -0.5274  0.2318
 8608TIP3    H125777   4.100   1.149   5.262  0.0048 -2.3565  1.0290
 8608TIP3    H225778   3.977   1.100   5.335 -0.8124 -2.4620 -0.4184
 8609TIP3   OH225779   1.974   5.297   0.301 -0.1111  0.1063 -0.3132
 8609TIP3    H125780   2.040   5.303   0.232  0.4545  1.7227  0.3474
 8609TIP3    H225781   1.964   5.203   0.317  0.3261 -0.2507 -2.0331
 8610TIP3   OH225782   6.943   3.903   0.719  0.2530  0.2072 -0.2106
 8610TIP3    H125783   7.021   3.872   0.765 -1.6061  0.6273  3.4467
 8610TIP3    H225784   6.872   3.887   0.781 -2.5395  0.1253 -3.3322
 8611TIP3   OH225785   3.272   7.291   4.510  0.3022 -0.0061  0.5923
 8611TIP3    H125786   3.231   7.348   4.575 -1.7422  0.5102 -1.0820
 8611TIP3    H225787   3.212   7.216   4.503  0.8392 -0.3652 -0.2229
 8612TIP3   OH225788   6.761   1.927   6.078  0.3556  0.5685  0.0107
 8612TIP3    H125789   6.819   1.851   6.078 -0.2026  0.1333  0.7152
 8612TIP3    H225790   6.807   1.991   6.132 -0.1766 -0.0647  1.2374
 8613TIP3   OH225791   1.442   2.959   0.186  0.4001 -0.5467  0.1131
 8613TIP3    H125792   1.527   2.918   0.177  0.3806 -0.8099  1.0921
 8613TIP3    H225793   1.406   2.923   0.267 -0.6664 -0.4891 -0.3221
 8614TIP3   OH225794   0.985   3.610   3.841 -0.1598 -0.4475 -0.1909
 8614TIP3    H125795   1.062   3.653   3.803 -0.2481 -0.5107 -0.4427
 8614TIP3    H225796   1.021   3.540   3.895 -0.0842 -1.6871 -1.7913
 8615TIP3   OH225797   2.418   5.530   6.398 -0.1087  0.5835  0.3933
 8615TIP3    H125798   2.343   5.565   6.446 -0.9173  0.8148 -0.9826
 8615TIP3    H225799   2.379   5.481   6.326  1.0657 -0.1611  0.2548
 8616TIP3   OH225800   0.740   7.393   4.771 -0.5829 -0.4435  0.0537
 8616TIP3    H125801   0.785   7.384   4.854 -0.0755  0.5094 -0.1093
 8616TIP3    H225802   0.765   7.480   4.739  0.0460 -1.1886 -1.5662
 8617TIP3   OH225803   4.083   1.436   5.778  0.4464  0.5813  0.4089
 8617TIP3    H125804   4.127   1.351   5.769  1.2842  1.1690 -1.1652
 8617TIP3    H225805   3.996   1.414   5.811  0.4343 -0.9626 -0.6102
 8618TIP3   OH225806   0.209   5.933   1.279  0.1256 -0.0439 -0.0754
 8618TIP3    H125807   0.242   5.914   1.192 -1.4419 -1.0850 -0.4651
 8618TIP3    H225808   0.271   5.891   1.338  2.4234  2.5020 -0.5584
 8619TIP3   OH225809   1.956   7.295   5.635 -0.2697 -0.7273  0.4013
 8619TIP3    H125810   1.951   7.391   5.634  0.1966 -0.6995 -0.4089
 8619TIP3    H225811   2.049   7.277   5.651 -0.1357 -1.0200 -0.6342
 8620TIP3   OH225812   5.104   0.570   6.419 -0.2167  0.1134  0.7357
 8620TIP3    H125813   5.035   0.628   6.388 -1.3299 -0.9122  1.2494
 8620TIP3    H225814   5.068   0.529   6.497  1.6945  0.9774  2.1314
 8621TIP3   OH225815   0.864   3.082   0.207  0.3452 -0.5499 -0.0965
 8621TIP3    H125816   0.957   3.104   0.202  0.0004  0.7372 -1.1080
 8621TIP3    H225817   0.860   3.007   0.266  1.9018  0.1162  0.8689
 8622TIP3   OH225818   5.836   1.831   5.988 -0.1496 -0.1105 -0.0521
 8622TIP3    H125819   5.811   1.922   5.975  1.6309  0.8797  2.8309
 8622TIP3    H225820   5.932   1.832   5.986 -0.1096 -1.9310 -0.0564
 8623TIP3   OH225821   1.119   7.217   1.848  0.2479 -0.3274 -0.2888
 8623TIP3    H125822   1.102   7.311   1.837  0.7502 -0.0392  1.2455
 8623TIP3    H225823   1.082   7.176   1.770 -0.8398  1.0477 -0.5074
 8624TIP3   OH225824   5.341   2.497   6.080  0.2642  0.0276  0.0784
 8624TIP3    H125825   5.296   2.454   6.153  0.2419 -1.5845 -0.8493
 8624TIP3    H225826   5.408   2.551   6.121  1.6158 -2.4487  1.2568
 8625TIP3   OH225827   6.015   3.611   0.300 -0.5539 -0.2687 -0.1339
 8625TIP3    H125828   6.074   3.546   0.262 -2.0430 -1.9868  0.3757
 8625TIP3    H225829   5.984   3.663   0.226 -0.5093 -1.1393 -0.7766
 8626TIP3   OH225830   6.392   3.195   0.872  0.5380 -0.3623 -0.0953
 8626TIP3    H125831   6.340   3.268   0.905  1.0503 -0.2334  0.4132
 8626TIP3    H225832   6.478   3.232   0.853  1.6567 -1.3743  2.6903
 8627TIP3   OH225833   4.805   1.183   5.754  0.0023  0.5373  0.1683
 8627TIP3    H125834   4.762   1.139   5.681  0.9254  0.8086 -0.5525
 8627TIP3    H225835   4.742   1.178   5.826 -1.3556  1.2116 -0.9604
 8628TIP3   OH225836   1.321   4.446   0.206  0.2339  0.1236 -0.0151
 8628TIP3    H125837   1.411   4.434   0.234 -0.0570 -2.8409 -0.2217
 8628TIP3    H225838   1.269   4.435   0.286 -0.1108 -0.9259 -0.3777
 8629TIP3   OH225839   1.038   5.144   0.739  0.9109 -0.1543 -0.1101
 8629TIP3    H125840   1.085   5.093   0.805  1.2329  1.7438  1.1757
 8629TIP3    H225841   0.963   5.181   0.786  0.6525  0.4950 -1.0218
 8630TIP3   OH225842   0.135   4.542   2.772  0.1794  0.4014  0.0841
 8630TIP3    H125843   0.110   4.578   2.857 -0.2960  2.0005 -0.7109
 8630TIP3    H225844   0.117   4.449   2.779  0.1127  0.5222  1.7269
 8631TIP3   OH225845   0.811   5.278   0.854  0.1658 -0.5415  0.0946
 8631TIP3    H125846   0.737   5.243   0.804  0.3509  0.8383 -1.2008
 8631TIP3    H225847   0.770   5.333   0.921 -0.0439 -1.1714  0.4804
 8632TIP3   OH225848   5.038   2.972   5.829 -0.3847 -0.3866 -0.5260
 8632TIP3    H125849   5.031   2.888   5.874 -3.4556  0.1179  0.0666
 8632TIP3    H225850   5.114   3.015   5.871 -0.5230 -1.7021  1.1308
 8633TIP3   OH225851   5.920   2.875   6.237 -0.1541  0.1970 -0.0158
 8633TIP3    H125852   5.848   2.842   6.183  0.3300 -1.9376  0.5803
 8633TIP3    H225853   5.983   2.911   6.174 -0.8744  0.3175 -0.6719
 8634TIP3   OH225854   7.055   3.158   2.831  0.0966 -0.0310 -0.2278
 8634TIP3    H125855   7.099   3.227   2.880 -1.8504  1.8914 -1.1272
 8634TIP3    H225856   7.117   3.132   2.763  1.0639  0.3920  0.4930
 8635TIP3   OH225857   7.476   4.965   0.808 -0.8563  0.1555 -0.0980
 8635TIP3    H125858   7.538   4.970   0.735 -0.4847 -0.4541  0.1736
 8635TIP3    H225859   7.416   4.894   0.784 -1.7771  1.0777 -0.6015
 8636TIP3   OH225860   5.418   2.135   6.083 -0.1564 -0.0560  0.2220
 8636TIP3    H125861   5.471   2.182   6.019 -0.5632  1.4310  0.9398
 8636TIP3    H225862   5.481   2.089   6.137  0.2622 -0.2732 -0.4525
 8637TIP3   OH225863   0.231   3.526   2.581 -0.0640 -0.6189 -0.7617
 8637TIP3    H125864   0.188   3.523   2.495 -0.2553  1.4890 -0.7524
 8637TIP3    H225865   0.323   3.541   2.561 -0.0569 -0.4605 -0.6041
 8638TIP3   OH225866   0.999   4.104   0.760  0.1847  0.1887 -0.0681
 8638TIP3    H125867   0.994   4.031   0.698  1.7217 -0.0428  0.0595
 8638TIP3    H225868   0.957   4.070   0.839 -2.5082  0.7592 -1.1954
 8639TIP3   OH225869   7.814   2.600   5.409 -0.0489 -0.2021  0.6239
 8639TIP3    H125870   7.780   2.680   5.449 -0.1169 -0.1242  0.4165
 8639TIP3    H225871   7.859   2.631   5.330  1.3936 -0.2071  1.4286
 8640TIP3   OH225872   4.387   0.223   6.040 -0.5283  0.2106 -0.2564
 8640TIP3    H125873   4.379   0.239   6.134 -2.2448 -1.8641  0.0065
 8640TIP3    H225874   4.315   0.163   6.020  0.7692 -0.6318 -2.6002
 8641TIP3   OH225875   0.658   4.646   2.248  0.0143 -0.5951  0.3971
 8641TIP3    H125876   0.721   4.574   2.252  0.0967 -0.4582  1.8007
 8641TIP3    H225877   0.709   4.724   2.271 -0.5778 -0.4340  1.2016
 8642TIP3   OH225878   3.372   1.425   5.051 -0.1273 -0.4284  0.2041
 8642TIP3    H125879   3.300   1.475   5.014 -1.0998 -1.0987  1.1532
 8642TIP3    H225880   3.401   1.368   4.980 -0.0414  0.3645 -0.4024
 8643TIP3   OH225881   6.849   2.572   5.731  0.1816 -0.2769  0.0538
 8643TIP3    H125882   6.814   2.499   5.782 -0.4609 -0.6019 -0.8381
 8643TIP3    H225883   6.778   2.596   5.672  0.5684  0.7507 -0.0043
 8644TIP3   OH225884   6.099   2.925   6.010  0.4137 -0.4031  0.0594
 8644TIP3    H125885   6.127   2.995   5.951  0.0187 -0.6872 -0.4792
 8644TIP3    H225886   6.104   2.846   5.956 -1.2120 -0.4882  0.0098
 8645TIP3   OH225887   7.143   4.056   0.019 -0.2125 -0.1563  0.5704
 8645TIP3    H125888   7.170   4.070   0.110  1.4274  0.7010 -0.0269
 8645TIP3    H225889   7.180   4.130  -0.028  2.1750 -2.5343 -1.4311
 8646TIP3   OH225890   4.510   6.662   5.109  0.2944 -0.2309  0.2667
 8646TIP3    H125891   4.576   6.725   5.138 -0.1792  0.2046  0.3999
 8646TIP3    H225892   4.502   6.678   5.015 -0.5177  0.5646  0.4638
 8647TIP3   OH225893   0.360   5.352   1.879 -0.3290 -0.1717 -0.2754
 8647TIP3    H125894   0.428   5.366   1.814  1.6122 -0.2043  1.7065
 8647TIP3    H225895   0.399   5.292   1.942 -2.2343 -0.2817  0.8317
 8648TIP3   OH225896   7.707   5.584   1.583  0.4896 -0.0475  0.3793
 8648TIP3    H125897   7.766   5.659   1.579  0.5263 -0.0151  1.4596
 8648TIP3    H225898   7.748   5.519   1.526  1.4046  0.0956  0.8719
 8649TIP3   OH225899   6.533   1.015   6.402 -0.2259  0.5863 -0.3847
 8649TIP3    H125900   6.549   1.032   6.309 -1.0451  0.8818 -0.4743
 8649TIP3    H225901   6.609   1.052   6.447 -0.8790  2.4543 -0.7599
 8650TIP3   OH225902   5.194   1.181   5.835 -0.3325  0.0883  0.3606
 8650TIP3    H125903   5.109   1.183   5.880  0.0381 -1.4335  1.1809
 8650TIP3    H225904   5.252   1.136   5.897  0.8270  0.2274 -0.6129
 8651TIP3   OH225905   0.128   1.388   6.192 -0.4202  0.3077 -0.4250
 8651TIP3    H125906   0.088   1.305   6.166 -0.1656  0.5864 -1.7549
 8651TIP3    H225907   0.221   1.367   6.203 -0.5629  0.1367  0.5574
 8652TIP3   OH225908   7.427   0.966   5.206 -0.3309 -0.0084 -0.5873
 8652TIP3    H125909   7.399   1.011   5.286 -0.2339  1.2930 -1.2634
 8652TIP3    H225910   7.371   0.889   5.200  1.3254 -1.4776  2.0424
 8653TIP3   OH225911   6.733   1.666   5.747 -0.2413  0.1105 -0.5311
 8653TIP3    H125912   6.676   1.665   5.671 -1.1270 -3.5909  0.0827
 8653TIP3    H225913   6.680   1.705   5.817 -1.3271 -1.4869 -0.4641
 8654TIP3   OH225914   1.750   7.291   5.311 -0.0426  0.0693  0.2651
 8654TIP3    H125915   1.728   7.198   5.313  0.8267 -0.2388 -2.5964
 8654TIP3    H225916   1.845   7.293   5.317 -0.1963  0.9559  3.2001
 8655TIP3   OH225917   1.746   4.418   0.071  0.0008 -0.2275 -0.2860
 8655TIP3    H125918   1.785   4.504   0.057  0.0572 -0.2384 -0.1949
 8655TIP3    H225919   1.667   4.417   0.016 -0.3755  0.1362  0.2452
 8656TIP3   OH225920   0.744   6.249   1.215  0.0887  0.0454 -0.1500
 8656TIP3    H125921   0.690   6.235   1.293  1.0502  0.1022  0.5326
 8656TIP3    H225922   0.715   6.334   1.182 -2.4085 -1.2870 -1.5826
 8657TIP3   OH225923   4.282   1.620   5.827 -0.0361  0.1696  0.2492
 8657TIP3    H125924   4.270   1.677   5.752 -1.7643  0.1019  0.4456
 8657TIP3    H225925   4.206   1.561   5.825  0.5670 -0.6700  1.3027
 8658TIP3   OH225926   1.957   6.080   0.753  0.0711  0.2444  0.4799
 8658TIP3    H125927   1.971   6.151   0.690 -1.5862  1.5476  1.5435
 8658TIP3    H225928   1.919   6.009   0.701 -1.8038  1.5099  0.0608
 8659TIP3   OH225929   0.405   2.641   0.177 -0.5234  0.4044  0.6970
 8659TIP3    H125930   0.327   2.688   0.207 -1.8479 -0.1945 -1.7029
 8659TIP3    H225931   0.453   2.705   0.125 -1.0510 -0.1109 -0.4582
 8660TIP3   OH225932   0.077   5.446   0.152  0.0746 -0.0987  0.0218
 8660TIP3    H125933  -0.000   5.398   0.182 -0.2940 -0.5470 -1.5706
 8660TIP3    H225934   0.051   5.481   0.066  0.3348  2.9625  1.1086
 8661TIP3   OH225935   4.274   0.488   4.576  0.2784  0.0068  0.1118
 8661TIP3    H125936   4.194   0.538   4.593 -0.7846 -1.6497  0.1531
 8661TIP3    H225937   4.315   0.479   4.662  1.8470  2.9905 -0.2673
 8662TIP3   OH225938   1.278   5.745   0.586 -1.0910  0.4967 -0.0051
 8662TIP3    H125939   1.340   5.706   0.647 -2.6178 -1.4949  0.3317
 8662TIP3    H225940   1.316   5.829   0.563  0.6468  0.2539  1.8785
 8663TIP3   OH225941   7.864   5.729   0.835 -0.3496 -0.3764 -0.1314
 8663TIP3    H125942   7.873   5.809   0.887 -0.4115 -0.6717  0.3420
 8663TIP3    H225943   7.774   5.730   0.803 -0.5972 -0.6544  0.5433
 8664TIP3   OH225944   0.016   7.037   2.934 -0.1865 -0.0014  0.0258
 8664TIP3    H125945   0.040   6.945   2.930  0.4483  0.1750 -0.1996
 8664TIP3    H225946   0.078   7.076   2.996  0.0846  0.4394 -0.5138
 8665TIP3   OH225947   0.850   0.471   2.369 -0.0960  0.3100  0.4035
 8665TIP3    H125948   0.909   0.519   2.427  0.7177  0.8676 -0.8711
 8665TIP3    H225949   0.898   0.391   2.347 -0.7950 -0.3502  1.2469
 8666TIP3   OH225950   6.660   3.617   0.676  0.0871  0.5769  0.1511
 8666TIP3    H125951   6.730   3.657   0.624  0.9152 -0.5962  0.3411
 8666TIP3    H225952   6.706   3.567   0.743 -0.9178 -0.8316 -0.1945
 8667TIP3   OH225953   0.470   5.575   2.193  0.0228  0.0360  0.5349
 8667TIP3    H125954   0.518   5.498   2.165  1.1680  0.9529 -0.0709
 8667TIP3    H225955   0.380   5.559   2.164  0.4973 -0.5327 -0.6732
 8668TIP3   OH225956   6.031   2.128   5.965 -0.1089  0.1177 -0.0076
 8668TIP3    H125957   5.939   2.130   5.990  0.2697  1.4762  1.3438
 8668TIP3    H225958   6.077   2.162   6.042  1.4993 -0.3531 -0.7502
 8669TIP3   OH225959   0.407   5.818   1.449 -0.2577 -1.0027 -0.1875
 8669TIP3    H125960   0.497   5.847   1.463 -0.4126 -0.4881 -0.2198
 8669TIP3    H225961   0.409   5.723   1.461  0.2126 -0.9440  0.2058
 8670TIP3   OH225962   4.866   1.153   6.312 -0.0433  0.9279 -0.2142
 8670TIP3    H125963   4.923   1.175   6.238 -0.4382  0.7870 -0.5668
 8670TIP3    H225964   4.823   1.235   6.334  0.2293  1.0145 -0.0086
 8671TIP3   OH225965   0.925   5.563   2.038 -0.4814 -0.4701 -0.0165
 8671TIP3    H125966   0.904   5.656   2.048 -1.0161 -0.2163 -2.9690
 8671TIP3    H225967   1.019   5.558   2.050 -0.4436  0.4790  0.1245
 8672TIP3   OH225968   4.124   1.366   4.988 -0.1617  0.2394  0.3475
 8672TIP3    H125969   4.060   1.367   5.060  0.7726  3.9688  1.2415
 8672TIP3    H225970   4.100   1.440   4.934  0.4663 -1.2905 -2.0884
 8673TIP3   OH225971   2.721   0.092   0.931  0.1415  0.0345 -0.3699
 8673TIP3    H125972   2.695   0.145   1.007  0.0840  0.5802 -0.7684
 8673TIP3    H225973   2.742   0.006   0.968  3.8760  1.3885  0.7817
 8674TIP3   OH225974   7.784   3.904   1.428 -0.6120  0.2177  0.2128
 8674TIP3    H125975   7.698   3.866   1.416  0.1243 -1.7661  1.1042
 8674TIP3    H225976   7.843   3.829   1.439  1.4539  1.4718 -1.7961
 8675TIP3   OH225977   3.427   0.682   5.875 -0.0356  0.7432 -0.8431
 8675TIP3    H125978   3.501   0.709   5.821  0.8732 -0.8785 -0.4550
 8675TIP3    H225979   3.420   0.587   5.860 -1.1489  0.6499  0.1956
 8676TIP3   OH225980   0.314   6.052   2.814  0.3320  0.2429 -0.0616
 8676TIP3    H125981   0.313   6.053   2.910  1.2517  1.4378 -0.0522
 8676TIP3    H225982   0.288   5.963   2.791  0.2551 -0.1018  1.2993
 8677TIP3   OH225983   4.550   1.629   5.114  0.8925 -0.4400  0.0838
 8677TIP3    H125984   4.593   1.549   5.082 -0.4024 -0.3278 -1.9856
 8677TIP3    H225985   4.621   1.692   5.123  1.4788 -0.8868 -1.3128
 8678TIP3   OH225986   6.570   4.119   1.368 -0.5019 -0.2537  0.6886
 8678TIP3    H125987   6.635   4.086   1.305 -0.1012  1.4908  0.1556
 8678TIP3    H225988   6.599   4.085   1.452  0.1333 -0.8953  0.2230
 8679TIP3   OH225989   6.052   2.080   4.327  0.0588  0.0212 -0.2513
 8679TIP3    H125990   6.065   1.990   4.355  2.9106  0.7369  0.8914
 8679TIP3    H225991   5.984   2.114   4.386  0.8001 -0.6389  1.0027
 8680TIP3   OH225992   6.141   2.283   6.218  0.5127  0.0305 -0.0250
 8680TIP3    H125993   6.187   2.328   6.289  0.8272 -0.2090 -0.0740
 8680TIP3    H225994   6.080   2.348   6.184  0.9232  0.4030 -0.0568
 8681TIP3   OH225995   7.855   5.886   1.064 -0.2483  0.3148 -0.0845
 8681TIP3    H125996   7.943   5.920   1.078  0.2981 -1.5672  1.1849
 8681TIP3    H225997   7.817   5.882   1.152 -1.6174  1.0820 -0.6082
 8682TIP3   OH225998   1.390   4.524   0.612  0.2622 -0.1767 -0.1538
 8682TIP3    H125999   1.477   4.484   0.619  1.5120  2.4445 -0.0655
 8682TIP3    H226000   1.376   4.565   0.697 -0.5465  0.4317 -0.5792
 8683TIP3   OH226001   5.230   5.449   0.132  0.1270  0.4389  0.4172
 8683TIP3    H126002   5.271   5.518   0.080 -0.4349  0.5201  0.0806
 8683TIP3    H226003   5.248   5.474   0.223  0.3359  0.7714  0.2870
 8684TIP3   OH226004   7.694   6.384   0.929 -0.2125 -0.2111 -0.1813
 8684TIP3    H126005   7.785   6.388   0.956  0.8591 -0.5977 -3.4881
 8684TIP3    H226006   7.678   6.291   0.912 -1.2823 -0.1703  0.5806
 8685TIP3   OH226007   6.739   0.444   4.496  0.5427 -0.4810  0.4039
 8685TIP3    H126008   6.771   0.501   4.565  1.2410 -0.9349  0.4627
 8685TIP3    H226009   6.744   0.356   4.533 -0.7127 -0.5762  0.3886
 8686TIP3   OH226010   0.145   6.883   5.734  0.0983  0.2297  0.1726
 8686TIP3    H126011   0.056   6.912   5.754 -0.2751 -0.9070  0.1930
 8686TIP3    H226012   0.168   6.930   5.654 -1.0111 -0.4343 -0.5543
 8687TIP3   OH226013   3.981   1.156   5.984  0.4969  0.1349 -0.1080
 8687TIP3    H126014   3.974   1.093   6.055  0.1278  0.4683  0.1568
 8687TIP3    H226015   3.939   1.235   6.018 -0.8686 -0.1152 -1.1707
 8688TIP3   OH226016   0.374   6.597   2.820 -0.1845  0.4216  0.3464
 8688TIP3    H126017   0.381   6.502   2.825 -0.6195  0.3763  0.0626
 8688TIP3    H226018   0.433   6.622   2.749  0.0427  0.3815  0.5175
 8689TIP3   OH226019   3.380   0.356   1.079  0.4577  0.3738 -0.0034
 8689TIP3    H126020   3.425   0.368   1.162  3.2353 -1.2299 -1.1777
 8689TIP3    H226021   3.312   0.292   1.097 -1.0398  2.3756  1.6821
 8690TIP3   OH226022   1.362   3.032   1.709 -0.1151 -0.0158  0.5325
 8690TIP3    H126023   1.367   3.120   1.745 -0.9124  1.4014 -2.7095
 8690TIP3    H226024   1.440   2.988   1.743  0.6865  2.1318  1.5815
 8691TIP3   OH226025   4.236   6.646   5.157  0.6871  0.2733  0.2354
 8691TIP3    H126026   4.325   6.673   5.134  0.2527  1.3397 -0.2163
 8691TIP3    H226027   4.190   6.640   5.073 -0.0707  1.1825  0.5724
 8692TIP3   OH226028   1.573   2.771   5.271  0.1256 -0.2133 -0.2112
 8692TIP3    H126029   1.591   2.728   5.355  0.3739  1.5675  0.6844
 8692TIP3    H226030   1.659   2.799   5.240 -0.2441  1.6254  0.3485
 8693TIP3   OH226031   2.831   3.946   1.873 -0.0739  0.2133 -0.0463
 8693TIP3    H126032   2.777   4.019   1.903 -1.1344 -0.5238 -0.1403
 8693TIP3    H226033   2.815   3.876   1.937  2.9052  0.8741  1.5441
 8694TIP3   OH226034   1.221   0.497   6.389  0.4451  0.0464 -0.9421
 8694TIP3    H126035   1.180   0.417   6.356  0.1322  0.6097 -1.9574
 8694TIP3    H226036   1.181   0.568   6.338 -0.1963  0.9775  0.8020
 8695TIP3   OH226037   1.561   5.558   0.085  0.4769  0.1589 -0.1004
 8695TIP3    H126038   1.516   5.623   0.139 -1.7214 -2.0407  0.7801
 8695TIP3    H226039   1.631   5.525   0.142  0.0001 -0.0617  0.3618
 8696TIP3   OH226040   5.896   0.087   5.711  0.2834 -0.0013  0.0537
 8696TIP3    H126041   5.823   0.106   5.652  0.3894  1.3495  0.3355
 8696TIP3    H226042   5.939   0.172   5.724 -0.0790 -0.1456  2.4934
 8697TIP3   OH226043   5.856   2.048   0.017 -0.0024 -0.4277 -0.1478
 8697TIP3    H126044   5.903   2.048   0.101  0.4631 -3.0482 -0.3740
 8697TIP3    H226045   5.765   2.068   0.041  0.3784  0.2458  0.7980
 8698TIP3   OH226046   5.321   1.282   5.425 -0.2286 -0.4647  0.2539
 8698TIP3    H126047   5.343   1.332   5.504 -1.2392 -0.2738  0.4226
 8698TIP3    H226048   5.259   1.215   5.455  1.5252 -2.1885  0.1335
 8699TIP3   OH226049   5.604   4.539   1.976 -0.1214  0.1630 -0.3472
 8699TIP3    H126050   5.639   4.610   2.031  0.6158 -0.8485  0.5012
 8699TIP3    H226051   5.572   4.474   2.039  0.9832 -1.1325 -1.1128
 8700TIP3   OH226052   7.830   3.797   0.402 -0.3661  0.0417 -0.1057
 8700TIP3    H126053   7.806   3.840   0.484 -0.2800  1.3531 -0.7488
 8700TIP3    H226054   7.803   3.859   0.334 -0.2391 -0.9325 -1.0545
 8701TIP3   OH226055   0.728   2.394   1.377  0.0055 -0.0891  0.0835
 8701TIP3    H126056   0.768   2.444   1.448 -0.5255  1.5425 -0.7595
 8701TIP3    H226057   0.749   2.443   1.298 -1.1560 -0.8003 -0.6771
 8702TIP3   OH226058   7.276   3.418   0.573  0.4625 -0.7452  0.4630
 8702TIP3    H126059   7.352   3.389   0.623  0.8571  0.4360  0.5665
 8702TIP3    H226060   7.297   3.508   0.547 -0.4030 -0.8150 -0.4965
 8703TIP3   OH226061   5.872   2.368   0.697  0.1651  0.0221 -0.3081
 8703TIP3    H126062   5.777   2.377   0.689 -0.2820 -1.7175  2.4012
 8703TIP3    H226063   5.903   2.458   0.709 -1.1831  0.5674 -0.7155
 8704TIP3   OH226064   4.431   0.934   6.435 -0.8946 -0.8772  0.4607
 8704TIP3    H126065   4.481   0.934   6.353 -0.4776 -2.1774  0.7003
 8704TIP3    H226066   4.370   1.007   6.426  0.4822  0.2196 -0.1802
 8705TIP3   OH226067   4.547   2.574   5.262  0.0758 -0.2985 -0.1852
 8705TIP3    H126068   4.504   2.654   5.292  0.9065 -0.2399  0.8734
 8705TIP3    H226069   4.580   2.595   5.175  0.2399  0.4810  0.0672
 8706TIP3   OH226070   7.376   5.842   0.100  0.5650 -0.4488 -0.2975
 8706TIP3    H126071   7.365   5.766   0.157  0.9566 -0.5187 -0.3118
 8706TIP3    H226072   7.330   5.820   0.020 -0.5028 -0.1120  0.2157
 8707TIP3   OH226073   7.810   3.597   0.090  0.1640  0.3526 -0.1831
 8707TIP3    H126074   7.870   3.574   0.161 -0.2250 -1.1003 -0.3042
 8707TIP3    H226075   7.824   3.690   0.076 -0.7838  1.0020  2.7826
 8708TIP3   OH226076   4.998   0.538   4.424 -0.4153  0.1467 -0.1299
 8708TIP3    H126077   5.066   0.604   4.418 -0.1636 -0.0686  0.3221
 8708TIP3    H226078   5.019   0.476   4.354 -0.4535  0.3615 -0.3330
 8709TIP3   OH226079   4.938   6.009   6.339  0.7213 -0.1536  0.5507
 8709TIP3    H126080   4.979   6.059   6.410 -1.3761  1.4916  0.6358
 8709TIP3    H226081   4.888   6.074   6.290 -0.3343 -1.8307 -0.6273
 8710TIP3   OH226082   1.015   6.254   2.337  0.2416 -0.3359  0.0626
 8710TIP3    H126083   1.095   6.307   2.334 -0.2876  0.5389  0.8633
 8710TIP3    H226084   0.953   6.307   2.388 -0.4672 -1.5090  0.4512
 8711TIP3   OH226085   0.948   5.990   1.580 -0.1770  0.4943  0.1578
 8711TIP3    H126086   1.003   5.984   1.502 -1.0658  0.0271 -0.4387
 8711TIP3    H226087   1.005   5.963   1.652 -0.1266 -1.7038 -0.6750
 8712TIP3   OH226088   6.428   2.547   5.750 -0.3783  0.4598 -0.0014
 8712TIP3    H126089   6.488   2.567   5.821 -1.5750  0.5565  0.9994
 8712TIP3    H226090   6.370   2.623   5.745 -0.6451  0.2192 -0.7297
 8713TIP3   OH226091   5.911   1.422   5.424  0.0826 -0.2033 -0.4068
 8713TIP3    H126092   5.849   1.384   5.361  0.3806 -1.3404 -0.0320
 8713TIP3    H226093   5.924   1.353   5.489 -0.0052  0.8499  0.7566
 8714TIP3   OH226094   3.183   0.267   1.514 -0.0013  0.4081  0.2120
 8714TIP3    H126095   3.090   0.290   1.516  0.2114  1.2086  1.2347
 8714TIP3    H226096   3.222   0.320   1.583  0.9161 -1.2252  0.9783
 8715TIP3   OH226097   0.491   6.933   2.677  0.6848 -0.2875 -0.3399
 8715TIP3    H126098   0.426   6.940   2.746  0.1663  1.6874 -0.9725
 8715TIP3    H226099   0.575   6.930   2.723  0.2213 -1.7871  0.4409
 8716TIP3   OH226100   0.370   5.327   0.555  0.0034  0.2847  0.3859
 8716TIP3    H126101   0.356   5.395   0.490 -0.9175  1.5963  1.9255
 8716TIP3    H226102   0.465   5.321   0.564  0.0923  1.1528  0.0407
 8717TIP3   OH226103   3.598   7.380   5.781 -0.1095  0.0986  0.0576
 8717TIP3    H126104   3.540   7.385   5.705 -0.7885  2.3795  0.6811
 8717TIP3    H226105   3.643   7.296   5.772 -1.4340 -0.4215 -1.9451
 8718TIP3   OH226106   2.893   0.900   5.998 -0.0531  0.2405  0.1624
 8718TIP3    H126107   2.815   0.862   6.040 -0.9529  1.1584 -0.6523
 8718TIP3    H226108   2.925   0.832   5.940 -0.6044  0.0714  0.0566
 8719TIP3   OH226109   4.479   6.950   3.576 -0.2339  0.3642 -0.1285
 8719TIP3    H126110   4.522   6.934   3.492 -0.4125  2.3965 -0.6241
 8719TIP3    H226111   4.415   6.879   3.584 -1.6834  1.3169 -2.7174
 8720TIP3   OH226112   6.300   1.521   5.976  0.3342 -0.1895 -0.2992
 8720TIP3    H126113   6.375   1.465   5.958  0.7696 -0.8006  2.9822
 8720TIP3    H226114   6.336   1.592   6.029 -0.6987  1.8002 -2.2019
 8721TIP3   OH226115   7.809   4.791   0.817 -0.0538 -0.3060  0.5978
 8721TIP3    H126116   7.821   4.878   0.855 -3.4840  0.4000  0.2507
 8721TIP3    H226117   7.832   4.801   0.725 -0.3343  0.2183  0.5819
 8722TIP3   OH226118   7.417   2.653   4.494 -0.3310  0.0151  0.1544
 8722TIP3    H126119   7.323   2.660   4.474 -0.1603 -1.6352 -1.4277
 8722TIP3    H226120   7.422   2.583   4.559 -0.2227  0.2095  0.3532
 8723TIP3   OH226121   0.996   1.936   5.040 -0.1052 -0.2087 -0.0600
 8723TIP3    H126122   1.056   1.901   4.973  0.0564 -1.5989  0.7780
 8723TIP3    H226123   0.954   1.858   5.077  0.0812  0.5070  1.7063
 8724TIP3   OH226124   5.513   2.753   3.979  0.0445  0.2956 -0.6332
 8724TIP3    H126125   5.582   2.687   3.972  0.1649  0.1882  1.3131
 8724TIP3    H226126   5.557   2.836   3.962  1.4441  0.5948  3.7142
 8725TIP3   OH226127   1.586   4.432   0.283  0.4598  0.2453  0.3432
 8725TIP3    H126128   1.641   4.425   0.361 -0.2547  0.1419  0.8388
 8725TIP3    H226129   1.642   4.401   0.212  0.8699 -0.3616  0.9216
 8726TIP3   OH226130   7.231   0.637   5.797 -0.0961 -0.3788  0.1998
 8726TIP3    H126131   7.316   0.595   5.783 -0.4242 -1.4389  1.3429
 8726TIP3    H226132   7.251   0.719   5.841  0.2167 -1.3975  1.9807
 8727TIP3   OH226133   1.264   3.287   0.125 -0.6730  0.1565  0.0669
 8727TIP3    H126134   1.293   3.239   0.047 -0.3473  0.1772  0.1759
 8727TIP3    H226135   1.288   3.230   0.198 -0.6580  0.3011  0.1747
 8728TIP3   OH226136   4.547   6.403   4.498  0.2191 -0.3336  0.0202
 8728TIP3    H126137   4.582   6.449   4.574  1.0246  1.4329 -1.3884
 8728TIP3    H226138   4.615   6.340   4.474  0.2513 -0.4178  0.3306
 8729TIP3   OH226139   3.645   5.139   0.673 -0.2739 -0.0528 -0.0938
 8729TIP3    H126140   3.551   5.139   0.657 -0.0271  0.5455 -1.5730
 8729TIP3    H226141   3.656   5.189   0.754 -1.3476 -1.3652  0.8852
 8730TIP3   OH226142   0.673   0.536   6.032 -0.3977 -0.4904 -0.1907
 8730TIP3    H126143   0.639   0.449   6.050  0.6237 -1.1571 -1.4267
 8730TIP3    H226144   0.692   0.536   5.938 -0.3680  1.0540 -0.1968
 8731TIP3   OH226145   7.357   2.038   5.284 -0.6095  0.4016 -0.1091
 8731TIP3    H126146   7.350   1.949   5.250 -2.8318  0.1987  0.8354
 8731TIP3    H226147   7.350   2.094   5.207  2.2331 -0.2272 -0.8954
 8732TIP3   OH226148   5.588   2.182   5.255  0.6302  0.4063  0.3559
 8732TIP3    H126149   5.655   2.251   5.251 -0.0846  1.0477 -1.1298
 8732TIP3    H226150   5.510   2.226   5.287  0.4048  0.0962  0.2380
 8733TIP3   OH226151   4.136   4.365   0.283  0.2089  0.4744  0.2421
 8733TIP3    H126152   4.059   4.328   0.239 -0.9227  0.7075  2.0064
 8733TIP3    H226153   4.104   4.442   0.329  1.2856 -0.0191  1.8683
 8734TIP3   OH226154   5.585   7.404   4.389  0.3207 -0.2817 -0.2743
 8734TIP3    H126155   5.667   7.424   4.343  0.0574  1.3309 -0.0460
 8734TIP3    H226156   5.599   7.438   4.477 -0.6522  0.0944 -0.2693
 8735TIP3   OH226157   4.066   7.202   6.406 -0.6464  0.1269 -0.0116
 8735TIP3    H126158   3.984   7.183   6.360  0.2478 -0.2272 -1.4698
 8735TIP3    H226159   4.086   7.121   6.454 -0.0858 -0.5023 -1.2914
 8736TIP3   OH226160   7.423   0.534   6.282 -0.3735 -0.3721 -0.1461
 8736TIP3    H126161   7.423   0.441   6.259 -2.2947 -0.2908 -0.5506
 8736TIP3    H226162   7.454   0.578   6.203 -2.1493 -0.4754 -0.9178
 8737TIP3   OH226163   3.542   6.286   1.832  0.1864 -0.5191  0.3897
 8737TIP3    H126164   3.560   6.233   1.910  2.0562 -0.8050 -0.2200
 8737TIP3    H226165   3.614   6.348   1.828  0.1825 -0.6045 -1.1926
 8738TIP3   OH226166   4.024   5.464   1.188  0.4799  0.0396 -0.2353
 8738TIP3    H126167   4.018   5.371   1.208 -3.7129  0.1806 -0.4989
 8738TIP3    H226168   3.999   5.471   1.096  1.2409  1.3729 -0.3594
 8739TIP3   OH226169   2.286   4.896   0.266  0.2167  0.0789  0.4267
 8739TIP3    H126170   2.258   4.838   0.196 -2.8447  1.6784  0.2605
 8739TIP3    H226171   2.315   4.976   0.221 -0.2130  0.4922  0.8747
 8740TIP3   OH226172   7.500   2.114   5.517 -0.6545  0.1006  0.5718
 8740TIP3    H126173   7.581   2.103   5.468 -1.4170  2.5194 -1.3304
 8740TIP3    H226174   7.431   2.092   5.455 -1.5679  1.4119  1.0895
 8741TIP3   OH226175   6.474   0.893   3.955 -0.1304  0.6977  0.1143
 8741TIP3    H126176   6.552   0.839   3.946  0.5923  1.7277  0.0327
 8741TIP3    H226177   6.425   0.853   4.026  0.2569 -0.2211 -0.1314
 8742TIP3   OH226178   0.807   0.657   5.780 -0.1836  0.0949 -0.0077
 8742TIP3    H126179   0.765   0.732   5.738 -1.4705 -1.0648 -0.8403
 8742TIP3    H226180   0.813   0.592   5.711 -0.4400 -1.1053  1.0852
 8743TIP3   OH226181   7.283   2.658   6.187  0.1727  0.3707 -0.1647
 8743TIP3    H126182   7.377   2.663   6.203  0.3232 -2.9004  0.3647
 8743TIP3    H226183   7.245   2.718   6.251  1.7372 -0.9483  2.0991
 8744TIP3   OH226184   0.767   0.913   5.614  0.1629 -0.0841  0.1850
 8744TIP3    H126185   0.768   1.007   5.596 -0.5311 -0.2949 -1.0202
 8744TIP3    H226186   0.815   0.874   5.541 -0.4040 -0.7450  0.1551
 8745TIP3   OH226187   6.439   6.984   5.403 -0.1740  0.5842 -0.4441
 8745TIP3    H126188   6.517   6.960   5.454 -0.1395 -0.5742 -1.0200
 8745TIP3    H226189   6.371   6.997   5.469  0.0263 -0.3078 -0.0479
 8746TIP3   OH226190   2.559   3.580   0.431 -0.6724 -0.5562 -0.1399
 8746TIP3    H126191   2.494   3.637   0.388 -0.0420  0.3965  0.1521
 8746TIP3    H226192   2.515   3.551   0.511 -0.0169  1.7680  1.1171
 8747TIP3   OH226193   0.808   1.476   6.370 -0.0953 -0.2673  0.3475
 8747TIP3    H126194   0.851   1.562   6.367  1.3935 -0.9961  0.0726
 8747TIP3    H226195   0.874   1.418   6.408 -1.2998 -1.1706  1.0813
 8748TIP3   OH226196   7.784   5.696   0.283 -0.0457  0.6271 -0.2887
 8748TIP3    H126197   7.726   5.624   0.307  1.3396 -0.0735  1.0805
 8748TIP3    H226198   7.726   5.771   0.268 -1.2716  0.0348  1.3773
 8749TIP3   OH226199   1.454   1.985   5.439  0.4423 -0.2985  0.4673
 8749TIP3    H126200   1.529   1.982   5.380  0.1547  2.2219 -0.0925
 8749TIP3    H226201   1.478   2.049   5.506 -0.7483 -0.2844  0.8966
 8750TIP3   OH226202   4.902   0.995   1.170  0.3240 -0.0576  0.1140
 8750TIP3    H126203   4.821   0.950   1.195  0.6694 -0.4682  0.4871
 8750TIP3    H226204   4.872   1.080   1.137 -0.1955  0.2017  1.2143
 8751TIP3   OH226205   1.133   5.184   2.533 -0.2974  0.2375  0.6292
 8751TIP3    H126206   1.167   5.273   2.540  1.4527 -0.4067  0.6794
 8751TIP3    H226207   1.148   5.147   2.620  0.2815 -0.5467  0.1966
 8752TIP3   OH226208   3.845   0.983   0.866 -0.5732 -0.4882  0.6768
 8752TIP3    H126209   3.877   0.918   0.804 -0.4885  1.2053 -1.1410
 8752TIP3    H226210   3.791   0.934   0.928  0.0485 -2.3595 -0.2356
 8753TIP3   OH226211   4.361   7.046   5.843  0.6550 -0.3263 -0.1403
 8753TIP3    H126212   4.442   7.066   5.796  0.6418  1.6461  0.6282
 8753TIP3    H226213   4.390   7.020   5.931  0.4539  0.9428  0.3175
 8754TIP3   OH226214   0.726   4.380   0.066  0.0488  0.0935 -0.7737
 8754TIP3    H126215   0.728   4.474   0.084  0.1609  0.2432 -1.5814
 8754TIP3    H226216   0.800   4.345   0.116 -0.2933  0.3523 -0.0661
 8755TIP3   OH226217   1.362   6.031   0.110  0.3992  0.4510  0.0969
 8755TIP3    H126218   1.432   5.976   0.076  0.0296 -0.3024  0.5398
 8755TIP3    H226219   1.297   6.034   0.040  0.2232 -0.0427  0.2339
 8756TIP3   OH226220   5.929   1.402   5.056 -0.1166  0.2216  0.7283
 8756TIP3    H126221   5.917   1.351   4.976 -2.4218  0.4490  0.8907
 8756TIP3    H226222   5.864   1.366   5.117  0.3313  1.3108  1.8695
 8757TIP3   OH226223   4.951   1.355   5.607 -0.3387 -0.2435 -0.5544
 8757TIP3    H126224   4.900   1.310   5.674 -0.5671 -1.1901 -1.3498
 8757TIP3    H226225   4.959   1.445   5.639 -2.1231 -0.1964 -0.2035
 8758TIP3   OH226226   6.301   1.177   3.354  0.3957  0.2123 -0.1283
 8758TIP3    H126227   6.369   1.244   3.360  2.5891 -2.0031  0.5471
 8758TIP3    H226228   6.347   1.095   3.369 -2.0775 -1.5568 -1.8584
 8759TIP3   OH226229   0.469   5.977   0.241 -0.2714 -0.5248 -0.3152
 8759TIP3    H126230   0.541   5.923   0.274  0.3485 -0.4772 -1.5521
 8759TIP3    H226231   0.391   5.942   0.284  0.6516  0.3460  2.1349
 8760TIP3   OH226232   0.837   1.447   5.462  0.1840  0.4106 -0.5697
 8760TIP3    H126233   0.849   1.503   5.539  1.4001 -0.0168 -0.4384
 8760TIP3    H226234   0.764   1.486   5.415 -1.6148 -0.2209  1.6141
 8761TIP3   OH226235   7.431   1.201   4.002 -0.3672  0.1196 -0.3318
 8761TIP3    H126236   7.490   1.129   4.023  0.3941  0.7309 -0.3530
 8761TIP3    H226237   7.357   1.160   3.957 -0.2348 -0.7182  0.2193
 8762TIP3   OH226238   3.822   6.960   5.110  0.3705  0.3815  0.4208
 8762TIP3    H126239   3.746   7.006   5.146  0.0915  1.5305 -1.5650
 8762TIP3    H226240   3.883   6.954   5.183  0.3724  3.8825  0.8110
 8763TIP3   OH226241   2.415   5.117   0.135  0.4327 -0.2650 -0.1446
 8763TIP3    H126242   2.457   5.114   0.049 -0.3954 -1.9310 -0.4976
 8763TIP3    H226243   2.486   5.099   0.197  1.2891  2.1294 -0.3511
 8764TIP3   OH226244   6.654   1.095   4.986 -0.0246 -0.0928 -0.4788
 8764TIP3    H126245   6.702   1.087   5.068  1.3320  1.3659 -1.0993
 8764TIP3    H226246   6.562   1.089   5.012  0.3766  0.6200  1.1942
 8765TIP3   OH226247   2.957   7.089   5.137 -0.1038 -0.4823  0.0476
 8765TIP3    H126248   2.931   7.153   5.204  0.5397  0.9136 -1.0023
 8765TIP3    H226249   2.875   7.065   5.094 -0.3391 -0.2514  0.3620
 8766TIP3   OH226250   2.542   5.819   5.874 -0.2275 -0.2852 -0.0303
 8766TIP3    H126251   2.615   5.815   5.812 -0.1790  1.0108 -0.0769
 8766TIP3    H226252   2.507   5.907   5.863 -2.1545 -1.0853 -0.3867
 8767TIP3   OH226253   6.295   7.020   5.640  0.0999 -0.0758 -0.0983
 8767TIP3    H126254   6.252   7.105   5.646 -0.4344 -0.3963  0.6653
 8767TIP3    H226255   6.303   6.991   5.731 -0.4895 -1.2206 -0.4056
 8768TIP3   OH226256   0.552   1.855   5.172  0.4940  0.3677 -0.2080
 8768TIP3    H126257   0.636   1.890   5.200  0.3919 -1.3476  2.3086
 8768TIP3    H226258   0.487   1.903   5.223 -0.0335  1.0045 -1.4392
 8769TIP3   OH226259   7.478   0.826   4.518  0.4351  0.4516 -0.5338
 8769TIP3    H126260   7.394   0.861   4.490 -0.2768 -0.5912  0.2996
 8769TIP3    H226261   7.471   0.819   4.613  1.4753  0.4008 -0.4547
 8770TIP3   OH226262   1.260   0.399   4.059 -0.2847 -0.1681 -0.4368
 8770TIP3    H126263   1.341   0.352   4.080 -0.2962  0.1109  0.2403
 8770TIP3    H226264   1.213   0.405   4.142 -1.4441 -1.1650 -1.0084
 8771TIP3   OH226265   1.445   0.186   4.068 -0.5507  0.1567 -0.2342
 8771TIP3    H126266   1.440   0.133   3.989 -0.8654 -1.6826  0.9863
 8771TIP3    H226267   1.511   0.143   4.122 -2.0212  0.0223  1.4866
 8772TIP3   OH226268   6.632   1.086   5.485 -0.1036 -0.2582  0.1682
 8772TIP3    H126269   6.634   0.996   5.517 -1.4610 -0.0725  0.8335
 8772TIP3    H226270   6.557   1.087   5.425  0.4464  0.2168 -0.5178
 8773TIP3   OH226271   1.512   0.418   6.343  0.0432  0.0832  0.1121
 8773TIP3    H126272   1.421   0.424   6.374 -0.8328 -0.1454 -2.3482
 8773TIP3    H226273   1.559   0.483   6.395 -2.1403  2.4098 -0.7498
 8774TIP3   OH226274   0.211   0.698   5.401 -0.0794  0.3083 -0.1153
 8774TIP3    H126275   0.260   0.627   5.360  0.9683  1.2036 -0.4358
 8774TIP3    H226276   0.121   0.665   5.405  0.4924 -1.2458  0.2539
 8775TIP3   OH226277   2.624   0.251   5.513 -0.2452 -0.0615 -0.3595
 8775TIP3    H126278   2.547   0.306   5.500  0.6954  0.9795 -1.7620
 8775TIP3    H226279   2.591   0.162   5.506 -1.4181  0.3590 -0.3647
 8776TIP3   OH226280   4.748   2.130   5.773  0.0806  0.4847 -0.5994
 8776TIP3    H126281   4.765   2.206   5.717 -0.6001  1.8321  0.9747
 8776TIP3    H226282   4.666   2.095   5.740 -0.5391  1.5239 -0.1946
 8777TIP3   OH226283   6.763   2.349   5.917  0.0598  0.1024 -0.2335
 8777TIP3    H126284   6.725   2.427   5.957  1.0038  1.7381 -2.4152
 8777TIP3    H226285   6.692   2.284   5.919 -1.1912  1.4688  0.3485
 8778TIP3   OH226286   0.992   6.660   0.491 -0.2870 -0.1973  0.4828
 8778TIP3    H126287   0.953   6.744   0.466 -0.3831 -0.4858 -0.3470
 8778TIP3    H226288   0.950   6.596   0.433  0.3932 -0.7054  0.5508
 8779TIP3   OH226289   1.572   4.544   0.897 -0.2844  0.4397  0.2263
 8779TIP3    H126290   1.634   4.558   0.969 -2.2308 -0.1982  2.0730
 8779TIP3    H226291   1.564   4.449   0.890  0.4735  0.4743 -1.3746
 8780TIP3   OH226292   4.281   6.221   0.882 -0.2570 -0.6135  0.0195
 8780TIP3    H126293   4.259   6.306   0.919 -0.3971 -0.5193 -0.2770
 8780TIP3    H226294   4.197   6.178   0.869 -0.1578 -1.0004  0.6389
 8781TIP3   OH226295   2.280   5.621   0.736 -0.1711  0.5500 -0.1472
 8781TIP3    H126296   2.212   5.554   0.741 -1.0556  1.4687  0.0779
 8781TIP3    H226297   2.360   5.575   0.761 -0.8710 -0.2869  0.5673
 8782TIP3   OH226298   3.630   5.675   1.300  0.3920 -0.6864 -0.7449
 8782TIP3    H126299   3.645   5.701   1.391 -0.5174  0.6638 -0.9744
 8782TIP3    H226300   3.641   5.580   1.301  1.1470 -0.5991  0.6238
 8783TIP3   OH226301   0.738   0.352   5.826  0.0609  0.9475  0.0381
 8783TIP3    H126302   0.724   0.264   5.790  1.7748  0.2453  0.9814
 8783TIP3    H226303   0.793   0.396   5.761  0.0616  0.9622  0.0480
 8784TIP3   OH226304   5.183   0.432   5.495  0.8003 -0.0491  0.4088
 8784TIP3    H126305   5.161   0.470   5.410 -0.1307 -1.6015 -0.0735
 8784TIP3    H226306   5.135   0.486   5.558  0.9648  0.7055 -0.1104
 8785TIP3   OH226307   7.025   1.510   4.825  0.5385  1.0371 -0.8169
 8785TIP3    H126308   6.957   1.547   4.768  2.1618  2.0474 -2.1238
 8785TIP3    H226309   6.979   1.442   4.875 -1.9925  3.2607  0.0449
 8786TIP3   OH226310   7.358   1.325   5.397 -0.4015  0.3777 -0.1398
 8786TIP3    H126311   7.351   1.320   5.302  1.0147 -2.2684 -0.1394
 8786TIP3    H226312   7.443   1.366   5.413 -0.4879  0.5004  0.0146
 8787TIP3   OH226313   7.177   1.731   4.676  0.4119 -0.3608 -0.1892
 8787TIP3    H126314   7.110   1.798   4.663  0.1199 -0.5383  0.4114
 8787TIP3    H226315   7.140   1.673   4.742  1.4442 -0.0786  0.6469
 8788TIP3   OH226316   2.650   3.313   2.467 -0.5820  0.2017 -0.4136
 8788TIP3    H126317   2.556   3.315   2.486 -0.7536 -0.2913 -1.1765
 8788TIP3    H226318   2.665   3.226   2.430  0.4562 -0.2771  1.0693
 8789TIP3   OH226319   0.533   0.700   3.614  0.3530  0.9005 -0.0680
 8789TIP3    H126320   0.462   0.734   3.560  0.1665 -0.7832 -0.9025
 8789TIP3    H226321   0.613   0.720   3.564  0.2415  0.1294 -0.5674
 8790TIP3   OH226322   6.598   1.359   5.727 -0.0864  0.5143  0.2044
 8790TIP3    H126323   6.532   1.399   5.670 -0.7537  0.2710  0.8028
 8790TIP3    H226324   6.668   1.333   5.667 -0.8023  0.2147 -0.5223
 8791TIP3   OH226325   0.134   0.372   4.705  0.3421 -0.2688 -0.5063
 8791TIP3    H126326   0.176   0.428   4.771  0.3529 -0.8461 -0.0147
 8791TIP3    H226327   0.045   0.359   4.737  0.2673 -0.3356 -0.7396
 8792TIP3   OH226328   2.532   4.342   1.515  0.1072 -0.4164  0.8653
 8792TIP3    H126329   2.567   4.367   1.600  0.3350  0.2082  0.5835
 8792TIP3    H226330   2.591   4.382   1.451 -2.0734  2.0966  0.3527
 8793TIP3   OH226331   6.780   2.970   3.554 -0.7378 -0.0760  0.2079
 8793TIP3    H126332   6.798   2.895   3.497  0.5905  0.7547 -0.4957
 8793TIP3    H226333   6.778   2.933   3.642 -0.8646 -1.0667 -0.2003
 8794TIP3   OH226334   0.320   4.930   1.089  0.3274  0.1669  0.5776
 8794TIP3    H126335   0.226   4.913   1.092  0.3885 -0.0993  1.0921
 8794TIP3    H226336   0.347   4.931   1.181  0.4199  2.5938  0.5680
 8795TIP3   OH226337   3.132   4.105   0.698  0.0018 -0.1252 -0.5720
 8795TIP3    H126338   3.076   4.048   0.645  1.1138 -1.3881 -0.4071
 8795TIP3    H226339   3.221   4.072   0.684  0.3933  0.0082  1.4696
 8796TIP3   OH226340   0.077   1.843   5.891  0.4303  0.4644  0.1913
 8796TIP3    H126341   0.112   1.783   5.957  2.0876  1.1371 -0.0578
 8796TIP3    H226342   0.078   1.792   5.810  0.8823  0.5027  0.1735
 8797TIP3   OH226343   3.981   0.224   1.278 -0.2076  0.1359 -0.1656
 8797TIP3    H126344   4.050   0.245   1.215 -1.3262 -1.2848 -1.9298
 8797TIP3    H226345   3.951   0.310   1.309 -0.2753  0.9417 -2.3100
 8798TIP3   OH226346   2.273   1.443   4.522  0.1041 -0.1712 -0.1725
 8798TIP3    H126347   2.201   1.382   4.505 -0.4342 -0.3034  2.3322
 8798TIP3    H226348   2.231   1.528   4.530  0.1985 -0.2496  1.3042
 8799TIP3   OH226349   7.474   0.963   4.091  0.2916  0.1957 -0.5596
 8799TIP3    H126350   7.468   0.868   4.094  0.3058  0.1733 -1.1951
 8799TIP3    H226351   7.387   0.994   4.115  0.4208  0.0326  0.1284
 8800TIP3   OH226352   7.071   1.868   4.918 -0.0817 -0.4530  0.4638
 8800TIP3    H126353   7.042   1.955   4.892 -0.1778 -0.6774 -0.1815
 8800TIP3    H226354   6.991   1.822   4.942 -0.3846 -1.3476 -2.1301
 8801TIP3   OH226355   7.576   1.513   6.290  0.3249 -0.2742  0.2560
 8801TIP3    H126356   7.589   1.583   6.225 -1.8487 -0.3458 -0.3200
 8801TIP3    H226357   7.553   1.436   6.238  0.7304 -0.9036  1.0020
 8802TIP3   OH226358   7.671   4.302   5.243  0.0163  0.5744  0.1437
 8802TIP3    H126359   7.720   4.246   5.184  1.4499  1.3901  0.5331
 8802TIP3    H226360   7.634   4.370   5.186 -0.6122 -0.0059 -0.1424
 8803TIP3   OH226361   7.060   1.753   2.697 -0.6342 -0.7157 -0.2542
 8803TIP3    H126362   7.128   1.821   2.699 -1.1031 -0.1978 -1.5341
 8803TIP3    H226363   6.981   1.799   2.669 -1.5482 -1.3010  1.3189
 8804TIP3   OH226364   0.314   1.370   5.515  0.2383 -0.5229  0.0203
 8804TIP3    H126365   0.385   1.431   5.535  1.4187 -1.6464 -0.6612
 8804TIP3    H226366   0.253   1.379   5.588  0.4932  1.3337  0.0105
 8805TIP3   OH226367   7.067   0.400   5.781  0.1367 -0.2993  0.4897
 8805TIP3    H126368   7.066   0.400   5.877 -0.2073  1.6072  0.5047
 8805TIP3    H226369   7.113   0.480   5.757  0.6331 -0.9964 -0.9559
 8806TIP3   OH226370   0.075   0.093   5.324 -0.1266  0.2909 -0.2913
 8806TIP3    H126371   0.112   0.126   5.242 -0.2820 -1.0556 -0.9209
 8806TIP3    H226372   0.140   0.031   5.356 -0.5619 -0.0003  0.0358
 8807TIP3   OH226373   7.554   7.256   2.149 -0.0249  0.2617  0.2276
 8807TIP3    H126374   7.532   7.347   2.127 -1.1544  0.3548  1.6928
 8807TIP3    H226375   7.648   7.250   2.131  0.0072  1.6396 -0.1517
 8808TIP3   OH226376   0.538   2.891   5.253 -0.9281 -0.5993 -0.2011
 8808TIP3    H126377   0.543   2.848   5.168 -0.5397 -0.5464 -0.2098
 8808TIP3    H226378   0.494   2.828   5.310 -1.7147 -0.3985 -0.5839
 8809TIP3   OH226379   7.642   5.071   2.205  0.3294 -0.4048 -0.1159
 8809TIP3    H126380   7.647   4.979   2.234  0.2489 -0.3783 -0.0136
 8809TIP3    H226381   7.631   5.120   2.287  2.6580 -0.0937  0.0393
 8810TIP3   OH226382   7.180   2.992   5.488  0.6321 -0.0046 -0.1255
 8810TIP3    H126383   7.129   2.916   5.514 -1.0193  0.7401 -1.0509
 8810TIP3    H226384   7.167   2.998   5.393 -0.2590  2.1182  0.1076
 8811TIP3   OH226385   6.576   1.767   6.424  0.3626  0.3476  0.1049
 8811TIP3    H126386   6.564   1.728   6.337  1.5062 -0.7867  0.4417
 8811TIP3    H226387   6.671   1.763   6.438  0.2015  0.7903  1.2881
 8812TIP3   OH226388   0.365   1.293   6.214  0.0242  0.2188 -0.2180
 8812TIP3    H126389   0.361   1.250   6.299  0.0319 -0.1453 -0.4025
 8812TIP3    H226390   0.390   1.224   6.153  1.7500  0.8380 -0.2508
 8813TIP3   OH226391   3.823   4.631   0.676  0.3497 -0.0610 -0.4547
 8813TIP3    H126392   3.776   4.640   0.759 -0.5231  0.4506 -0.9944
 8813TIP3    H226393   3.786   4.700   0.620  1.7005  0.3079 -0.9057
 8814TIP3   OH226394   1.559   7.282   0.635 -0.2030 -0.1977  0.0752
 8814TIP3    H126395   1.469   7.258   0.610  0.2349 -0.7360 -1.0311
 8814TIP3    H226396   1.612   7.257   0.559  0.7001  1.4180  0.1530
 8815TIP3   OH226397   2.316   1.181   5.776 -0.0669 -0.2003  0.4757
 8815TIP3    H126398   2.356   1.124   5.842 -0.2315  0.3476  1.0568
 8815TIP3    H226399   2.312   1.267   5.818 -0.0728  0.1788 -0.2960
 8816TIP3   OH226400   1.770   6.194   0.244  0.1310  0.2649  0.3981
 8816TIP3    H126401   1.840   6.245   0.204  1.4717 -0.7663  1.3662
 8816TIP3    H226402   1.689   6.241   0.222  1.1562  1.6589 -0.4287
 8817TIP3   OH226403   7.117   2.408   6.138 -0.4358  0.6794  0.4699
 8817TIP3    H126404   7.059   2.405   6.214  1.3592 -2.0740  1.8159
 8817TIP3    H226405   7.168   2.489   6.149 -1.7766  1.4662  0.9523
 8818TIP3   OH226406   0.688   2.584   6.430 -0.2089 -0.2066 -0.5463
 8818TIP3    H126407   0.602   2.558   6.463 -0.2833  0.6575 -0.0379
 8818TIP3    H226408   0.705   2.524   6.357 -0.0530 -2.1199  1.0355
 8819TIP3   OH226409   6.938   1.568   5.273  0.2489 -0.4039  0.9042
 8819TIP3    H126410   6.890   1.615   5.205  0.3998 -2.0492 -0.3743
 8819TIP3    H226411   7.025   1.607   5.273  0.6653 -1.2899 -0.8140
 8820TIP3   OH226412   0.627   2.580   5.362 -0.2417  0.0530 -0.0659
 8820TIP3    H126413   0.705   2.631   5.382 -0.6382  0.9806 -0.8730
 8820TIP3    H226414   0.588   2.562   5.448  1.8916 -2.1083  0.4962
 8821TIP3   OH226415   5.167   2.695   5.925  0.2393  0.0142  0.3922
 8821TIP3    H126416   5.243   2.637   5.917  0.9662  0.9580  0.3763
 8821TIP3    H226417   5.117   2.659   5.999  2.2118  1.0625  2.3020
 8822TIP3   OH226418   5.447   0.915   5.508 -0.2885  0.1593 -0.0552
 8822TIP3    H126419   5.359   0.889   5.535 -0.5208 -0.0991 -1.0185
 8822TIP3    H226420   5.483   0.961   5.583 -1.5100  0.8749  0.1142
 8823TIP3   OH226421   7.628   1.703   3.357 -0.2056 -0.4171  0.2180
 8823TIP3    H126422   7.582   1.672   3.278  0.1355 -1.2549  0.3402
 8823TIP3    H226423   7.678   1.627   3.386 -0.1150 -0.0242  1.0907
 8824TIP3   OH226424   1.331   5.672   1.920  0.2328 -0.6434 -0.0883
 8824TIP3    H126425   1.358   5.593   1.874  0.3487 -1.3121  1.1013
 8824TIP3    H226426   1.273   5.642   1.989  1.5870  0.1058  1.4292
 8825TIP3   OH226427   6.140   5.775   0.181  0.1581 -0.2752  0.1583
 8825TIP3    H126428   6.079   5.785   0.253  0.5773 -0.8732  0.6028
 8825TIP3    H226429   6.090   5.801   0.103 -1.7579 -3.8727  0.0527
 8826TIP3   OH226430   5.903   1.087   0.775 -0.5005  0.2245 -0.1290
 8826TIP3    H126431   5.971   1.056   0.715  0.3507 -2.6443  2.1667
 8826TIP3    H226432   5.831   1.024   0.764 -0.2783 -0.4246  1.8797
 8827TIP3   OH226433   4.662   1.185   0.487  0.2333 -0.0620 -0.2788
 8827TIP3    H126434   4.660   1.125   0.561  0.6705  0.9786  0.5854
 8827TIP3    H226435   4.571   1.214   0.477  0.6883  2.2967  1.9399
 8828TIP3   OH226436   5.809   5.268   0.130  0.0400  0.0566 -0.0431
 8828TIP3    H126437   5.742   5.309   0.185  0.0187 -0.9671  0.6992
 8828TIP3    H226438   5.880   5.333   0.126 -1.1742  1.3544 -1.2247
 8829TIP3   OH226439   0.902   0.765   0.116 -0.4089  0.0733 -0.2430
 8829TIP3    H126440   0.869   0.831   0.176 -0.1678 -0.1439  0.1324
 8829TIP3    H226441   0.837   0.760   0.047  0.5218  2.1523 -1.3372
 8830TIP3   OH226442   5.244   6.492   0.724  0.5200 -0.0110 -0.1280
 8830TIP3    H126443   5.187   6.438   0.779 -0.9256  1.0796 -0.5435
 8830TIP3    H226444   5.285   6.429   0.664 -0.5536 -0.7615 -0.0902
 8831TIP3   OH226445   2.400   4.394   0.676  0.3471 -0.2255  0.1350
 8831TIP3    H126446   2.410   4.350   0.591  0.6349 -1.2993  0.7205
 8831TIP3    H226447   2.458   4.346   0.735 -2.2833 -1.5281  1.7184
 8832TIP3   OH226448   1.793   3.838   6.102 -0.1418  0.0609  0.0783
 8832TIP3    H126449   1.826   3.774   6.040 -0.7539  1.1404 -1.3933
 8832TIP3    H226450   1.703   3.856   6.073 -0.3540  0.7669  1.1229
 8833TIP3   OH226451   6.030   0.381   0.729  0.6192  0.2508 -0.5084
 8833TIP3    H126452   6.108   0.375   0.785  0.3134  1.3330  0.0447
 8833TIP3    H226453   6.006   0.290   0.713  2.0844 -0.1049 -0.8111
 8834TIP3   OH226454   3.478   6.473   2.307 -0.5890 -0.6220 -0.1148
 8834TIP3    H126455   3.446   6.383   2.307  0.8822 -1.1564 -0.7481
 8834TIP3    H226456   3.470   6.501   2.216 -1.5359  0.0721  0.1772
 8835TIP3   OH226457   2.778   4.059   6.143  0.3218 -0.4069  0.1425
 8835TIP3    H126458   2.870   4.086   6.141  0.4404 -0.8192  0.0018
 8835TIP3    H226459   2.775   3.982   6.086 -0.3283  0.2780 -0.7692
 8836TIP3   OH226460   2.819   2.159   5.875  0.1312  0.5888 -0.0189
 8836TIP3    H126461   2.830   2.190   5.965  0.3685  1.1875 -0.2531
 8836TIP3    H226462   2.810   2.064   5.883 -0.1169  0.6708  0.6603
 8837TIP3   OH226463   4.409   6.481   2.689  0.4235  0.0746  0.5012
 8837TIP3    H126464   4.353   6.451   2.617 -0.4552  0.2587  1.0977
 8837TIP3    H226465   4.452   6.401   2.720  0.1167 -0.1483  0.3592
 8838TIP3   OH226466   3.653   0.865   5.766  0.5101 -0.0369  0.0770
 8838TIP3    H126467   3.708   0.788   5.777 -0.9439 -1.0876  0.0732
 8838TIP3    H226468   3.641   0.899   5.855 -0.1723 -0.7588  0.2667
 8839TIP3   OH226469   5.140   7.151   1.405 -0.1525 -0.0794  0.0828
 8839TIP3    H126470   5.076   7.209   1.447  0.3174 -0.7186  1.7194
 8839TIP3    H226471   5.091   7.110   1.333 -0.5802  2.0733 -0.8807
 8840TIP3   OH226472   1.045   5.257   1.103 -0.2558  0.0623 -0.9612
 8840TIP3    H126473   1.139   5.263   1.086 -0.0346  0.0138  0.2361
 8840TIP3    H226474   1.030   5.165   1.124 -0.6265  0.0127 -1.4276
 8841TIP3   OH226475   0.001   0.011   0.664 -0.2319  0.6297  0.1049
 8841TIP3    H126476  -0.001   0.070   0.589  1.2792  0.4434 -0.1027
 8841TIP3    H226477   0.084  -0.036   0.655  0.3894  1.2438  2.3723
 8842TIP3   OH226478   4.547   6.805   1.329 -0.1594  0.2499 -0.2956
 8842TIP3    H126479   4.522   6.893   1.301 -1.2249  0.0935  0.1657
 8842TIP3    H226480   4.558   6.812   1.424 -2.1044 -0.5496  0.0078
 8843TIP3   OH226481   6.141   7.032   1.156  0.1974  0.1110 -0.7282
 8843TIP3    H126482   6.076   6.965   1.136  1.6339 -2.0898  1.6737
 8843TIP3    H226483   6.097   7.092   1.216  0.3448 -1.3742  0.8942
 8844TIP3   OH226484   6.420   7.207   0.065  0.3172 -0.8307  0.2351
 8844TIP3    H126485   6.479   7.177  -0.004  0.1583  0.3611 -0.4232
 8844TIP3    H226486   6.333   7.198   0.028  0.3374  1.9477 -0.5946
 8845TIP3   OH226487   3.849   4.995   1.540  0.0122  0.1496  0.5905
 8845TIP3    H126488   3.894   4.941   1.605  0.7757  1.2237  0.9827
 8845TIP3    H226489   3.756   4.986   1.561 -0.1669 -3.5961 -1.3913
 8846TIP3   OH226490   1.604   0.004   0.649 -0.4442  0.1032 -1.0912
 8846TIP3    H126491   1.660  -0.029   0.579 -1.0926 -0.9275 -1.1346
 8846TIP3    H226492   1.649   0.083   0.680  2.6611 -2.2956  0.8646
 8847TIP3   OH226493   3.928   3.257   5.265  0.6415  0.1745  0.3042
 8847TIP3    H126494   4.017   3.272   5.232  1.7040  0.2203  3.1155
 8847TIP3    H226495   3.914   3.163   5.254  0.1022  0.5219 -2.3347
 8848TIP3   OH226496   4.592   6.798   2.837  0.3532  0.2729  0.7460
 8848TIP3    H126497   4.550   6.735   2.895 -0.9980 -0.3187 -0.8406
 8848TIP3    H226498   4.683   6.769   2.832  0.0955 -0.6356  1.2806
 8849TIP3   OH226499   0.861   0.600   1.635 -0.2852  0.3019 -0.8479
 8849TIP3    H126500   0.843   0.593   1.541  0.3574 -2.0900 -0.8193
 8849TIP3    H226501   0.819   0.524   1.673 -1.7561  1.9984  1.0384
 8850TIP3   OH226502   1.497   3.820   6.390 -0.3266  0.6271  0.5511
 8850TIP3    H126503   1.407   3.837   6.363 -0.4575 -1.0908 -0.1380
 8850TIP3    H226504   1.501   3.726   6.405  1.7097  0.4538 -0.7686
 8851TIP3   OH226505   7.215   0.091   0.430  0.1060 -0.0390  0.3815
 8851TIP3    H126506   7.246   0.090   0.521  0.2348  0.0315  0.3388
 8851TIP3    H226507   7.125   0.059   0.435 -0.5994  1.9826  0.7994
 8852TIP3   OH226508   0.899   2.107   6.278  1.1041 -0.6876 -0.5668
 8852TIP3    H126509   0.925   2.033   6.333  1.5318 -0.5929 -0.6444
 8852TIP3    H226510   0.981   2.140   6.240  0.9145 -0.1932 -0.5544
 8853TIP3   OH226511   1.229   0.740   5.532 -0.1578  0.4568  0.1410
 8853TIP3    H126512   1.257   0.670   5.474  0.0618  2.0077 -1.6658
 8853TIP3    H226513   1.204   0.695   5.613  1.5020 -1.5349 -0.4082
 8854TIP3   OH226514   5.468   6.608   0.805  0.0221 -0.3119 -0.0127
 8854TIP3    H126515   5.376   6.581   0.805 -0.2287  0.5191 -0.5935
 8854TIP3    H226516   5.473   6.678   0.870  0.0289  0.3099 -0.6654
 8855TIP3   OH226517   3.353   6.627   0.327  0.1727  0.1670 -0.6441
 8855TIP3    H126518   3.361   6.712   0.370  0.6560  1.3916 -3.0887
 8855TIP3    H226519   3.277   6.586   0.368 -0.1776  1.8463  0.4172
 8856TIP3   OH226520   5.515   7.174   5.056 -0.3895 -0.0436 -0.3719
 8856TIP3    H126521   5.495   7.242   4.992 -0.2148  1.0989  0.7843
 8856TIP3    H226522   5.600   7.198   5.091 -0.1505 -1.0757 -0.2347
 8857TIP3   OH226523   7.761   0.347   5.658  0.2279 -0.0621  0.1508
 8857TIP3    H126524   7.705   0.323   5.584 -0.2393 -1.3834  0.9115
 8857TIP3    H226525   7.850   0.329   5.628  0.0604 -0.3624 -0.1642
 8858TIP3   OH226526   6.068   7.224   6.380 -0.4191 -0.0350 -0.1195
 8858TIP3    H126527   6.068   7.281   6.456 -1.2418  0.4380 -0.4672
 8858TIP3    H226528   6.007   7.153   6.403 -1.4679  0.6512 -0.7232
 8859TIP3   OH226529   1.126   0.671   1.766  0.4038 -0.6309 -0.5345
 8859TIP3    H126530   1.192   0.604   1.746 -0.7470 -1.3148 -2.1625
 8859TIP3    H226531   1.054   0.651   1.707 -1.1728  0.2613  1.0479
 8860TIP3   OH226532   4.311   5.322   0.931 -0.2517 -0.1420 -0.2326
 8860TIP3    H126533   4.299   5.378   0.854 -0.9112  0.4646  0.3019
 8860TIP3    H226534   4.247   5.251   0.919 -0.2206 -0.1527 -0.3355
 8861TIP3   OH226535   3.842   6.042   0.542  0.0041 -0.4374  0.0855
 8861TIP3    H126536   3.760   6.052   0.494  1.3495 -0.0067 -2.1758
 8861TIP3    H226537   3.864   5.949   0.534  0.5793 -0.2356 -0.7438
 8862TIP3   OH226538   3.904   4.259   0.200 -0.4158  0.2678  0.4955
 8862TIP3    H126539   3.893   4.260   0.104 -0.2165  0.3330  0.4714
 8862TIP3    H226540   3.904   4.167   0.223 -1.2980  0.2765  0.5346
 8863TIP3   OH226541   7.792   3.336   5.916 -0.0334 -0.2533  0.4242
 8863TIP3    H126542   7.806   3.242   5.901  0.8080 -0.0668  0.0307
 8863TIP3    H226543   7.797   3.345   6.012 -0.4089 -0.6511  0.4849
 8864TIP3   OH226544   3.927   0.715   2.616  0.4909  0.1302  0.7825
 8864TIP3    H126545   3.841   0.718   2.574  0.6532 -0.4235  0.4119
 8864TIP3    H226546   3.959   0.627   2.599  1.5399  0.6409  0.1216
 8865TIP3   OH226547   3.622   1.069   6.291 -0.4447  0.1601 -0.0560
 8865TIP3    H126548   3.583   1.137   6.346  1.2389  2.2473 -1.3557
 8865TIP3    H226549   3.716   1.076   6.310 -0.0853 -0.5854 -1.5624
 8866TIP3   OH226550   7.814   1.203   0.062  0.2905 -0.4192  0.0870
 8866TIP3    H126551   7.906   1.190   0.042 -0.0029 -0.8077 -1.0554
 8866TIP3    H226552   7.767   1.158  -0.009 -0.7827 -1.3092  1.3498
 8867TIP3   OH226553   3.953   5.563   0.706  0.3386  0.0459  0.1580
 8867TIP3    H126554   3.903   5.547   0.625 -3.6836  0.6714  2.3888
 8867TIP3    H226555   3.963   5.658   0.709  1.1288 -0.0334  0.0355
 8868TIP3   OH226556   3.354   6.835   0.942 -0.3244  0.1886 -0.0682
 8868TIP3    H126557   3.278   6.890   0.922 -0.4303  0.6912  1.6635
 8868TIP3    H226558   3.428   6.896   0.944 -0.4919  0.3661  2.2031
 8869TIP3   OH226559   2.202   5.282   1.592 -1.2892  0.0426  0.2997
 8869TIP3    H126560   2.129   5.231   1.627 -1.1529  1.3247  2.6193
 8869TIP3    H226561   2.267   5.281   1.663  0.2859  0.2323 -1.1208
 8870TIP3   OH226562   5.045   6.409   0.470  1.1837 -0.0802  0.0592
 8870TIP3    H126563   5.133   6.369   0.469  1.0921 -0.2607 -1.4400
 8870TIP3    H226564   5.058   6.494   0.511  1.8528 -0.5610  0.8809
 8871TIP3   OH226565   3.492   1.972   0.974 -0.5201  0.0789 -0.1319
 8871TIP3    H126566   3.481   1.889   0.928  0.2015 -0.1331  0.0714
 8871TIP3    H226567   3.497   2.037   0.904  0.7917 -0.2682 -0.3884
 8872TIP3   OH226568   4.887   6.523   1.208 -0.3916 -0.1790 -0.1728
 8872TIP3    H126569   4.936   6.575   1.272  0.9056 -1.1785 -0.3282
 8872TIP3    H226570   4.876   6.582   1.133 -1.6389  0.8897  0.8112
 8873TIP3   OH226571   1.286   5.237   5.368  0.0258  0.3553  0.1071
 8873TIP3    H126572   1.340   5.313   5.389 -0.9782  1.2048 -0.3270
 8873TIP3    H226573   1.280   5.238   5.272  1.1923 -1.1117 -0.0046
 8874TIP3   OH226574   3.398   4.548   3.672 -0.4867  0.2303 -0.1483
 8874TIP3    H126575   3.468   4.546   3.607 -0.4334 -0.2884 -0.0699
 8874TIP3    H226576   3.374   4.457   3.686 -1.3317  0.4189 -0.3343
 8875TIP3   OH226577   3.536   7.398   0.959 -0.0015 -0.9053  0.3480
 8875TIP3    H126578   3.542   7.335   1.031 -1.2694  0.7539  1.9518
 8875TIP3    H226579   3.490   7.473   0.996  0.6799  0.6265 -1.7764
 8876TIP3   OH226580   3.748   6.537   2.053 -0.1963  0.2690  0.0017
 8876TIP3    H126581   3.797   6.458   2.078  0.7761  0.8201 -0.1139
 8876TIP3    H226582   3.773   6.553   1.962  2.2690  2.6025  1.0150
 8877TIP3   OH226583   3.986   6.206   1.459 -0.3088  0.0707  0.3952
 8877TIP3    H126584   3.961   6.119   1.487 -2.1771  0.8732  1.2913
 8877TIP3    H226585   3.995   6.199   1.364 -1.7537 -0.7885  0.3136
 8878TIP3   OH226586   2.076   7.258   0.876 -0.0956 -0.2004  0.6297
 8878TIP3    H126587   2.135   7.334   0.885  0.9371 -1.0587  1.2384
 8878TIP3    H226588   2.071   7.222   0.965  0.2878 -1.4945  0.1279
 8879TIP3   OH226589   0.514  -0.009   6.335  0.0586  0.6071 -0.8011
 8879TIP3    H126590   0.450  -0.030   6.403  0.5572  0.7735 -0.2765
 8879TIP3    H226591   0.558   0.070   6.367 -0.3972  1.2808 -1.7993
 8880TIP3   OH226592   5.534   6.335   2.925  0.3812  0.3652 -0.4738
 8880TIP3    H126593   5.508   6.346   2.833 -0.0068  1.6667 -0.2170
 8880TIP3    H226594   5.501   6.248   2.949 -0.0754  0.2857 -1.3738
 8881TIP3   OH226595   4.223   6.674   0.188  0.2923  0.1239 -0.5805
 8881TIP3    H126596   4.226   6.703   0.279 -1.5363  3.0143 -1.3765
 8881TIP3    H226597   4.314   6.654   0.166  0.8570  0.1706  1.6196
 8882TIP3   OH226598   4.090   6.025   2.075 -0.1556  0.8867 -0.8010
 8882TIP3    H126599   4.043   6.036   2.157 -1.4874  1.5123 -1.6387
 8882TIP3    H226600   4.024   5.997   2.012  0.9564 -0.1493 -1.5433
 8883TIP3   OH226601   0.468   0.287   0.472 -0.5157 -0.3175  0.0778
 8883TIP3    H126602   0.486   0.309   0.381  0.3278 -0.8234  0.1179
 8883TIP3    H226603   0.501   0.197   0.482  1.6106  0.5800  1.5080
 8884TIP3   OH226604   3.541   6.604   0.699 -0.4803 -0.0028 -0.2048
 8884TIP3    H126605   3.459   6.566   0.731  0.3969 -0.9776  0.9692
 8884TIP3    H226606   3.594   6.615   0.778  1.3478 -1.4532 -1.1752
 8885TIP3   OH226607   6.442   6.687   0.120  0.1145  0.1957  0.4845
 8885TIP3    H126608   6.465   6.706   0.029 -0.1692 -1.1143  0.1327
 8885TIP3    H226609   6.520   6.711   0.170 -0.6481  3.4519  0.2197
 8886TIP3   OH226610   3.419   5.781   0.948  0.5523 -0.0130 -0.2679
 8886TIP3    H126611   3.472   5.830   0.885 -0.3762  0.4336 -0.7162
 8886TIP3    H226612   3.340   5.758   0.899  0.3473 -0.7056  0.3846
 8887TIP3   OH226613   7.864   1.623   5.241 -0.0451  0.4677  0.7157
 8887TIP3    H126614   7.943   1.571   5.255 -0.2325 -0.3093 -1.0637
 8887TIP3    H226615   7.795   1.559   5.225 -0.8527  1.1856  1.2634
 8888TIP3   OH226616   2.897   5.171   5.682 -0.3844  0.6559  0.6754
 8888TIP3    H126617   2.966   5.237   5.672 -0.7263  0.7893 -0.9481
 8888TIP3    H226618   2.899   5.121   5.600 -0.1143 -1.3761  1.9058
 8889TIP3   OH226619   2.801   6.398   1.715  0.0880 -0.6192  0.7430
 8889TIP3    H126620   2.728   6.431   1.664 -0.6408 -1.9279  0.9423
 8889TIP3    H226621   2.794   6.444   1.799  0.3112  0.2695  0.2875
 8890TIP3   OH226622   1.278   6.209   0.313 -0.1085  0.2830  0.4993
 8890TIP3    H126623   1.316   6.150   0.248  0.7792 -0.9178  2.0789
 8890TIP3    H226624   1.248   6.152   0.384 -0.0574  1.6274  1.6362
 8891TIP3   OH226625   0.451   3.509   6.224 -0.1591 -0.0980  0.2361
 8891TIP3    H126626   0.428   3.574   6.157 -1.0174 -0.8211 -0.1727
 8891TIP3    H226627   0.397   3.433   6.203 -0.4626 -0.3173  1.7913
 8892TIP3   OH226628   4.806   7.057   0.208 -0.5044 -0.1920 -0.0005
 8892TIP3    H126629   4.890   7.055   0.163 -1.6878  0.4796 -2.3235
 8892TIP3    H226630   4.753   6.992   0.163 -1.6820  0.3679  0.5414
 8893TIP3   OH226631   4.737   0.016   2.099  0.2515 -0.9505  0.3138
 8893TIP3    H126632   4.710   0.095   2.052  0.7045 -0.3755  1.0155
 8893TIP3    H226633   4.684  -0.054   2.060 -0.0396 -0.3313 -0.4191
 8894TIP3   OH226634   4.440   4.839   0.951  0.2777  0.3066  0.6644
 8894TIP3    H126635   4.381   4.791   0.894  0.7823  1.4914 -0.8836
 8894TIP3    H226636   4.464   4.917   0.901  0.8708  1.2808  2.4239
 8895TIP3   OH226637   3.270   5.276   0.146  0.3239 -0.7009 -0.4037
 8895TIP3    H126638   3.271   5.319   0.231 -2.6231  0.3029 -0.8086
 8895TIP3    H226639   3.317   5.336   0.088 -0.1630  0.0027 -0.0824
 8896TIP3   OH226640   2.908   2.584   5.696  0.2470 -0.1468 -0.0976
 8896TIP3    H126641   2.870   2.627   5.619  0.1950  1.2998  0.7277
 8896TIP3    H226642   2.872   2.495   5.694 -0.2196  0.0545 -1.4034
 8897TIP3   OH226643   6.271   0.587   2.374  0.1350  0.3339 -0.5841
 8897TIP3    H126644   6.179   0.609   2.388  0.3983  0.4458  1.0364
 8897TIP3    H226645   6.313   0.670   2.354  0.2433  0.5880  0.6784
 8898TIP3   OH226646   3.712   3.426   0.350 -0.1909  0.1760  0.3882
 8898TIP3    H126647   3.694   3.507   0.301 -0.1736  0.6279  1.1201
 8898TIP3    H226648   3.698   3.450   0.441  1.8231 -0.1073  0.7874
 8899TIP3   OH226649   5.065   7.182   0.751 -0.4788 -0.0464 -0.0479
 8899TIP3    H126650   5.081   7.123   0.824  1.1599  1.6010  0.9828
 8899TIP3    H226651   4.984   7.150   0.710  0.2201 -2.7737  0.6401
 8900TIP3   OH226652   7.004   0.744   0.776  0.1388  0.0599 -0.4746
 8900TIP3    H126653   7.017   0.649   0.767 -0.1062 -0.0211 -0.0168
 8900TIP3    H226654   6.949   0.768   0.702 -1.8655 -0.5915  0.7558
 8901TIP3   OH226655   0.773   0.644   0.472 -0.0782  0.1512 -0.2307
 8901TIP3    H126656   0.686   0.678   0.492  0.5920  1.8345 -0.1526
 8901TIP3    H226657   0.768   0.551   0.496 -1.1835  0.7164  1.8572
 8902TIP3   OH226658   4.022   3.307   4.690  0.8631  0.2288  0.2204
 8902TIP3    H126659   3.976   3.253   4.754  3.0654 -0.4159  1.3191
 8902TIP3    H226660   4.115   3.294   4.710  1.4877  3.2610 -0.4448
 8903TIP3   OH226661   3.769   1.455   5.822  0.2625 -0.2548 -0.5788
 8903TIP3    H126662   3.710   1.489   5.755  2.1397 -0.3194 -2.3137
 8903TIP3    H226663   3.719   1.383   5.862 -1.3612  0.5779 -1.0477
 8904TIP3   OH226664   4.934   1.551   0.793 -0.6836 -0.3917 -0.2531
 8904TIP3    H126665   5.007   1.493   0.776  1.2576  1.3433  1.9109
 8904TIP3    H226666   4.895   1.519   0.875  0.3761  1.2742  0.9354
 8905TIP3   OH226667   0.031   1.879   0.005  0.0820 -0.1688  0.3160
 8905TIP3    H126668  -0.061   1.859  -0.008 -0.0714 -0.3882  1.6941
 8905TIP3    H226669   0.045   1.870   0.099  1.1733  1.2416  0.3156
 8906TIP3   OH226670   3.663   5.644   0.532  0.0124 -0.0102 -0.0787
 8906TIP3    H126671   3.738   5.587   0.512 -0.0051 -0.5855  1.4561
 8906TIP3    H226672   3.627   5.666   0.446  0.6942 -1.4199 -0.7563
 8907TIP3   OH226673   3.684   5.642  -0.013  0.0119 -0.0313  0.8199
 8907TIP3    H126674   3.777   5.629  -0.034 -0.1944  3.1549 -2.4794
 8907TIP3    H226675   3.684   5.695   0.067  1.0527  0.9271  0.1890
 8908TIP3   OH226676   2.551   2.175   5.582 -0.5145  0.6567  0.6244
 8908TIP3    H126677   2.461   2.172   5.551 -0.7983 -0.4600  1.4874
 8908TIP3    H226678   2.591   2.096   5.546 -0.4615  0.0869  1.8838
 8909TIP3   OH226679   4.653   5.413   1.651 -0.0725 -0.2085 -0.3535
 8909TIP3    H126680   4.585   5.469   1.689  0.9581  0.3586  0.6775
 8909TIP3    H226681   4.732   5.466   1.653  0.9033 -1.6574  0.5191
 8910TIP3   OH226682   1.944   1.544   4.475 -0.1603 -0.1104 -0.2863
 8910TIP3    H126683   2.010   1.580   4.535 -0.6042 -1.4074  1.0180
 8910TIP3    H226684   1.901   1.476   4.526 -1.8987  0.1042 -1.4502
 8911TIP3   OH226685   5.157   5.089   1.742 -0.3936  0.0836  0.1187
 8911TIP3    H126686   5.111   5.021   1.693  0.1169 -1.2741  1.4725
 8911TIP3    H226687   5.214   5.041   1.802  0.3880  1.7181  0.7331
 8912TIP3   OH226688   5.366   1.515   5.248 -0.2628  0.2908 -0.4042
 8912TIP3    H126689   5.399   1.598   5.283  1.0083 -0.9490  1.4038
 8912TIP3    H226690   5.335   1.467   5.325 -0.5237 -1.1204 -1.3786
 8913TIP3   OH226691   4.769   5.039   1.308 -0.0268 -0.6370  0.0443
 8913TIP3    H126692   4.795   4.956   1.269 -0.2739 -0.7874  0.1920
 8913TIP3    H226693   4.674   5.032   1.318 -0.1843  0.0818 -0.9071
 8914TIP3   OH226694   3.957   4.120   5.385 -0.1215 -0.3507 -0.0969
 8914TIP3    H126695   3.891   4.171   5.338 -1.6113 -0.3240  1.9435
 8914TIP3    H226696   3.910   4.041   5.413  0.8962 -0.6470  0.7942
 8915TIP3   OH226697   0.043   4.318   5.495 -0.1025  0.2942  0.1448
 8915TIP3    H126698   0.111   4.382   5.514  0.0413  0.1108  0.2573
 8915TIP3    H226699  -0.038   4.359   5.522 -0.1791  0.9882 -1.0947
 8916TIP3   OH226700   1.339   4.348   6.238  0.2083 -0.3005 -0.6246
 8916TIP3    H126701   1.251   4.313   6.252 -0.2701  0.3993 -1.8087
 8916TIP3    H226702   1.369   4.306   6.157  1.5038 -1.5553  0.4737
 8917TIP3   OH226703   4.244   0.880   6.112 -0.5384  0.3789 -0.9985
 8917TIP3    H126704   4.228   0.865   6.019 -0.0528 -0.8369 -0.8901
 8917TIP3    H226705   4.316   0.821   6.134 -2.3037 -1.2052  0.7219
 8918TIP3   OH226706   2.794   6.479   1.271 -0.3324 -0.3109 -0.0207
 8918TIP3    H126707   2.846   6.516   1.199  0.5829 -1.9459 -0.2323
 8918TIP3    H226708   2.834   6.394   1.287 -0.1461  0.2771  2.8646
 8919TIP3   OH226709   3.047   1.211   6.395 -0.1181  0.1503 -0.3796
 8919TIP3    H126710   3.056   1.169   6.481 -1.4920  1.7602  0.5621
 8919TIP3    H226711   3.050   1.138   6.333 -1.4121 -1.2581  1.1687
 8920TIP3   OH226712   5.084   6.166   1.622  0.3341 -0.3056  0.0711
 8920TIP3    H126713   5.014   6.148   1.559  0.2037 -2.7069  0.8576
 8920TIP3    H226714   5.049   6.235   1.678 -1.0851 -0.8918 -0.0686
 8921TIP3   OH226715   7.774   0.590   1.043 -0.3374  0.2945 -0.1134
 8921TIP3    H126716   7.687   0.553   1.056 -1.1161  1.6881 -1.2533
 8921TIP3    H226717   7.820   0.525   0.990 -0.8644 -0.1702 -0.0027
 8922TIP3   OH226718   2.123   6.436   1.592  0.0838 -0.6194  0.0463
 8922TIP3    H126719   2.063   6.450   1.519 -0.5440  2.0877  1.0013
 8922TIP3    H226720   2.210   6.439   1.553 -0.2618  0.0811 -0.6815
 8923TIP3   OH226721   1.933   4.827   0.752 -0.3384  0.2633 -0.1467
 8923TIP3    H126722   2.004   4.804   0.692 -0.1204  1.3222 -0.3068
 8923TIP3    H226723   1.866   4.761   0.736  0.8898 -1.1510  0.4970
 8924TIP3   OH226724   4.106   5.546   0.129  0.2161 -0.1560  0.0803
 8924TIP3    H126725   4.095   5.507   0.216  0.5001  1.0577  0.6594
 8924TIP3    H226726   4.056   5.627   0.132  0.2390 -0.0976 -0.8881
 8925TIP3   OH226727   7.066   0.429   1.821 -0.1118  0.1684  0.7542
 8925TIP3    H126728   7.114   0.350   1.845  2.5693  0.8860 -1.9859
 8925TIP3    H226729   6.980   0.398   1.793  0.0885 -1.5164  1.9448
 8926TIP3   OH226730   3.616   3.499   5.529 -0.1840 -0.1065 -0.6500
 8926TIP3    H126731   3.662   3.462   5.604 -0.5018 -1.3157 -1.0373
 8926TIP3    H226732   3.633   3.593   5.534  3.6696 -0.6809 -1.7117
 8927TIP3   OH226733   2.577   7.141   0.149 -0.3492  0.6629  0.0360
 8927TIP3    H126734   2.600   7.194   0.226 -0.4994  1.7384 -0.6443
 8927TIP3    H226735   2.517   7.075   0.182 -1.2870  1.8064  0.6507
 8928TIP3   OH226736   5.424   2.509   0.017 -0.2773 -0.1531 -0.1147
 8928TIP3    H126737   5.489   2.473  -0.044  0.2184  1.2482 -0.4236
 8928TIP3    H226738   5.475   2.552   0.085 -0.8660  0.4578 -0.0494
 8929TIP3   OH226739   4.753   7.028   1.568 -0.1164  0.1639  0.4942
 8929TIP3    H126740   4.728   7.072   1.649  0.8765 -0.8553  1.3827
 8929TIP3    H226741   4.711   6.942   1.573 -0.7850  0.4238 -0.5008
 8930TIP3   OH226742   2.606   2.906   6.155 -0.4023 -0.4179  0.7368
 8930TIP3    H126743   2.688   2.929   6.110 -0.9061 -0.0886 -0.0120
 8930TIP3    H226744   2.571   2.990   6.185 -0.6699 -0.5203  0.7099
 8931TIP3   OH226745   7.631   1.416   0.578  0.2797 -0.1122 -0.1062
 8931TIP3    H126746   7.623   1.337   0.631  1.7797 -0.9578 -1.1009
 8931TIP3    H226747   7.554   1.415   0.521  1.4493 -2.1104 -1.7158
 8932TIP3   OH226748   5.922   6.559   1.848 -0.1894 -0.6753 -0.0474
 8932TIP3    H126749   5.930   6.591   1.758 -1.7355  0.1893  0.0995
 8932TIP3    H226750   5.934   6.637   1.902 -1.5661 -0.7593  0.4012
 8933TIP3   OH226751   5.954   6.966   1.516 -0.2923 -0.1544 -0.4952
 8933TIP3    H126752   5.899   7.044   1.523  0.7723  0.8347 -2.6431
 8933TIP3    H226753   5.938   6.933   1.428 -1.0797 -2.6689  0.5512
 8934TIP3   OH226754   5.633   6.121   0.272 -0.1009 -0.0591  0.7251
 8934TIP3    H126755   5.597   6.123   0.360  1.1556 -0.2072  1.2468
 8934TIP3    H226756   5.586   6.191   0.226 -2.6531 -1.7082  0.7329
 8935TIP3   OH226757   2.901   2.525   6.356  0.2837 -0.4146 -0.6501
 8935TIP3    H126758   2.889   2.466   6.431 -1.5560  1.4045  0.5385
 8935TIP3    H226759   2.814   2.561   6.339  0.9203  0.1352 -2.9087
 8936TIP3   OH226760   3.694   5.021   5.675 -0.0995 -0.4074 -0.2697
 8936TIP3    H126761   3.652   4.937   5.690 -2.4329  0.5633 -1.1100
 8936TIP3    H226762   3.730   5.046   5.760  0.3784 -2.1230  0.0344
 8937TIP3   OH226763   5.325   1.803   5.865  0.2166  0.1584 -0.1455
 8937TIP3    H126764   5.376   1.877   5.832  1.3711 -0.1898  0.8287
 8937TIP3    H226765   5.375   1.725   5.839  0.0967 -0.1933  0.6475
 8938TIP3   OH226766   5.971   3.695   0.894  0.1180  0.1776 -0.2998
 8938TIP3    H126767   6.058   3.734   0.906  0.6315 -0.5970 -1.3870
 8938TIP3    H226768   5.911   3.769   0.899  0.8763  0.7836  0.0460
 8939TIP3   OH226769   1.109   6.337   0.908  0.3152 -0.1757  0.3102
 8939TIP3    H126770   1.189   6.320   0.957 -0.2124  0.2134  1.3167
 8939TIP3    H226771   1.047   6.271   0.940  0.0634 -0.1145 -0.0479
 8940TIP3   OH226772   4.499   1.404   5.793 -0.0446 -0.0882 -0.1504
 8940TIP3    H126773   4.565   1.443   5.735 -0.5020 -0.4472 -0.9088
 8940TIP3    H226774   4.451   1.479   5.828  1.0473  0.2107  0.7663
 8941TIP3   OH226775   7.707   6.110   0.918  0.0280  0.3465  0.0731
 8941TIP3    H126776   7.766   6.050   0.964 -0.3679 -0.4061 -0.3830
 8941TIP3    H226777   7.623   6.064   0.918 -0.6753  1.6157  1.1377
 8942TIP3   OH226778   5.983   3.126   0.208  0.2357 -0.3216 -0.7821
 8942TIP3    H126779   5.949   3.177   0.134  0.2378 -1.6301 -1.6949
 8942TIP3    H226780   6.076   3.147   0.211  0.4836 -1.1955 -1.9310
 8943TIP3   OH226781   3.573   2.322   3.632 -0.2241 -0.0820  0.3218
 8943TIP3    H126782   3.653   2.330   3.683  0.0792  0.4804 -0.2291
 8943TIP3    H226783   3.504   2.309   3.697 -0.0158  1.8432  0.9712
 8944TIP3   OH226784   3.829   5.477   2.976 -0.5474  0.8577 -0.2230
 8944TIP3    H126785   3.779   5.396   2.980 -0.5192  0.7936 -1.0003
 8944TIP3    H226786   3.896   5.469   3.045 -2.7320  1.7244  2.0601
 8945TIP3   OH226787   5.378   0.604   0.806  0.2652  0.0075  0.1696
 8945TIP3    H126788   5.342   0.688   0.835 -1.5520 -0.8098  0.3952
 8945TIP3    H226789   5.370   0.547   0.882  1.9973 -0.2355  0.1862
 8946TIP3   OH226790   7.513   5.618   1.067 -0.0095 -0.2017  0.0529
 8946TIP3    H126791   7.421   5.600   1.084  0.1171 -0.0133  0.9851
 8946TIP3    H226792   7.523   5.711   1.089  0.4298 -0.2572  0.0824
 8947TIP3   OH226793   3.428   3.601   4.665 -0.2292  0.0298 -0.2929
 8947TIP3    H126794   3.416   3.512   4.632 -1.3599  0.1673 -0.2548
 8947TIP3    H226795   3.523   3.609   4.674 -0.1427 -1.3773  0.2801
 8948TIP3   OH226796   4.195   5.899   1.233 -0.3325 -0.0744 -0.0295
 8948TIP3    H126797   4.144   5.832   1.187 -1.7269  0.8302  0.1870
 8948TIP3    H226798   4.234   5.951   1.163  1.0818 -1.3348 -0.2036
 8949TIP3   OH226799   4.012   6.069   0.294 -0.0731 -0.3004 -0.3079
 8949TIP3    H126800   3.990   5.976   0.290 -2.1940  0.1942 -0.6955
 8949TIP3    H226801   4.000   6.100   0.204  0.9515  0.2870 -0.2471
 8950TIP3   OH226802   2.531   4.638   5.336 -0.3170  0.6164  0.8414
 8950TIP3    H126803   2.619   4.654   5.371 -0.1187  2.1576 -0.2866
 8950TIP3    H226804   2.472   4.659   5.408  0.2306 -0.3780  1.5892
 8951TIP3   OH226805   4.279   2.575   5.589 -0.5683 -0.7085  0.6779
 8951TIP3    H126806   4.205   2.630   5.563 -0.4431  0.1994  2.1621
 8951TIP3    H226807   4.246   2.522   5.661 -0.4417 -2.0202 -0.2076
 8952TIP3   OH226808   4.047   2.723   5.656 -0.4654 -0.4436 -0.2908
 8952TIP3    H126809   4.105   2.798   5.671  0.9170 -1.2967 -1.2584
 8952TIP3    H226810   3.963   2.750   5.693  0.6441  0.6738  1.4641
 8953TIP3   OH226811   5.394   2.668   4.728  0.3410 -0.1366 -0.0698
 8953TIP3    H126812   5.317   2.725   4.728  1.5936  1.6081 -0.6655
 8953TIP3    H226813   5.420   2.662   4.636  2.4029  1.4273  0.3675
 8954TIP3   OH226814   3.715   4.737   5.480  0.7531 -0.5749  0.5636
 8954TIP3    H126815   3.638   4.744   5.537  1.0096  0.2104  0.8151
 8954TIP3    H226816   3.712   4.816   5.426  0.6483 -1.1985 -0.3436
 8955TIP3   OH226817   3.053   0.984   6.216  0.6504  0.6375  0.2145
 8955TIP3    H126818   3.012   0.973   6.131  1.9641 -1.2982 -0.1989
 8955TIP3    H226819   3.098   0.902   6.232 -0.4896  0.5634  3.3124
 8956TIP3   OH226820   4.237   3.539   5.673  0.0411 -0.5997  0.1824
 8956TIP3    H126821   4.144   3.556   5.686 -0.0177  0.1691 -1.1646
 8956TIP3    H226822   4.281   3.598   5.735 -0.3264  0.4375 -0.5199
 8957TIP3   OH226823   3.837   0.497   5.189 -0.3358  0.6927  0.0837
 8957TIP3    H126824   3.924   0.458   5.194 -0.4121  0.4292 -0.5408
 8957TIP3    H226825   3.817   0.498   5.095 -2.0181 -1.5229  0.3726
 8958TIP3   OH226826   3.369   2.872   5.587  0.6796 -0.3229 -0.0894
 8958TIP3    H126827   3.379   2.965   5.609  0.4075 -0.3078 -0.0265
 8958TIP3    H226828   3.277   2.853   5.605  0.6675 -0.5345 -0.3676
 8959TIP3   OH226829   5.478   2.915   6.184 -0.4672 -0.6952 -0.1872
 8959TIP3    H126830   5.564   2.936   6.220 -0.7116  0.1726 -0.0977
 8959TIP3    H226831   5.481   2.946   6.093 -0.5853 -0.9277 -0.2717
 8960TIP3   OH226832   2.920   2.231   6.356  0.1755 -0.6601  0.0790
 8960TIP3    H126833   3.008   2.196   6.349  1.7433  2.9970  0.0560
 8960TIP3    H226834   2.909   2.285   6.277 -1.9048 -0.6879  0.3123
 8961TIP3   OH226835   6.427   5.973   0.560 -0.3073 -0.6591  0.2136
 8961TIP3    H126836   6.423   6.053   0.508  0.9475 -0.0658  1.0116
 8961TIP3    H226837   6.454   6.002   0.647 -0.9188 -1.8228  0.8047
 8962TIP3   OH226838   7.047   1.799   1.183 -0.5428 -0.0473 -0.1837
 8962TIP3    H126839   7.113   1.740   1.219 -0.0041  0.2681 -0.6398
 8962TIP3    H226840   7.009   1.842   1.259 -1.2330 -1.2824  0.1814
 8963TIP3   OH226841   3.515   2.697   4.377 -0.1497  0.3800 -0.0016
 8963TIP3    H126842   3.477   2.611   4.397  0.9896 -0.5477 -1.6117
 8963TIP3    H226843   3.573   2.715   4.451 -0.3080 -0.3160  0.2973
 8964TIP3   OH226844   1.304   1.563   0.289 -0.2183  0.1992  0.6000
 8964TIP3    H126845   1.309   1.492   0.353 -0.9237  0.0268  0.4670
 8964TIP3    H226846   1.389   1.563   0.246 -0.3316 -0.7730  0.3739
 8965TIP3   OH226847   1.958   4.597   5.443 -0.2687 -0.5478  0.2596
 8965TIP3    H126848   2.047   4.618   5.414 -0.9275  0.0570 -1.3799
 8965TIP3    H226849   1.960   4.610   5.538  1.2109  0.1344  0.1455
 8966TIP3   OH226850   7.614   6.363   1.500  0.3677  0.7195 -0.5544
 8966TIP3    H126851   7.520   6.380   1.508  0.1725 -0.6935  0.2139
 8966TIP3    H226852   7.620   6.294   1.434  0.5961 -1.5778  1.7778
 8967TIP3   OH226853   2.558   1.147   4.788 -0.2107 -0.1095 -0.2248
 8967TIP3    H126854   2.569   1.200   4.709 -1.0682  1.2322  0.5385
 8967TIP3    H226855   2.638   1.161   4.838 -0.9397  1.4110  0.5232
 8968TIP3   OH226856   3.086   2.756   6.411  0.1538 -0.4092 -0.0654
 8968TIP3    H126857   3.064   2.777   6.502 -1.1130 -1.6868 -0.0439
 8968TIP3    H226858   3.007   2.713   6.377  0.1360  1.2272 -2.1704
 8969TIP3   OH226859   1.920   0.683   2.210 -0.0422 -0.0104 -0.4282
 8969TIP3    H126860   1.835   0.695   2.254  0.7676  0.4547  1.0370
 8969TIP3    H226861   1.946   0.594   2.233  0.1573  0.0608 -0.3815
 8970TIP3   OH226862   2.408   2.709   6.085 -0.1471  0.6227 -0.1743
 8970TIP3    H126863   2.465   2.772   6.130 -2.0727  3.4203 -1.4591
 8970TIP3    H226864   2.321   2.750   6.088 -1.6679 -2.5082 -0.1660
 8971TIP3   OH226865   4.018   5.167   0.282  0.2994  0.3508  0.5024
 8971TIP3    H126866   4.094   5.109   0.281  0.6393  0.7941 -0.1820
 8971TIP3    H226867   3.943   5.109   0.294  0.5392 -0.3493 -1.2273
 8972TIP3   OH226868   1.383   1.822   0.350 -0.2119  0.0479  0.6760
 8972TIP3    H126869   1.312   1.846   0.409 -2.3306 -1.1974 -1.3166
 8972TIP3    H226870   1.358   1.737   0.314  1.9498 -0.1122 -0.5563
 8973TIP3   OH226871   3.401   2.883   5.979 -0.0265  0.0586  0.6992
 8973TIP3    H126872   3.415   2.792   5.951 -1.5797 -0.0271  0.1880
 8973TIP3    H226873   3.389   2.876   6.074 -0.0205 -0.2444  0.6808
 8974TIP3   OH226874   6.974   6.718   1.515  0.1353 -0.0507  0.0602
 8974TIP3    H126875   6.948   6.659   1.445  0.7107 -1.4436  0.9992
 8974TIP3    H226876   6.892   6.743   1.558  0.0750 -2.2577  1.2960
 8975TIP3   OH226877   5.386   6.715   0.130 -0.2062  0.2055  0.0452
 8975TIP3    H126878   5.340   6.631   0.124  1.2545 -0.6728  0.5767
 8975TIP3    H226879   5.366   6.747   0.218 -0.3329  0.1369  0.0414
 8976TIP3   OH226880   1.977   0.204   2.062 -0.8408 -0.0233  0.6998
 8976TIP3    H126881   2.018   0.160   1.987  0.0974 -0.4564  1.4669
 8976TIP3    H226882   1.914   0.265   2.022  0.0334  0.1353 -0.4619
 8977TIP3   OH226883   3.828   0.524   0.580 -0.5010  0.5338 -0.1454
 8977TIP3    H126884   3.788   0.461   0.640  1.2780  0.0100  0.5408
 8977TIP3    H226885   3.755   0.571   0.542 -1.7623 -0.4913  0.9541
 8978TIP3   OH226886   2.724   3.782   4.981 -0.2207  0.0758  0.4053
 8978TIP3    H126887   2.679   3.866   4.985  0.3509  0.3098  2.1275
 8978TIP3    H226888   2.661   3.719   5.015  0.5610  0.3358  2.3847
 8979TIP3   OH226889   3.423   2.255   6.145 -0.0285  0.4460  0.5841
 8979TIP3    H126890   3.492   2.270   6.081  0.2120  0.2461  0.7911
 8979TIP3    H226891   3.467   2.211   6.218 -0.3709  0.3273  0.7244
 8980TIP3   OH226892   5.099   3.396   5.590 -0.3462 -0.1616 -0.2213
 8980TIP3    H126893   5.149   3.403   5.508 -0.4888 -0.7763 -0.3648
 8980TIP3    H226894   5.079   3.486   5.614 -2.9402 -0.0787 -2.4780
 8981TIP3   OH226895   2.213   2.962   4.840  0.1732  0.2032 -0.0361
 8981TIP3    H126896   2.188   2.993   4.926 -1.5542 -0.3775 -0.3202
 8981TIP3    H226897   2.157   2.885   4.824  0.0669  0.6406 -1.8960
 8982TIP3   OH226898   4.071   1.440   5.309 -0.0216 -0.1258 -0.1053
 8982TIP3    H126899   4.133   1.373   5.340  1.0896  1.2074  0.6157
 8982TIP3    H226900   4.126   1.507   5.269 -1.0093  0.9943  0.3716
 8983TIP3   OH226901   3.577   7.456   0.405 -0.7784 -0.1851 -0.6285
 8983TIP3    H126902   3.635   7.466   0.480 -2.1905  1.6936  0.2578
 8983TIP3    H226903   3.560   7.362   0.400  0.2547 -0.4521  0.6834
 8984TIP3   OH226904   3.599   1.843   6.101 -0.1594  0.2246 -0.0723
 8984TIP3    H126905   3.517   1.860   6.055 -0.6036 -0.3542  0.4959
 8984TIP3    H226906   3.640   1.772   6.052 -0.5587 -0.2848  0.3220
 8985TIP3   OH226907   7.239   4.300   0.660  0.4784 -0.2572 -0.0235
 8985TIP3    H126908   7.332   4.277   0.663  0.5768  0.0183 -0.9613
 8985TIP3    H226909   7.230   4.352   0.580 -0.3249  0.3957  0.4867
 8986TIP3   OH226910   3.548   2.543   5.653 -0.6748  0.5297 -0.0561
 8986TIP3    H126911   3.628   2.491   5.658 -0.3022  0.8554 -2.1906
 8986TIP3    H226912   3.577   2.631   5.632 -1.5259  0.9056  0.3053
 8987TIP3   OH226913   3.068   1.460   6.285 -0.0649 -0.0824  0.0012
 8987TIP3    H126914   3.127   1.412   6.226  1.5825 -0.0622  1.5803
 8987TIP3    H226915   3.025   1.391   6.336 -3.0948 -0.2365 -2.5854
 8988TIP3   OH226916   0.852   7.346   5.484  0.3468  0.2206 -0.3158
 8988TIP3    H126917   0.874   7.334   5.577  1.8250  0.6692 -0.6059
 8988TIP3    H226918   0.770   7.397   5.486  0.0255 -0.3150  0.7410
 8989TIP3   OH226919   4.152   4.643   0.463  0.0878  0.1039 -0.3817
 8989TIP3    H126920   4.218   4.676   0.402  2.0498  0.3584  1.8295
 8989TIP3    H226921   4.141   4.714   0.526 -1.9398 -0.1535 -0.4209
 8990TIP3   OH226922   5.606   5.859   1.604  0.3130  0.2255 -0.0734
 8990TIP3    H126923   5.553   5.858   1.684  1.6597 -1.0113  0.8358
 8990TIP3    H226924   5.543   5.872   1.533 -1.5484 -3.4256  0.7756
 8991TIP3   OH226925   3.644   3.955   5.834 -0.2127  0.1740 -0.3604
 8991TIP3    H126926   3.634   3.911   5.919  0.4492 -0.2055 -0.4753
 8991TIP3    H226927   3.726   4.005   5.843  0.4226 -0.7030 -1.1272
 8992TIP3   OH226928   4.854   3.105   5.396 -0.3722  0.0294 -0.9296
 8992TIP3    H126929   4.762   3.129   5.386 -0.8344 -1.0049  0.8101
 8992TIP3    H226930   4.892   3.124   5.310 -2.2818  0.0716 -1.8018
 8993TIP3   OH226931   0.552   0.340   0.226 -0.2961  0.0906  0.1766
 8993TIP3    H126932   0.621   0.387   0.272 -1.5837  0.4429  1.8239
 8993TIP3    H226933   0.596   0.265   0.187  0.7325 -0.7284  2.7926
 8994TIP3   OH226934   1.620   6.639   0.781  0.2300  1.0444 -0.4219
 8994TIP3    H126935   1.699   6.600   0.819  0.7914  1.6610 -0.9556
 8994TIP3    H226936   1.551   6.577   0.804  0.4684  1.6097  1.9814
 8995TIP3   OH226937   5.391   6.323   0.997  0.0019 -0.1081  0.2620
 8995TIP3    H126938   5.347   6.315   0.913 -0.6284  0.1500  0.5694
 8995TIP3    H226939   5.331   6.372   1.053  0.8175  0.5495  0.5825
 8996TIP3   OH226940   0.936   0.177   0.878  0.2166 -0.4525  0.2888
 8996TIP3    H126941   0.860   0.221   0.916  0.6983  0.2595  0.4405
 8996TIP3    H226942   0.992   0.157   0.952  0.5858 -0.1759  0.0883
 8997TIP3   OH226943   6.093   6.348   1.486  0.0858  0.0457 -0.9216
 8997TIP3    H126944   6.138   6.272   1.522  0.0757  0.6625  0.4164
 8997TIP3    H226945   6.130   6.423   1.533 -1.4951  0.6684 -0.6418
 8998TIP3   OH226946   5.021   2.345   5.939 -0.6261  0.4130  0.1432
 8998TIP3    H126947   4.962   2.399   5.991 -0.7467  0.6099 -0.1992
 8998TIP3    H226948   4.987   2.349   5.850  0.9430  2.0325 -0.4138
 8999TIP3   OH226949   2.148   2.957   5.127  0.4027  0.2008 -0.3835
 8999TIP3    H126950   2.166   2.865   5.110  0.0647  0.3626 -1.7568
 8999TIP3    H226951   2.212   2.983   5.193 -1.1889 -1.6590  1.9346
 9000TIP3   OH226952   3.455   2.022   6.317  0.0628 -0.4187  0.2384
 9000TIP3    H126953   3.435   1.961   6.246 -0.3235 -0.6196  0.5166
 9000TIP3    H226954   3.550   2.029   6.317  0.0160  0.2902 -0.8945
 9001TIP3   OH226955   4.049   3.124   6.242  0.6767 -0.2540  0.8572
 9001TIP3    H126956   4.087   3.160   6.162 -0.1198  0.3757  0.7534
 9001TIP3    H226957   4.037   3.201   6.298 -2.1666 -0.1452  0.1770
 9002TIP3   OH226958   3.485   1.775   5.802 -0.2830  0.0336  0.0049
 9002TIP3    H126959   3.526   1.741   5.722 -0.4328  0.6315 -0.3316
 9002TIP3    H226960   3.452   1.697   5.847  1.1993 -0.4401  0.2737
 9003TIP3   OH226961   1.818   2.443   6.077 -0.5364 -0.3527 -0.0194
 9003TIP3    H126962   1.740   2.489   6.045 -0.2997 -0.5671 -0.9104
 9003TIP3    H226963   1.812   2.356   6.038  0.3065 -0.2707 -0.3211
 9004TIP3   OH226964   1.607   0.194   2.596 -0.3987 -0.5510  0.0034
 9004TIP3    H126965   1.558   0.151   2.526 -1.0168  0.7780 -0.4096
 9004TIP3    H226966   1.651   0.267   2.552  2.5710 -2.1525  0.2285
 9005TIP3   OH226967   0.164   6.125   0.752 -0.2506 -0.0065  0.3160
 9005TIP3    H126968   0.162   6.206   0.701 -0.5379 -0.3166 -0.1688
 9005TIP3    H226969   0.090   6.074   0.719  0.2080 -0.6653  0.2965
 9006TIP3   OH226970   4.940   3.854   5.887  0.1049  0.3183  0.2072
 9006TIP3    H126971   4.900   3.886   5.968 -0.8384 -1.5788  0.4986
 9006TIP3    H226972   5.012   3.798   5.916  1.7767  2.1397 -0.3088
 9007TIP3   OH226973   5.817   5.388   0.540 -0.0904 -0.5102 -0.6734
 9007TIP3    H126974   5.846   5.385   0.631 -1.3256 -1.3719 -0.2840
 9007TIP3    H226975   5.892   5.360   0.489  0.8011  0.5586  0.0262
 9008TIP3   OH226976   3.062   6.589   1.950 -0.3809 -0.0206  0.4809
 9008TIP3    H126977   3.117   6.522   1.910  0.0079  0.1288  0.7607
 9008TIP3    H226978   3.123   6.645   1.998 -0.8473 -0.2696  1.3830
 9009TIP3   OH226979   6.480   3.833   0.681  0.3258 -0.3068  0.0364
 9009TIP3    H126980   6.537   3.907   0.704  0.0706  0.0711 -0.5196
 9009TIP3    H226981   6.540   3.765   0.651  0.5532 -0.2595  0.3913
 9010TIP3   OH226982   3.935   6.414   6.013 -0.3911 -0.4016  0.1228
 9010TIP3    H126983   4.000   6.378   6.073 -1.1866  1.6783  2.3174
 9010TIP3    H226984   3.851   6.395   6.054 -0.9921  0.3503 -0.7421
 9011TIP3   OH226985   5.006   2.090   5.978 -0.3713 -0.3202  0.2608
 9011TIP3    H126986   4.943   2.109   6.047 -0.7497 -0.0908 -0.1473
 9011TIP3    H226987   5.036   2.175   5.949 -2.5756 -0.2831 -2.0437
 9012TIP3   OH226988   1.642   1.688   4.635 -0.7801  0.1205 -0.1665
 9012TIP3    H126989   1.572   1.749   4.659 -0.8296  0.3029 -0.7612
 9012TIP3    H226990   1.666   1.713   4.546 -0.3124 -0.2765 -0.1532
 9013TIP3   OH226991   6.288   6.619   0.336  0.1497 -0.0032  0.3168
 9013TIP3    H126992   6.329   6.659   0.260  0.3114  0.0896  0.4546
 9013TIP3    H226993   6.294   6.685   0.405 -0.6423  0.1911  0.2057
 9014TIP3   OH226994   4.695   6.110   2.537  0.0919 -0.2218  0.2746
 9014TIP3    H126995   4.735   6.148   2.458  0.1171 -0.8812 -0.0304
 9014TIP3    H226996   4.657   6.028   2.507 -0.3921 -0.2043  0.8358
 9015TIP3   OH226997   5.838   3.929   0.341  0.0220 -0.3912  0.7235
 9015TIP3    H126998   5.785   3.986   0.285  0.7620 -0.0678  0.3522
 9015TIP3    H226999   5.841   3.846   0.295 -0.7139 -0.6145  1.0661
 9016TIP3   OH227000   0.691   6.599   0.400 -0.2589  0.0920 -0.0272
 9016TIP3    H127001   0.710   6.518   0.447  0.5116  0.1938 -0.1591
 9016TIP3    H227002   0.707   6.578   0.308  0.1576  0.4487 -0.0409
 9017TIP3   OH227003   0.711   0.554   0.925  0.0964 -0.1376 -0.3880
 9017TIP3    H127004   0.621   0.583   0.907  0.1771  1.1691  1.1358
 9017TIP3    H227005   0.702   0.463   0.952 -0.3256 -1.2218 -3.9846
 9018TIP3   OH227006   5.512   2.002   6.315 -0.2487 -0.1399  0.0492
 9018TIP3    H127007   5.513   2.054   6.395 -1.6744  1.4269 -0.9120
 9018TIP3    H227008   5.428   1.956   6.318 -1.0132  1.1167 -1.2552
 9019TIP3   OH227009   7.879   6.233   0.542  0.5682  0.9063 -0.2912
 9019TIP3    H127010   7.948   6.299   0.550  1.3326  0.0449  0.4014
 9019TIP3    H227011   7.835   6.253   0.460  0.0461  2.9733  0.4591
 9020TIP3   OH227012   5.427   2.419   5.826 -0.3208 -0.1179 -0.0703
 9020TIP3    H127013   5.479   2.339   5.826  1.0854  0.7645 -0.4728
 9020TIP3    H227014   5.414   2.439   5.919  1.3760  0.4486  0.0704
 9021TIP3   OH227015   7.499   6.334   1.116 -0.4493  0.6882  0.1072
 9021TIP3    H127016   7.558   6.368   1.049 -1.4515  1.0106 -0.6191
 9021TIP3    H227017   7.476   6.411   1.168  1.6495  0.1634  1.8769
 9022TIP3   OH227018   0.528   1.253   1.995  0.6297  0.0319  0.0245
 9022TIP3    H127019   0.487   1.328   2.039 -1.3811 -0.7603 -0.4210
 9022TIP3    H227020   0.472   1.179   2.018  2.5050 -1.3261  0.3280
 9023TIP3   OH227021   5.279   4.320   0.126 -0.4046 -0.5983 -0.2284
 9023TIP3    H127022   5.354   4.295   0.180 -0.2983 -1.1701 -0.6318
 9023TIP3    H227023   5.218   4.248   0.136 -0.7459 -0.3004 -0.1872
 9024TIP3   OH227024   0.476   2.046   6.225 -0.0079  0.0687  0.1557
 9024TIP3    H127025   0.430   1.981   6.278 -0.6188  0.9453  0.7185
 9024TIP3    H227026   0.482   2.123   6.282 -1.3124  1.2761 -1.2889
 9025TIP3   OH227027   0.463   1.349   0.888  0.3243  0.1592 -0.3970
 9025TIP3    H127028   0.485   1.442   0.898 -0.5359  0.0685  2.4925
 9025TIP3    H227029   0.548   1.306   0.879  0.6928  1.3110 -3.0895
 9026TIP3   OH227030   4.744   7.234   0.831  0.3476 -0.2397 -0.0864
 9026TIP3    H127031   4.746   7.142   0.856 -0.6322 -0.3535 -0.4330
 9026TIP3    H227032   4.683   7.274   0.892 -0.9969 -0.2586 -1.4109
 9027TIP3   OH227033   3.156   2.702   5.959 -0.5536 -0.4852  0.2533
 9027TIP3    H127034   3.167   2.727   5.867 -0.4017 -0.5303  0.2599
 9027TIP3    H227035   3.228   2.641   5.976  0.8647  1.3660  1.0656
 9028TIP3   OH227036   4.254   1.988   3.279 -0.2477 -0.7855 -0.1262
 9028TIP3    H127037   4.290   2.019   3.362  1.3383  0.3826 -1.2212
 9028TIP3    H227038   4.210   1.906   3.301  0.5665 -0.7386  1.7770
 9029TIP3   OH227039   2.859   2.653   5.424  0.1928 -0.1425 -0.1238
 9029TIP3    H127040   2.809   2.573   5.438  0.4844 -0.0492  1.6612
 9029TIP3    H227041   2.945   2.623   5.396 -0.3345 -0.3686 -1.5066
 9030TIP3   OH227042   3.969   3.631   5.684 -0.3593  0.1564 -0.4607
 9030TIP3    H127043   3.891   3.686   5.685 -0.6480 -0.2634  0.1982
 9030TIP3    H227044   3.943   3.554   5.632 -0.7672 -0.5293  0.7357
 9031TIP3   OH227045   3.161   5.350   5.663  0.2953 -0.4201  0.2707
 9031TIP3    H127046   3.164   5.354   5.567  0.8622 -1.5539  0.2363
 9031TIP3    H227047   3.216   5.423   5.691  0.7302 -0.5260 -0.2791
 9032TIP3   OH227048   0.829   1.543   0.912  0.1962  0.2022  0.0247
 9032TIP3    H127049   0.842   1.584   0.998 -0.1689  1.3712 -0.4719
 9032TIP3    H227050   0.821   1.450   0.931 -1.4430  0.6146  1.4193
 9033TIP3   OH227051   2.449   0.651   5.580 -0.1082 -0.4482 -1.0258
 9033TIP3    H127052   2.377   0.712   5.593  0.0034 -0.3893 -0.7006
 9033TIP3    H227053   2.476   0.666   5.489  0.0633  0.1333 -0.8770
 9034TIP3   OH227054   4.990   5.744   0.358  0.4720 -0.8017 -0.7718
 9034TIP3    H127055   5.016   5.669   0.412  0.1895 -1.5406 -1.6418
 9034TIP3    H227056   4.909   5.775   0.397  1.7439  0.4490  0.9277
 9035TIP3   OH227057   5.465   5.817   2.075  0.0127  0.7465 -0.2671
 9035TIP3    H127058   5.514   5.734   2.075  0.6223  1.0954 -1.4449
 9035TIP3    H227059   5.486   5.857   2.159  2.1357  1.1016 -0.9317
 9036TIP3   OH227060   3.754   3.121   6.154  0.2771 -0.1280 -0.7080
 9036TIP3    H127061   3.836   3.077   6.132 -0.8397 -2.0545 -1.2203
 9036TIP3    H227062   3.702   3.053   6.198 -1.0797  1.0067 -0.5167
 9037TIP3   OH227063   6.171   0.847   5.776 -0.3293 -0.2117  0.1191
 9037TIP3    H127064   6.097   0.905   5.795  0.5138  1.6190 -1.9695
 9037TIP3    H227065   6.245   0.889   5.820  0.2891  0.2784 -1.3968
 9038TIP3   OH227066   1.871   1.373   1.747  0.0660 -0.5347  0.0812
 9038TIP3    H127067   1.967   1.377   1.740  0.0505 -0.4029 -0.0556
 9038TIP3    H227068   1.840   1.418   1.669 -0.1058 -0.9874 -0.1115
 9039TIP3   OH227069   3.045   1.326   4.566 -0.4911  0.1415 -0.2743
 9039TIP3    H127070   3.027   1.414   4.534  2.0706  1.3849  1.6087
 9039TIP3    H227071   3.133   1.306   4.536 -0.1274 -0.8157  1.3408
 9040TIP3   OH227072   5.586   2.199   5.842  0.1174 -0.0538 -0.1300
 9040TIP3    H127073   5.546   2.133   5.786  0.0082  1.2843 -1.7018
 9040TIP3    H227074   5.646   2.151   5.898 -0.4704 -1.5546 -0.7763
 9041TIP3   OH227075   7.435   0.687   1.283  0.0197  0.6600 -0.5651
 9041TIP3    H127076   7.448   0.612   1.225 -1.3385 -0.5972  0.7173
 9041TIP3    H227077   7.364   0.737   1.242 -0.1608  0.3824 -0.5940
 9042TIP3   OH227078   4.510   5.444   0.002 -0.3592 -0.0765  0.1441
 9042TIP3    H127079   4.425   5.407  -0.022  0.2363 -0.5801 -1.2421
 9042TIP3    H227080   4.557   5.372   0.046 -0.5682  0.1441  0.7383
 9043TIP3   OH227081   4.530   7.409   1.655 -0.0046  1.0325 -0.3399
 9043TIP3    H127082   4.514   7.319   1.684  1.1346  0.7502 -0.5705
 9043TIP3    H227083   4.550   7.402   1.562 -1.7022  1.7352 -0.7909
 9044TIP3   OH227084   7.216   6.492   1.856  0.0896  0.1302 -0.5611
 9044TIP3    H127085   7.232   6.543   1.936 -1.0303  0.7697 -0.7386
 9044TIP3    H227086   7.142   6.536   1.814  0.6486 -0.2238 -1.9437
 9045TIP3   OH227087   4.348   2.402   5.389  0.0638  0.2567 -0.0547
 9045TIP3    H127088   4.407   2.451   5.332  0.4711 -0.5888 -0.3726
 9045TIP3    H227089   4.340   2.456   5.467 -0.3354  1.3326 -0.8236
 9046TIP3   OH227090   7.371   2.713   0.951 -0.4086 -0.2724  0.0821
 9046TIP3    H127091   7.439   2.648   0.962 -0.8345 -0.7537 -0.1305
 9046TIP3    H227092   7.409   2.779   0.893  0.3568  0.1502  1.0584
 9047TIP3   OH227093   7.594   2.018   0.503 -0.8536 -0.0095 -0.4511
 9047TIP3    H127094   7.661   1.995   0.567 -1.6022  0.2788  0.4455
 9047TIP3    H227095   7.642   2.032   0.422  0.7810  4.6286  1.1559
 9048TIP3   OH227096   0.437   7.272   2.209 -0.5370  0.3447 -0.1516
 9048TIP3    H127097   0.377   7.346   2.214  0.6521  1.4075 -1.3557
 9048TIP3    H227098   0.407   7.212   2.277 -3.3849  0.5362 -1.1680
 9049TIP3   OH227099   6.460   5.251   0.843  0.2317  0.2651 -0.1731
 9049TIP3    H127100   6.395   5.273   0.776  0.8066  0.4054 -0.6959
 9049TIP3    H227101   6.544   5.275   0.803  0.7297 -1.2966 -0.0708
 9050TIP3   OH227102   1.046   2.822   6.423 -0.3120  0.3820 -0.1980
 9050TIP3    H127103   1.028   2.762   6.351 -0.2820 -0.0110  0.1188
 9050TIP3    H227104   1.030   2.770   6.502 -0.0216  0.7090  0.0790
 9051TIP3   OH227105   0.494   0.827   1.513 -0.2333  0.7272  0.5161
 9051TIP3    H127106   0.413   0.808   1.466 -0.0070  0.1659  0.3479
 9051TIP3    H227107   0.495   0.922   1.520 -0.4956  0.7910 -0.2097
 9052TIP3   OH227108   1.447   0.942   1.245 -0.5119  0.0294  0.3068
 9052TIP3    H127109   1.449   1.016   1.184  2.2144  0.3368  0.6872
 9052TIP3    H227110   1.401   0.976   1.322  1.4899  1.6521  0.8212
 9053TIP3   OH227111   5.054   2.235   4.810 -0.0288  0.7100  0.1789
 9053TIP3    H127112   5.051   2.254   4.904 -1.0251 -2.2554  0.8041
 9053TIP3    H227113   4.965   2.206   4.789  1.1572 -2.3993 -0.7922
 9054TIP3   OH227114   7.505   7.184   0.283 -0.1515  0.5417  0.0413
 9054TIP3    H127115   7.421   7.187   0.329  0.3386 -0.6667  1.0554
 9054TIP3    H227116   7.565   7.232   0.340  0.0441  0.6403 -0.2486
 9055TIP3   OH227117   4.685   4.008   2.271  0.2242 -0.4837 -0.4975
 9055TIP3    H127118   4.719   3.919   2.264  0.1355 -0.5124 -0.5645
 9055TIP3    H227119   4.685   4.026   2.365  0.3516 -0.5130 -0.4917
 9056TIP3   OH227120   2.201   4.344   5.229 -0.5659  0.2224 -0.9663
 9056TIP3    H127121   2.280   4.290   5.223  0.2457  1.4593 -1.6608
 9056TIP3    H227122   2.149   4.303   5.299  0.3814 -0.9834 -0.9458
 9057TIP3   OH227123   5.659   7.364   1.055  0.3098 -0.1800 -0.1434
 9057TIP3    H127124   5.669   7.282   1.104  2.8235  0.0313 -0.2552
 9057TIP3    H227125   5.644   7.336   0.965 -1.4079 -0.5218  0.2173
 9058TIP3   OH227126   4.628   2.989   4.801 -0.4140  0.1087 -0.1291
 9058TIP3    H127127   4.638   2.917   4.739 -0.5140 -0.7766  0.8849
 9058TIP3    H227128   4.702   2.980   4.861 -1.3717 -0.1818  1.0265
 9059TIP3   OH227129   4.006   2.868   6.045 -0.7719  0.1149 -0.1760
 9059TIP3    H127130   4.067   2.794   6.046 -0.1918  0.5950 -0.1003
 9059TIP3    H227131   3.970   2.870   6.133 -1.9047 -0.9995 -0.5983
 9060TIP3   OH227132   3.993   7.161   0.626 -0.7023 -0.4121  0.0740
 9060TIP3    H127133   3.910   7.162   0.672 -1.0576 -4.3341 -0.2731
 9060TIP3    H227134   3.969   7.147   0.534  0.2985 -0.0311 -0.2559
 9061TIP3   OH227135   4.959   7.329   0.446  0.0399 -0.2711  0.5142
 9061TIP3    H127136   4.988   7.361   0.532  0.8720 -0.6429  0.3729
 9061TIP3    H227137   4.909   7.250   0.466  0.5039 -0.5352  0.6352
 9062TIP3   OH227138   0.174   4.194   1.160  0.7545  0.3379  0.4170
 9062TIP3    H127139   0.092   4.193   1.208 -0.4565  1.2737 -1.5675
 9062TIP3    H227140   0.190   4.103   1.136  0.6981  0.0546  1.4209
 9063TIP3   OH227141   5.956   3.702   5.665  0.3271 -0.0764  0.1869
 9063TIP3    H127142   5.885   3.739   5.718 -0.6595 -2.6480  0.7439
 9063TIP3    H227143   5.911   3.662   5.591  1.3037 -0.8449  0.0134
 9064TIP3   OH227144   7.165   6.589   0.474  0.1725 -0.4476  0.5949
 9064TIP3    H127145   7.246   6.552   0.509  0.6486  1.1488  1.2590
 9064TIP3    H227146   7.177   6.684   0.483 -1.5670 -0.1794  0.2258
 9065TIP3   OH227147   3.402   2.422   5.365 -0.5245 -0.3892 -0.5380
 9065TIP3    H127148   3.493   2.408   5.337 -0.0977 -2.7419  1.8566
 9065TIP3    H227149   3.384   2.513   5.340  2.8625  0.5191 -0.0643
 9066TIP3   OH227150   7.702  -0.021   1.221 -0.4514 -0.3531 -0.7435
 9066TIP3    H127151   7.676   0.068   1.198  1.4000  0.4137  0.0070
 9066TIP3    H227152   7.791  -0.030   1.187 -0.3463 -1.6542 -0.1714
 9067TIP3   OH227153   6.973   7.235   2.433 -0.1579 -0.1072 -0.4372
 9067TIP3    H127154   7.057   7.231   2.388  0.5340 -2.2880  0.9747
 9067TIP3    H227155   6.992   7.278   2.516 -0.8354  1.1746 -0.9368
 9068TIP3   OH227156   1.123   0.535   1.426  0.2297  0.1005 -0.1208
 9068TIP3    H127157   1.182   0.581   1.365  0.0558  0.9693  0.3605
 9068TIP3    H227158   1.159   0.446   1.431 -0.5188 -0.3712 -2.5173
 9069TIP3   OH227159   3.119   3.627   5.778  0.7215 -0.7149  0.3172
 9069TIP3    H127160   3.147   3.714   5.748 -0.0970 -0.5658 -0.0138
 9069TIP3    H227161   3.126   3.572   5.700  1.9404 -1.1147  0.7038
 9070TIP3   OH227162   4.918   4.239   0.868 -0.1762  0.6428 -0.1771
 9070TIP3    H127163   4.977   4.164   0.875 -0.4341  0.5116  0.7026
 9070TIP3    H227164   4.974   4.312   0.845  0.2512  0.3981  0.0762
 9071TIP3   OH227165   6.678   5.351   0.705 -0.6867 -0.2013  0.4803
 9071TIP3    H127166   6.696   5.437   0.743 -0.6606  0.6866 -1.4524
 9071TIP3    H227167   6.648   5.370   0.616  0.2507 -2.2252 -0.3104
 9072TIP3   OH227168   4.494   2.046   5.685 -0.0842  0.6262  0.1000
 9072TIP3    H127169   4.430   2.084   5.624 -0.1070  1.9412  0.9096
 9072TIP3    H227170   4.448   2.044   5.769  0.9184  1.5672  0.6839
 9073TIP3   OH227171   5.495   2.993   5.923 -0.4204  0.3893 -0.5663
 9073TIP3    H127172   5.503   2.940   5.844 -1.1564 -0.2607 -0.2052
 9073TIP3    H227173   5.514   3.082   5.894  0.4501 -0.0072 -1.2472
 9074TIP3   OH227174   6.599   0.415   1.592 -0.5311  0.1973 -0.0452
 9074TIP3    H127175   6.647   0.378   1.666 -1.1239 -0.8694 -0.1857
 9074TIP3    H227176   6.632   0.368   1.515 -1.8449 -0.6060 -0.1303
 9075TIP3   OH227177   0.574   3.910   3.996 -0.0412 -0.4628 -0.1838
 9075TIP3    H127178   0.621   3.966   4.058 -0.6762 -0.2082  0.0755
 9075TIP3    H227179   0.494   3.959   3.976 -0.0796 -0.7805 -0.8045
 9076TIP3   OH227180   2.698   4.732   3.394  0.5685 -0.1396  0.4424
 9076TIP3    H127181   2.614   4.698   3.424  0.9731 -0.4821  1.2102
 9076TIP3    H227182   2.742   4.761   3.474  1.3185 -0.2826  0.0865
 9077TIP3   OH227183   2.664   1.451   4.849 -0.2191  0.4870  0.6930
 9077TIP3    H127184   2.730   1.422   4.912 -0.5464  1.1637  1.3562
 9077TIP3    H227185   2.694   1.538   4.821 -0.3407  0.4028  0.2976
 9078TIP3   OH227186   1.033   1.981   0.524  0.0302  0.0761  0.3086
 9078TIP3    H127187   1.047   2.022   0.439 -2.3846  1.5171  0.5770
 9078TIP3    H227188   1.054   1.888   0.510  2.0037  0.7265 -1.2075
 9079TIP3   OH227189   5.394   3.218   5.155 -0.1829  0.3545  0.3508
 9079TIP3    H127190   5.406   3.156   5.227  2.5361  0.3872 -0.0438
 9079TIP3    H227191   5.351   3.294   5.196 -0.5454 -0.4583  1.4907
 9080TIP3   OH227192   6.710   6.239   0.804 -0.0997  0.2860 -0.3417
 9080TIP3    H127193   6.699   6.159   0.855 -1.1813  0.4303 -0.3413
 9080TIP3    H227194   6.762   6.212   0.728  0.3015 -0.2258  0.1075
 9081TIP3   OH227195   4.974   6.918   1.979 -0.5210  0.4370 -0.0405
 9081TIP3    H127196   4.991   6.925   1.885 -2.0726 -0.7850 -0.4223
 9081TIP3    H227197   4.879   6.917   1.987 -0.4079 -0.9275  1.4170
 9082TIP3   OH227198   1.228   1.364   3.612 -0.1313 -0.1970  0.1114
 9082TIP3    H127199   1.243   1.329   3.700  1.0412  1.3217  0.5336
 9082TIP3    H227200   1.211   1.457   3.626  0.4068  0.1259 -1.2946
 9083TIP3   OH227201   1.187   3.387   6.177  0.3351  0.3656  0.1987
 9083TIP3    H127202   1.150   3.302   6.200 -0.4373  1.1038  1.6899
 9083TIP3    H227203   1.264   3.365   6.124  0.2957 -1.2620  0.7825
 9084TIP3   OH227204   7.510   7.417   0.118 -0.2545  0.0984  0.0431
 9084TIP3    H127205   7.450   7.347   0.093  0.7429 -0.6723 -0.2282
 9084TIP3    H227206   7.545   7.389   0.203  0.4223  0.0844 -0.2373
 9085TIP3   OH227207   0.446   7.205   5.556  0.8198 -0.7889  0.3015
 9085TIP3    H127208   0.384   7.262   5.601 -0.6382 -0.1685 -2.3376
 9085TIP3    H227209   0.434   7.226   5.463  3.6310 -2.0530 -0.4017
 9086TIP3   OH227210   1.375   2.979   4.431 -0.2664 -0.0052  0.1426
 9086TIP3    H127211   1.462   2.991   4.394 -1.3084 -0.3051 -2.4793
 9086TIP3    H227212   1.352   2.889   4.409 -1.0285 -0.1070  1.3080
 9087TIP3   OH227213   5.535   6.971   0.488  0.1895  0.2561  0.1258
 9087TIP3    H127214   5.443   6.990   0.509  0.2210  0.1390  0.3602
 9087TIP3    H227215   5.585   7.039   0.533  0.1641  0.8092 -0.6634
 9088TIP3   OH227216   1.148   0.680   0.136  0.2218  0.1437 -0.4175
 9088TIP3    H127217   1.053   0.679   0.148  0.1727 -1.8810 -0.7831
 9088TIP3    H227218   1.182   0.627   0.209  0.9212 -0.6324 -1.2949
 9089TIP3   OH227219   4.904   3.594   6.264  0.0767  0.0312 -0.1198
 9089TIP3    H127220   4.869   3.543   6.191  0.0500 -0.6758  0.3796
 9089TIP3    H227221   4.839   3.585   6.334  0.2601  0.4279  0.1077
 9090TIP3   OH227222   5.065   4.171   6.177 -0.2081  0.4884 -0.2091
 9090TIP3    H127223   5.079   4.086   6.219 -3.3317  0.1124  0.2048
 9090TIP3    H227224   5.077   4.235   6.247 -0.5350  0.1929  0.1215
 9091TIP3   OH227225   3.775   1.959   5.358 -0.7271  0.3444 -0.2557
 9091TIP3    H127226   3.737   2.001   5.435  0.3271  0.4666  0.2086
 9091TIP3    H227227   3.723   1.880   5.345 -2.0667  1.2638 -0.5205
 9092TIP3   OH227228   5.952   4.352   6.395  0.0753 -0.2413  0.6705
 9092TIP3    H127229   5.859   4.359   6.376  0.0285 -0.1674  0.9223
 9092TIP3    H227230   5.993   4.330   6.311 -0.1582 -0.1906  0.5452
 9093TIP3   OH227231   6.643   5.804   1.876 -0.0429 -0.1976  0.2027
 9093TIP3    H127232   6.724   5.786   1.828 -0.2619 -0.2425 -0.1552
 9093TIP3    H227233   6.655   5.892   1.911 -0.4757  0.4171 -1.1766
 9094TIP3   OH227234   5.709   3.532   4.754 -0.4241 -0.3888  0.2737
 9094TIP3    H127235   5.735   3.510   4.843  0.5833 -0.1391  0.0483
 9094TIP3    H227236   5.614   3.533   4.756 -0.4212 -1.1584  1.1627
 9095TIP3   OH227237   7.274   6.802   0.727 -0.1172  0.6729  0.6355
 9095TIP3    H127238   7.313   6.845   0.803 -0.7753  0.5953  1.0310
 9095TIP3    H227239   7.184   6.835   0.725 -0.5599 -0.5030  0.8107
 9096TIP3   OH227240   2.673   0.107   6.376 -0.8675 -0.1734 -0.2996
 9096TIP3    H127241   2.599   0.108   6.315 -0.8894 -0.1956 -0.2737
 9096TIP3    H227242   2.663   0.024   6.423 -1.5540  0.4081  0.5995
 9097TIP3   OH227243   0.973   3.470   2.362  0.1404 -0.3232  0.1370
 9097TIP3    H127244   1.025   3.393   2.385 -1.5017 -1.6176 -0.3446
 9097TIP3    H227245   0.917   3.484   2.438  0.0564  0.0537  0.0044
 9098TIP3   OH227246   4.623   6.598   1.146  0.1484  0.3225 -0.5454
 9098TIP3    H127247   4.680   6.551   1.208 -1.1172 -0.5389 -0.0073
 9098TIP3    H227248   4.590   6.673   1.196 -0.3170  0.0150 -0.3802
 9099TIP3   OH227249   7.344   5.304   0.142  0.5891 -0.5532 -0.3919
 9099TIP3    H127250   7.368   5.211   0.136  0.3494 -0.4802 -3.2668
 9099TIP3    H227251   7.417   5.350   0.099  0.0262  0.4750 -0.2564
 9100TIP3   OH227252   4.263   1.220   5.322  0.0933 -0.4233 -0.1248
 9100TIP3    H127253   4.306   1.238   5.239  1.1167  1.7821  0.8301
 9100TIP3    H227254   4.309   1.143   5.357  0.5155 -0.5701 -0.9953
 9101TIP3   OH227255   4.709   6.648   1.829  0.0230  0.7238 -0.0695
 9101TIP3    H127256   4.741   6.600   1.753  1.4385  0.7611  0.4880
 9101TIP3    H227257   4.647   6.588   1.871  0.2661  0.1731 -0.4915
 9102TIP3   OH227258   4.872   3.435   4.737 -0.1688  0.4277 -0.1829
 9102TIP3    H127259   4.953   3.385   4.733 -0.4251 -0.0686  0.6492
 9102TIP3    H227260   4.890   3.515   4.687  0.7006  0.1433 -0.3221
 9103TIP3   OH227261   4.569   6.656   0.432 -0.0025  0.4154 -0.1820
 9103TIP3    H127262   4.642   6.607   0.471 -0.9748 -0.8072  0.1485
 9103TIP3    H227263   4.541   6.602   0.359 -1.1763  0.4202  0.2621
 9104TIP3   OH227264   1.302   0.430   0.595  0.3782 -0.1909  0.1988
 9104TIP3    H127265   1.383   0.381   0.585  0.4354  0.1846 -1.2569
 9104TIP3    H227266   1.233   0.364   0.598  0.5627 -0.4142 -0.5160
 9105TIP3   OH227267   7.831   1.175   1.867  0.6082  0.6336 -0.0054
 9105TIP3    H127268   7.863   1.133   1.787 -0.8479  0.1310 -0.3323
 9105TIP3    H227269   7.861   1.117   1.938 -0.9087 -0.6871 -0.4152
 9106TIP3   OH227270   0.023   6.790   1.647  0.6666  0.2476 -0.3988
 9106TIP3    H127271   0.034   6.697   1.668  1.0461  0.1533 -0.9793
 9106TIP3    H227272   0.010   6.832   1.731 -0.8146 -0.5021 -0.2480
 9107TIP3   OH227273   2.371   0.157   1.313 -0.2369  0.4016 -0.1665
 9107TIP3    H127274   2.303   0.224   1.308 -0.5510  0.0150 -1.1925
 9107TIP3    H227275   2.323   0.074   1.308  0.0785  0.0677  1.8983
 9108TIP3   OH227276   1.243   5.121   3.505 -0.0700  0.3643 -0.1078
 9108TIP3    H127277   1.246   5.186   3.435 -1.3360 -0.4341 -0.9228
 9108TIP3    H227278   1.245   5.172   3.586 -0.5523  1.3880 -0.7308
 9109TIP3   OH227279   7.231   1.160   1.009  0.0536 -0.5760 -0.4253
 9109TIP3    H127280   7.290   1.135   1.080  1.3676 -0.2596 -1.4052
 9109TIP3    H227281   7.236   1.088   0.947  2.0061  0.9383 -2.1030
 9110TIP3   OH227282   1.126   0.974   1.072  0.3172  0.2381  0.6357
 9110TIP3    H127283   1.038   0.939   1.063  0.8397 -0.8538 -0.3088
 9110TIP3    H227284   1.119   1.037   1.144 -0.8988 -0.9041  1.5446
 9111TIP3   OH227285   7.071   0.483   0.819  0.0628  0.1120 -0.2624
 9111TIP3    H127286   7.165   0.495   0.834 -0.2419  2.2755  0.1553
 9111TIP3    H227287   7.049   0.402   0.864  1.6292 -0.1329  0.0931
 9112TIP3   OH227288   3.715   3.569   4.627  0.1940 -0.3795  0.1680
 9112TIP3    H127289   3.676   3.492   4.668  1.1657 -0.8026  0.3066
 9112TIP3    H227290   3.786   3.534   4.573 -0.0633  0.3161 -0.6381
 9113TIP3   OH227291   1.455   1.998   2.575  0.1944  0.4594 -0.5249
 9113TIP3    H127292   1.437   2.092   2.566  1.5391  0.7907  0.0581
 9113TIP3    H227293   1.549   1.991   2.561  0.0487 -0.8552 -0.8753
 9114TIP3   OH227294   3.063   5.768   0.391 -0.2034 -0.1499 -0.4039
 9114TIP3    H127295   3.034   5.696   0.334  1.2583 -0.7760 -0.3821
 9114TIP3    H227296   3.112   5.826   0.332  0.4848 -0.3027  0.0088
 9115TIP3   OH227297   6.246   0.371   0.393 -0.2076 -0.4453  0.0429
 9115TIP3    H127298   6.297   0.352   0.472 -1.1279  0.0203  0.7586
 9115TIP3    H227299   6.243   0.288   0.345  1.1123 -0.5047  0.0540
 9116TIP3   OH227300   5.928   6.182   1.208 -0.3363 -0.1227 -0.1030
 9116TIP3    H127301   5.889   6.209   1.291 -1.4763 -0.4496 -0.5075
 9116TIP3    H227302   6.014   6.222   1.207 -0.8536  1.0423  0.6131
 9117TIP3   OH227303   3.821   3.387   0.749 -0.0757  0.3211  0.1143
 9117TIP3    H127304   3.792   3.435   0.827  0.9715  0.1291  0.6270
 9117TIP3    H227305   3.741   3.351   0.711 -1.0946  3.6372 -1.0656
 9118TIP3   OH227306   5.562   0.397   6.019  0.6766  0.2134 -0.4051
 9118TIP3    H127307   5.635   0.427   6.073  2.6436 -1.7925 -1.8460
 9118TIP3    H227308   5.485   0.439   6.058  2.1959  0.0680  2.9814
 9119TIP3   OH227309   4.216   4.436   0.912  0.2103  0.3986  0.1189
 9119TIP3    H127310   4.290   4.381   0.936  0.2978  0.5509  0.1968
 9119TIP3    H227311   4.227   4.452   0.819  0.5986  0.9125  0.2508
 9120TIP3   OH227312   3.123   3.125   6.266 -0.3049 -0.8579  0.3048
 9120TIP3    H127313   3.128   3.050   6.207  0.1788 -0.4884 -0.1264
 9120TIP3    H227314   3.030   3.134   6.285 -0.3564 -1.6558  0.4771
 9121TIP3   OH227315   0.653   0.042   0.476  0.3301  0.2285  0.0875
 9121TIP3    H127316   0.662   0.038   0.381 -0.0760 -1.1380  0.0894
 9121TIP3    H227317   0.659  -0.049   0.504  1.4581  0.7054  1.4795
 9122TIP3   OH227318   2.948   1.554   5.739  0.1072 -0.0198  0.4009
 9122TIP3    H127319   3.016   1.525   5.678  0.7331 -0.8016  1.4502
 9122TIP3    H227320   2.945   1.485   5.805 -0.5958  0.7979  1.2251
 9123TIP3   OH227321   5.387   1.902   5.458  0.3119 -0.2241  0.0339
 9123TIP3    H127322   5.452   1.898   5.388  1.0401 -0.3373  0.7131
 9123TIP3    H227323   5.352   1.813   5.463 -1.0929  0.2272 -1.4494
 9124TIP3   OH227324   0.287   2.689   0.752  0.1775  0.1126 -0.0754
 9124TIP3    H127325   0.294   2.677   0.847  0.9851  0.8463 -0.0363
 9124TIP3    H227326   0.342   2.620   0.715  2.8468  2.0948  0.0900
 9125TIP3   OH227327   3.235   6.823   1.801 -0.7732 -0.4700 -0.1165
 9125TIP3    H127328   3.265   6.732   1.809  0.3774 -0.0477  0.6760
 9125TIP3    H227329   3.303   6.866   1.749  0.5265  0.7063  2.4335
 9126TIP3   OH227330   3.766   6.290   0.762  0.1787 -0.1339 -0.2607
 9126TIP3    H127331   3.736   6.293   0.671 -1.6541 -2.0835  0.2287
 9126TIP3    H227332   3.686   6.302   0.814  1.4203  2.4754  1.1250
 9127TIP3   OH227333   3.390   2.433   4.469 -0.1028 -0.2438 -0.0437
 9127TIP3    H127334   3.310   2.407   4.422 -1.5337  0.6042  1.8335
 9127TIP3    H227335   3.451   2.361   4.454 -0.6555 -0.1829 -2.8170
 9128TIP3   OH227336   3.932   2.509   5.914 -0.0745 -0.2699 -0.0302
 9128TIP3    H127337   3.890   2.578   5.863 -1.0249 -0.0632  1.0157
 9128TIP3    H227338   3.916   2.533   6.005  1.9238 -0.4538  0.3797
 9129TIP3   OH227339   4.115   3.642   6.076  0.1246  0.0139  0.1414
 9129TIP3    H127340   4.134   3.678   6.162  1.1827 -0.6669  0.2027
 9129TIP3    H227341   4.101   3.718   6.020 -1.9333  0.4543  1.1995
 9130TIP3   OH227342   2.039   0.113   0.266  0.0139 -0.2359  1.0763
 9130TIP3    H127343   2.012   0.199   0.235 -1.4580 -0.7466  0.9030
 9130TIP3    H227344   2.107   0.085   0.204  0.4783  0.7851  1.1218
 9131TIP3   OH227345   5.410   4.912   5.069  0.2351 -0.0080  0.2192
 9131TIP3    H127346   5.364   4.996   5.065  0.4624  0.1676  1.1786
 9131TIP3    H227347   5.365   4.856   5.005  0.2669  0.9255 -0.6249
 9132TIP3   OH227348   0.863   7.376   2.346 -0.3118 -0.3619 -0.3422
 9132TIP3    H127349   0.812   7.349   2.269 -0.0358  0.9721 -0.9980
 9132TIP3    H227350   0.954   7.363   2.320 -0.2604 -2.5364  0.7536
 9133TIP3   OH227351   5.100   3.674   5.613 -0.1426  0.4326  0.1233
 9133TIP3    H127352   5.065   3.763   5.615 -0.0971  0.4810 -0.7615
 9133TIP3    H227353   5.171   3.675   5.677 -0.1554  1.0313  0.1335
 9134TIP3   OH227354   3.977   3.391   4.256  0.2542 -0.0371 -0.1792
 9134TIP3    H127355   3.957   3.437   4.175  0.5960  0.2520 -0.1021
 9134TIP3    H227356   4.038   3.322   4.230  0.7855  0.3940 -0.0851
 9135TIP3   OH227357   5.995   5.203   6.297  0.1352 -0.0851 -0.5276
 9135TIP3    H127358   6.064   5.214   6.362  1.5550  0.1831 -2.0602
 9135TIP3    H227359   5.940   5.281   6.307  0.7660  0.3142 -0.1713
 9136TIP3   OH227360   7.839   7.154   1.238  0.4120 -0.8072 -0.9656
 9136TIP3    H127361   7.934   7.153   1.229  0.5694  0.3079  0.3010
 9136TIP3    H227362   7.822   7.107   1.319 -0.0005  0.2640 -0.4224
 9137TIP3   OH227363   2.297   2.479   5.622 -0.2787 -0.0099  0.3884
 9137TIP3    H127364   2.239   2.554   5.607  0.3382  0.1286 -1.4430
 9137TIP3    H227365   2.251   2.405   5.581  1.3030  0.3146 -2.0767
 9138TIP3   OH227366   4.596   2.862   4.350 -0.0048  0.7246 -0.7749
 9138TIP3    H127367   4.536   2.885   4.279 -2.4074 -2.4076  0.0990
 9138TIP3    H227368   4.673   2.825   4.307 -0.4727  0.9677 -1.8171
 9139TIP3   OH227369   5.482   4.539   6.091 -0.4462  0.2871 -0.1424
 9139TIP3    H127370   5.427   4.584   6.028 -0.4446 -0.6152 -0.7953
 9139TIP3    H227371   5.501   4.454   6.051 -1.0205 -0.5761  1.3701
 9140TIP3   OH227372   3.148   1.365   0.874  0.0233 -0.5485  0.2317
 9140TIP3    H127373   3.156   1.422   0.951 -0.4274 -0.9562  0.5833
 9140TIP3    H227374   3.194   1.413   0.805  0.4292 -0.1708  0.7486
 9141TIP3   OH227375   5.159   3.963   6.319  0.0892 -0.8857 -0.0086
 9141TIP3    H127376   5.171   3.868   6.323 -1.7793 -1.2247 -1.6461
 9141TIP3    H227377   5.226   3.993   6.258 -1.1216 -1.5672 -1.7477
 9142TIP3   OH227378   5.580   2.712   5.786  0.3047  0.4296  0.4308
 9142TIP3    H127379   5.523   2.636   5.772 -0.6378  1.3485 -0.8579
 9142TIP3    H227380   5.666   2.684   5.756  0.3074 -0.6226  1.3845
 9143TIP3   OH227381   0.975   4.832   0.035 -0.6654 -0.2870  0.5146
 9143TIP3    H127382   1.042   4.776   0.075 -0.2725 -0.1231  0.0938
 9143TIP3    H227383   1.008   4.921   0.050  0.0458 -0.2596 -1.1517
 9144TIP3   OH227384   5.955   1.212   4.039 -0.5113  0.2283  0.4340
 9144TIP3    H127385   5.983   1.228   3.949  0.4211  0.2316  0.7284
 9144TIP3    H227386   5.928   1.298   4.071  1.0848  0.5945  0.8246
 9145TIP3   OH227387   5.745   2.931   5.313  0.5924 -0.0219  0.2861
 9145TIP3    H127388   5.737   2.965   5.223 -0.4518  1.0261  0.7587
 9145TIP3    H227389   5.837   2.943   5.335  0.4060  1.8521  0.1704
 9146TIP3   OH227390   6.709   2.229   3.598 -0.1745 -0.0635 -0.2296
 9146TIP3    H127391   6.703   2.184   3.682 -0.0760  1.1997  0.4641
 9146TIP3    H227392   6.619   2.257   3.579  0.1310  1.3690  0.4166
 9147TIP3   OH227393   6.156   2.569   4.789 -0.1896  0.0488 -0.3877
 9147TIP3    H127394   6.118   2.590   4.704 -1.3428  0.6350  0.2647
 9147TIP3    H227395   6.236   2.521   4.768 -0.5859 -0.0210 -1.7939
 9148TIP3   OH227396   4.274   3.132   5.420  0.2532 -0.5431 -0.2935
 9148TIP3    H127397   4.207   3.132   5.351  0.4984 -1.0946 -0.5324
 9148TIP3    H227398   4.292   3.224   5.436  1.4113 -0.4304 -2.1536
 9149TIP3   OH227399   4.257   4.799   5.789  0.0552  0.6679  0.3246
 9149TIP3    H127400   4.273   4.847   5.870  3.2001 -0.1318  0.2512
 9149TIP3    H227401   4.304   4.849   5.722  0.1865 -0.4155 -0.4092
 9150TIP3   OH227402   6.580   0.927   5.277 -0.7096  0.0148 -0.1246
 9150TIP3    H127403   6.607   0.840   5.306 -0.9843  0.1038  0.4111
 9150TIP3    H227404   6.488   0.917   5.252  0.0466 -0.4875 -2.7996
 9151TIP3   OH227405   6.630   2.856   6.226  0.4174  0.4111 -0.1569
 9151TIP3    H127406   6.639   2.883   6.317  2.1324  0.9204 -0.4561
 9151TIP3    H227407   6.537   2.836   6.215  0.2641  0.0398  1.7803
 9152TIP3   OH227408   0.290   5.482   0.331 -0.9757 -0.9519  0.0172
 9152TIP3    H127409   0.309   5.572   0.358  0.4718 -1.4897  0.8552
 9152TIP3    H227410   0.203   5.487   0.291 -0.8147  0.8562 -0.1633
 9153TIP3   OH227411   3.423   3.644   5.118  0.2219 -0.0848  0.0810
 9153TIP3    H127412   3.438   3.645   5.213  0.7293 -0.4706  0.0074
 9153TIP3    H227413   3.510   3.648   5.080  0.0759 -1.0219 -0.3646
 9154TIP3   OH227414   3.002   2.882   3.093 -0.5860  0.0249 -0.0279
 9154TIP3    H127415   3.015   2.788   3.102  0.7122  0.3965  2.3975
 9154TIP3    H227416   2.916   2.898   3.133 -1.4740 -0.3006 -1.7630
 9155TIP3   OH227417   2.413   0.938   0.744  0.7422 -0.5897 -0.0648
 9155TIP3    H127418   2.360   0.860   0.726 -0.3570  0.2286 -0.4580
 9155TIP3    H227419   2.480   0.908   0.806 -0.3838 -1.5764  0.7033
 9156TIP3   OH227420   4.247   0.375   1.868  0.1470  0.6272  0.3045
 9156TIP3    H127421   4.156   0.391   1.895  1.1046  1.5918  3.1346
 9156TIP3    H227422   4.287   0.332   1.943  1.8171 -0.7133 -1.2947
 9157TIP3   OH227423   6.091   2.163   5.705 -0.5836  0.4240 -0.0583
 9157TIP3    H127424   6.079   2.072   5.677 -3.2282  0.7165 -0.0097
 9157TIP3    H227425   6.079   2.160   5.800  1.3774  0.5147  0.1976
 9158TIP3   OH227426   2.428   1.192   3.107 -0.0251  0.2982  0.3419
 9158TIP3    H127427   2.431   1.219   3.015 -0.7840  1.0267  0.5222
 9158TIP3    H227428   2.519   1.173   3.130  0.1522  0.0030 -0.5916
 9159TIP3   OH227429   2.059   0.106   1.810  0.3107  0.1020  0.6360
 9159TIP3    H127430   2.020   0.026   1.774  0.7277  0.0810  0.2190
 9159TIP3    H227431   2.049   0.171   1.741 -1.3859  0.8384  1.5459
 9160TIP3   OH227432   4.587   2.842   5.899  0.5531  0.4721  0.3328
 9160TIP3    H127433   4.521   2.904   5.930 -0.1544 -0.8060  1.4375
 9160TIP3    H227434   4.648   2.896   5.849  1.1734  2.4378  3.0974
 9161TIP3   OH227435   5.175   4.944   6.315  0.1420 -0.3590 -0.0013
 9161TIP3    H127436   5.132   5.028   6.299  2.1026  0.6093 -0.4023
 9161TIP3    H227437   5.146   4.917   6.402 -2.0639 -0.2611 -0.6862
 9162TIP3   OH227438   5.820   2.211   4.731  0.0594  0.0663 -0.1316
 9162TIP3    H127439   5.912   2.234   4.748 -0.3529  1.9627 -0.3497
 9162TIP3    H227440   5.770   2.263   4.794 -0.8843 -0.6497 -0.2889
 9163TIP3   OH227441   6.057   0.435   6.043 -0.0549  0.2972  0.6763
 9163TIP3    H127442   6.072   0.529   6.032 -1.2934  0.4179 -0.0833
 9163TIP3    H227443   6.145   0.396   6.046  0.4768  1.5453  1.7262
 9164TIP3   OH227444   7.082   3.866   5.808  0.4626  0.3607  0.1134
 9164TIP3    H127445   7.020   3.933   5.837 -0.2805  0.6333 -2.0381
 9164TIP3    H227446   7.129   3.907   5.736  1.4054 -0.7374  0.0984
 9165TIP3   OH227447   0.597   5.552   1.458  0.1389  0.3722  0.2435
 9165TIP3    H127448   0.579   5.520   1.546 -0.3060  0.4920  0.1939
 9165TIP3    H227449   0.689   5.579   1.461  0.1865  0.1722  0.6068
 9166TIP3   OH227450   3.961   2.230   5.706 -0.1526  0.3357  0.1919
 9166TIP3    H127451   3.898   2.199   5.770 -1.3782  1.6686 -0.3469
 9166TIP3    H227452   4.046   2.200   5.740 -1.1680 -2.6889  0.1910
 9167TIP3   OH227453   1.273   2.004   0.758 -0.3237  0.0055  0.1088
 9167TIP3    H127454   1.249   1.923   0.713  0.6135 -0.7134  0.8931
 9167TIP3    H227455   1.320   1.976   0.836 -1.0932  1.2714  1.0599
 9168TIP3   OH227456   6.053   6.772   0.096 -0.1731 -0.0052  0.1200
 9168TIP3    H127457   6.045   6.826   0.018  1.6809  0.1620  0.0207
 9168TIP3    H227458   6.033   6.683   0.066  1.7739 -0.1425 -0.8552
 9169TIP3   OH227459   5.213   3.080   5.601 -0.2407  1.0755 -0.3076
 9169TIP3    H127460   5.187   3.169   5.624 -1.3776  0.7335 -0.2313
 9169TIP3    H227461   5.142   3.025   5.634 -0.0815  0.2480 -1.3221
 9170TIP3   OH227462   4.897   4.404   6.106  0.1694 -0.0114  0.1415
 9170TIP3    H127463   4.953   4.327   6.095  0.7633  0.7290 -2.3120
 9170TIP3    H227464   4.838   4.381   6.178  1.7407 -1.9045  0.8823
 9171TIP3   OH227465   3.917   1.660   5.936 -0.5398 -0.2842  0.4025
 9171TIP3    H127466   3.850   1.615   5.884 -0.7155  0.1472  0.2509
 9171TIP3    H227467   3.954   1.592   5.993  0.3044 -0.9569 -0.9441
 9172TIP3   OH227468   4.092   4.190   6.185 -0.3154 -0.7047 -0.2407
 9172TIP3    H127469   4.183   4.221   6.179 -0.4725 -0.3705 -1.0637
 9172TIP3    H227470   4.080   4.169   6.277  0.9285 -1.7440 -0.2990
 9173TIP3   OH227471   6.373   6.859   1.201 -0.8392 -0.3810 -0.1505
 9173TIP3    H127472   6.341   6.790   1.142 -0.0359 -0.2018 -0.8033
 9173TIP3    H227473   6.303   6.923   1.203 -0.5006  0.0635 -1.6680
 9174TIP3   OH227474   0.402   3.143   1.538 -0.1773 -0.3791 -0.1709
 9174TIP3    H127475   0.428   3.075   1.599 -0.4477 -1.7229 -1.5187
 9174TIP3    H227476   0.484   3.177   1.503 -0.0508 -0.2565  0.2470
 9175TIP3   OH227477   3.938   0.557   6.357 -0.0712 -0.7693  0.2333
 9175TIP3    H127478   4.020   0.561   6.308 -0.5293 -1.2110 -0.5917
 9175TIP3    H227479   3.913   0.465   6.353  0.4609 -1.0083  2.2728
 9176TIP3   OH227480   2.081   0.734   0.356 -0.0013 -0.0517  0.5507
 9176TIP3    H127481   2.144   0.729   0.427 -2.3774  0.0462  2.7225
 9176TIP3    H227482   1.997   0.714   0.396 -1.3604 -0.4396 -2.3226
 9177TIP3   OH227483   4.972   4.658   5.745  0.2105 -0.0820 -0.1110
 9177TIP3    H127484   4.944   4.698   5.827  0.1766  1.5911 -0.9269
 9177TIP3    H227485   4.903   4.595   5.724 -1.2276  1.5392 -0.3192
 9178TIP3   OH227486   6.151   5.261   0.697  0.1929 -0.2786  0.3573
 9178TIP3    H127487   6.122   5.214   0.619  0.8848  0.5682 -0.4233
 9178TIP3    H227488   6.071   5.301   0.731 -0.1315 -0.7380  0.1471
 9179TIP3   OH227489   7.735   3.654   6.418 -0.1393  0.1726  0.2337
 9179TIP3    H127490   7.724   3.598   6.496  0.9208 -1.6763 -0.8936
 9179TIP3    H227491   7.646   3.674   6.390 -0.5424 -0.6114  0.9033
 9180TIP3   OH227492   6.183   4.494   4.190 -0.7758  0.2464 -0.1532
 9180TIP3    H127493   6.161   4.401   4.188 -2.8660  0.7449 -1.9025
 9180TIP3    H227494   6.279   4.497   4.183 -0.7331 -1.7446 -0.5606
 9181TIP3   OH227495   6.015   6.823   0.355  0.1324  0.3266 -0.1349
 9181TIP3    H127496   6.101   6.826   0.397 -0.1707  0.4266  0.4842
 9181TIP3    H227497   6.034   6.804   0.263  0.7774 -0.3558  0.1295
 9182TIP3   OH227498   6.953   7.383   0.052  0.1077 -0.2394  0.0998
 9182TIP3    H127499   6.866   7.390   0.011 -0.7141 -1.9541  1.4598
 9182TIP3    H227500   6.959   7.459   0.109  0.0445  0.5859 -0.9834
 9183TIP3   OH227501   5.374   4.075   6.172  0.0471  0.9270 -0.0075
 9183TIP3    H127502   5.410   4.106   6.255  4.5731  0.0771 -1.5200
 9183TIP3    H227503   5.391   4.145   6.110 -1.9580  0.9406 -0.5740
 9184TIP3   OH227504   5.224   4.158   5.053  0.3494  0.0782  0.4175
 9184TIP3    H127505   5.246   4.206   5.133 -0.3216 -1.2134  1.3980
 9184TIP3    H227506   5.306   4.156   5.003  0.7767  0.8924  1.0680
 9185TIP3   OH227507   4.562   1.842   6.255 -0.2176 -0.0273 -0.1921
 9185TIP3    H127508   4.649   1.834   6.217 -0.1648  0.1516 -0.1078
 9185TIP3    H227509   4.503   1.817   6.184 -0.0825 -0.4912 -0.1385
 9186TIP3   OH227510   2.350   1.179   1.310 -0.2303 -0.0593  0.1625
 9186TIP3    H127511   2.294   1.103   1.302  0.6884 -0.6425 -0.9799
 9186TIP3    H227512   2.330   1.232   1.232  2.7248 -1.6253 -1.7950
 9187TIP3   OH227513   5.203   2.463   5.665  0.3087 -0.5643 -0.2488
 9187TIP3    H127514   5.277   2.442   5.722  1.1244  1.4618 -0.5192
 9187TIP3    H227515   5.214   2.556   5.644 -4.1807  0.7073  2.4419
 9188TIP3   OH227516   5.493   2.959   5.625  0.4970 -0.4696 -0.5468
 9188TIP3    H127517   5.402   2.988   5.627  0.9042  0.7886  0.8659
 9188TIP3    H227518   5.489   2.867   5.650 -0.3346 -0.2354  0.2238
 9189TIP3   OH227519   1.724   7.389   0.826 -0.1524  0.0462 -0.6124
 9189TIP3    H127520   1.670   7.350   0.756 -0.4877  0.9100 -0.8435
 9189TIP3    H227521   1.813   7.385   0.793 -0.0875 -1.2260 -0.3082
 9190TIP3   OH227522   6.139   2.442   5.797  0.1035 -0.1663  0.7707
 9190TIP3    H127523   6.222   2.400   5.819  0.3770  0.1078  0.2887
 9190TIP3    H227524   6.129   2.426   5.703  0.2078  0.8326  0.5850
 9191TIP3   OH227525   4.893   3.506   5.944 -0.2316 -0.0119  0.1739
 9191TIP3    H127526   4.932   3.428   5.983  0.3407  0.4990  0.6289
 9191TIP3    H227527   4.967   3.552   5.904 -0.4859  0.5733  0.3813
 9192TIP3   OH227528   5.611   3.295   4.989 -0.0071  0.2653 -0.0199
 9192TIP3    H127529   5.582   3.248   4.911 -1.0008 -0.9810  1.0906
 9192TIP3    H227530   5.539   3.288   5.050  0.9984  0.7380  1.2542
 9193TIP3   OH227531   6.437   2.272   6.355  0.0039  0.4006  0.1438
 9193TIP3    H127532   6.487   2.191   6.366  0.8773  0.9690  0.3639
 9193TIP3    H227533   6.432   2.284   6.260 -3.1156 -1.7418 -0.0614
 9194TIP3   OH227534   6.993   2.566   4.085 -0.0132  0.0030  0.4517
 9194TIP3    H127535   6.901   2.573   4.110 -0.6761 -0.3544 -1.7738
 9194TIP3    H227536   7.014   2.650   4.045 -1.1690 -1.8965 -4.5474
 9195TIP3   OH227537   1.378   0.008   1.492  0.4094  0.2519 -0.3322
 9195TIP3    H127538   1.426   0.066   1.552  0.3698 -0.4563  0.3961
 9195TIP3    H227539   1.435  -0.002   1.417  2.2862 -2.0860  1.3164
 9196TIP3   OH227540   2.079   6.535   0.685  0.0832  0.3783 -0.1770
 9196TIP3    H127541   2.163   6.562   0.722  1.3858 -2.3059 -1.0048
 9196TIP3    H227542   2.081   6.567   0.595  0.0470  0.6277 -0.0902
 9197TIP3   OH227543   5.595   3.854   5.475  0.7119  0.3291  0.5246
 9197TIP3    H127544   5.514   3.905   5.473 -0.2793 -1.2465 -2.1313
 9197TIP3    H227545   5.575   3.777   5.422  3.8128 -0.3398  0.2738
 9198TIP3   OH227546   6.919   0.995   4.037 -0.6963 -0.1807  0.2986
 9198TIP3    H127547   6.894   0.935   4.108 -0.3265 -0.6730  0.0125
 9198TIP3    H227548   6.835   1.031   4.007 -0.8217  0.4267  1.3254
 9199TIP3   OH227549   4.069   1.935   5.358  0.0427 -0.5052  0.9934
 9199TIP3    H127550   3.978   1.941   5.330  0.3909  0.4400  0.0329
 9199TIP3    H227551   4.066   1.880   5.437 -1.1460 -1.8269  0.0509
 9200TIP3   OH227552   3.642   1.714   5.275  0.3864  0.1355  0.5817
 9200TIP3    H127553   3.549   1.700   5.256  0.5967  1.3076 -1.4343
 9200TIP3    H227554   3.687   1.643   5.229  0.5876  0.2425  0.6115
 9201TIP3   OH227555   1.395   6.376   0.822 -1.1344 -0.0289  0.2853
 9201TIP3    H127556   1.411   6.296   0.772 -3.8333 -1.7570  2.0186
 9201TIP3    H227557   1.314   6.411   0.785 -2.1462 -0.3166  2.1632
 9202TIP3   OH227558   2.751   0.016   5.305  0.3627 -0.3754  0.2253
 9202TIP3    H127559   2.693   0.056   5.369  0.7447 -1.3574  1.2109
 9202TIP3    H227560   2.704   0.021   5.223  0.2721  1.7796  0.3890
 9203TIP3   OH227561   4.289   3.420   5.424  0.2862 -0.0255  0.3246
 9203TIP3    H127562   4.290   3.510   5.390 -0.3203 -0.2529 -0.3099
 9203TIP3    H227563   4.255   3.428   5.513 -0.8549  0.2447 -0.1275
 9204TIP3   OH227564   5.273   3.136   6.101 -0.3669  0.3469 -0.0062
 9204TIP3    H127565   5.286   3.048   6.136  0.2001  0.1206 -0.7718
 9204TIP3    H227566   5.316   3.193   6.165 -1.4415  0.1376  0.9109
 9205TIP3   OH227567   4.955   2.029   5.629 -0.2985  0.3608  0.1612
 9205TIP3    H127568   4.910   2.078   5.697 -1.2591  0.2957 -0.4168
 9205TIP3    H227569   5.008   1.964   5.676 -0.8306  0.4231  0.8434
 9206TIP3   OH227570   6.858   2.264   4.915  0.0314 -0.5615  0.1414
 9206TIP3    H127571   6.897   2.301   4.995 -1.4254 -1.9222  1.5212
 9206TIP3    H227572   6.917   2.292   4.845  0.5614  1.9190  1.4797
 9207TIP3   OH227573   1.136   0.161   2.702 -0.0669 -0.1460 -0.3180
 9207TIP3    H127574   1.099   0.190   2.618 -1.1001  1.3629  0.6341
 9207TIP3    H227575   1.071   0.099   2.736 -1.1655  1.5293  0.7482
 9208TIP3   OH227576   6.088   4.696   4.015  0.1731 -0.0052 -0.3149
 9208TIP3    H127577   6.129   4.651   4.089  1.2466 -0.2980 -1.0792
 9208TIP3    H227578   6.154   4.760   3.987 -0.3657  0.3377 -0.8022
 9209TIP3   OH227579   7.903   7.122   0.733 -0.2599  0.2783 -0.4345
 9209TIP3    H127580   7.945   7.097   0.651  1.4462 -1.2827  0.8584
 9209TIP3    H227581   7.825   7.068   0.738  1.2296 -1.8566  0.3689
 9210TIP3   OH227582   1.861   5.695   0.355 -0.2421  0.1890  0.3455
 9210TIP3    H127583   1.835   5.745   0.278 -0.1149  1.0911  0.8846
 9210TIP3    H227584   1.837   5.604   0.334 -0.0446  0.4009 -0.8203
 9211TIP3   OH227585   6.384   1.695   6.198 -0.1435 -0.2906  0.2748
 9211TIP3    H127586   6.413   1.783   6.175  1.6616 -0.6630  1.0584
 9211TIP3    H227587   6.302   1.708   6.244  0.1986  0.9942  0.5342
 9212TIP3   OH227588   7.660   2.351   4.355  0.1373 -0.4871 -0.5697
 9212TIP3    H127589   7.719   2.316   4.289  0.2280  0.9820 -1.2807
 9212TIP3    H227590   7.685   2.442   4.364  0.2108 -0.7048  1.6028
 9213TIP3   OH227591   6.894   1.654   6.076 -0.2204 -0.4046  0.1799
 9213TIP3    H127592   6.886   1.661   5.981 -1.2583 -1.1388  0.1921
 9213TIP3    H227593   6.804   1.636   6.106  0.2629 -1.2165  1.1890
 9214TIP3   OH227594   4.233   0.212   1.137 -0.0004 -0.4559 -0.3607
 9214TIP3    H127595   4.205   0.184   1.050  0.9636 -0.2713 -0.7415
 9214TIP3    H227596   4.315   0.164   1.152  1.0050  1.1650 -0.4945
 9215TIP3   OH227597   5.619   5.845   3.706 -0.1522  0.1981 -0.3931
 9215TIP3    H127598   5.556   5.834   3.777  0.7697  1.2457  0.6034
 9215TIP3    H227599   5.590   5.924   3.660 -0.8050 -0.5343 -1.2457
 9216TIP3   OH227600   4.078   6.097   4.878  0.1206  0.1308 -0.4459
 9216TIP3    H127601   4.013   6.166   4.888  0.3476  0.4966 -1.4600
 9216TIP3    H227602   4.086   6.059   4.966 -0.8116  0.6586 -0.1255
 9217TIP3   OH227603   6.008   4.380   5.147  0.5764 -0.3250  0.4301
 9217TIP3    H127604   6.024   4.443   5.218  0.2763  0.3762 -0.1293
 9217TIP3    H227605   5.968   4.305   5.191  1.1359 -0.2219  1.1326
 9218TIP3   OH227606   7.904   6.061   0.122 -0.2724  0.4877 -0.3505
 9218TIP3    H127607   7.809   6.063   0.117 -0.1660  2.2417 -2.0097
 9218TIP3    H227608   7.929   6.151   0.142  0.9962 -0.1723  1.1189
 9219TIP3   OH227609   6.130   4.762   6.354  0.3373  0.2076 -0.0363
 9219TIP3    H127610   6.199   4.716   6.401  1.5061  1.3128 -0.6363
 9219TIP3    H227611   6.138   4.853   6.382 -1.8375  0.1020  1.0084
 9220TIP3   OH227612   1.750   7.024   0.788 -0.3741  0.4254  0.0391
 9220TIP3    H127613   1.801   6.986   0.860 -0.0109  1.8902  0.5664
 9220TIP3    H227614   1.672   7.059   0.830 -1.4574 -1.1110 -0.6647
 9221TIP3   OH227615   7.780   7.365   0.821 -0.2418 -0.0633  0.0348
 9221TIP3    H127616   7.833   7.287   0.805  0.3789  0.1742  0.8740
 9221TIP3    H227617   7.845   7.433   0.840 -0.9226 -0.3450  3.6315
 9222TIP3   OH227618   7.047   2.638   5.343  0.1490  0.2904 -0.0328
 9222TIP3    H127619   7.132   2.598   5.330  0.2479  0.8010 -0.9953
 9222TIP3    H227620   7.054   2.684   5.427  0.2114 -1.2194  0.7892
 9223TIP3   OH227621   0.133   7.083   0.437  0.6234 -0.1587  0.0432
 9223TIP3    H127622   0.160   7.042   0.355 -1.5761 -1.3778 -0.1023
 9223TIP3    H227623   0.131   7.177   0.418 -0.8716 -0.5051 -1.6113
 9224TIP3   OH227624   7.213   5.403   4.926  0.0220  0.5809  0.1471
 9224TIP3    H127625   7.161   5.469   4.972  2.4130  1.9974  0.9414
 9224TIP3    H227626   7.303   5.437   4.930  0.8444 -1.1946 -2.1927
 9225TIP3   OH227627   1.523   0.255   0.537  0.1113  0.1607  0.0096
 9225TIP3    H127628   1.566   0.172   0.559  0.2399  0.6316  1.6546
 9225TIP3    H227629   1.590   0.321   0.555 -0.1745  0.6649 -0.7700
 9226TIP3   OH227630   0.870  -0.005   0.679  0.3462 -0.3622  0.2685
 9226TIP3    H127631   0.886   0.063   0.745 -1.9190  0.6079 -0.1308
 9226TIP3    H227632   0.795  -0.054   0.712  0.5773 -1.2609 -0.5239
 9227TIP3   OH227633   4.287   5.684   6.072  0.3002 -0.4604  0.1772
 9227TIP3    H127634   4.341   5.624   6.021 -0.2883 -1.1783  0.3785
 9227TIP3    H227635   4.330   5.769   6.065  0.7731 -0.7744 -0.6670
 9228TIP3   OH227636   3.775   3.122   4.020 -0.1368 -0.2787 -0.1064
 9228TIP3    H127637   3.814   3.109   4.106 -1.0586 -0.3287  0.3182
 9228TIP3    H227638   3.813   3.054   3.965  0.9023  0.1227  0.1064
 9229TIP3   OH227639   5.593   0.201   1.025  0.1099  0.2598 -0.0940
 9229TIP3    H127640   5.500   0.221   1.021 -0.1013 -0.6728  0.0232
 9229TIP3    H227641   5.635   0.272   0.976 -0.6132  0.9780  0.3219
 9230TIP3   OH227642   4.986   3.649   4.622  0.3843 -0.2304 -0.3579
 9230TIP3    H127643   5.081   3.644   4.633  0.2233  0.6585  1.8854
 9230TIP3    H227644   4.968   3.743   4.615 -0.6246 -0.0819  3.1028
 9231TIP3   OH227645   3.180   1.558   1.896 -0.4800 -0.2072  0.0801
 9231TIP3    H127646   3.237   1.482   1.907 -1.9904 -1.0507  2.6068
 9231TIP3    H227647   3.092   1.521   1.887 -1.0686  1.1890  0.0031
 9232TIP3   OH227648   2.023   0.926   0.164  0.0400 -0.1230 -0.1258
 9232TIP3    H127649   2.082   0.865   0.210  0.5202 -0.3519 -1.0418
 9232TIP3    H227650   2.051   1.013   0.193  1.4503 -0.1813 -1.2733
 9233TIP3   OH227651   0.926   5.967   0.127  0.4963 -0.0252  0.2283
 9233TIP3    H127652   0.928   5.946   0.221  1.3980 -0.6658  0.0819
 9233TIP3    H227653   1.012   5.937   0.095  0.9775  1.9659 -0.4181
 9234TIP3   OH227654   2.946   1.258   0.402  0.1917 -0.1258 -0.2614
 9234TIP3    H127655   2.949   1.182   0.460  0.6456  0.0405 -0.0622
 9234TIP3    H227656   2.991   1.230   0.322  0.1103 -0.1586 -0.2955
 9235TIP3   OH227657   6.652   6.842   0.293  0.2140  0.3417 -0.6687
 9235TIP3    H127658   6.594   6.904   0.338  0.4625  1.1393 -1.4381
 9235TIP3    H227659   6.716   6.817   0.360 -0.3011  0.3714 -0.1524
 9236TIP3   OH227660   3.463   0.966   2.746  0.6605  0.1515 -0.2087
 9236TIP3    H127661   3.538   0.916   2.779  0.6708  0.3003  0.0024
 9236TIP3    H227662   3.496   1.009   2.667  1.3376  1.6016  0.8330
 9237TIP3   OH227663   4.467   1.522   6.110  0.0327 -0.1621  0.4104
 9237TIP3    H127664   4.375   1.503   6.097  0.3248 -3.0005  2.1067
 9237TIP3    H227665   4.480   1.511   6.205  1.9699  0.8470  0.2857
 9238TIP3   OH227666   2.958   3.922   5.227 -0.8078 -0.3796  0.6548
 9238TIP3    H127667   2.923   3.870   5.299 -1.2094 -2.1368 -0.7477
 9238TIP3    H227668   2.957   3.862   5.152  1.1664  0.8879 -0.4212
 9239TIP3   OH227669   5.809   1.654   5.321 -0.2988  0.2364 -0.3243
 9239TIP3    H127670   5.853   1.593   5.380 -0.8681 -0.4836 -0.6435
 9239TIP3    H227671   5.877   1.684   5.261 -0.3926 -1.4216 -1.2744
 9240TIP3   OH227672   1.067   5.248   0.491 -0.0789 -0.4384 -0.0188
 9240TIP3    H127673   1.068   5.344   0.493  3.6447 -0.3952  0.6583
 9240TIP3    H227674   1.045   5.223   0.581  2.3145 -0.1191  0.7056
 9241TIP3   OH227675   4.777   4.176   5.575 -0.3129 -0.4693  0.4250
 9241TIP3    H127676   4.855   4.150   5.624 -1.0963 -0.5783  1.6429
 9241TIP3    H227677   4.811   4.216   5.495  0.9716 -1.5145  0.4328
 9242TIP3   OH227678   5.989   7.233   0.516 -0.4165 -0.2924 -0.0059
 9242TIP3    H127679   6.031   7.193   0.592 -0.1630 -0.5243 -0.2690
 9242TIP3    H227680   6.041   7.204   0.441  0.2751  1.1966 -0.1198
 9243TIP3   OH227681   7.376   2.091   4.685 -0.0955  0.3118 -0.1511
 9243TIP3    H127682   7.406   2.001   4.695  1.3839  0.7858 -0.1656
 9243TIP3    H227683   7.409   2.118   4.599 -1.0773  0.6560 -0.4184
 9244TIP3   OH227684   6.033   2.918   5.288 -0.2826 -0.3776  0.9714
 9244TIP3    H127685   6.094   2.958   5.225 -3.0137  2.1087 -0.1921
 9244TIP3    H227686   6.031   2.826   5.263 -3.3298  0.9600 -4.4934
 9245TIP3   OH227687   6.026   3.251   4.956  0.0852  0.1572 -0.2334
 9245TIP3    H127688   6.067   3.317   4.901 -2.0365  0.5536 -1.3965
 9245TIP3    H227689   5.985   3.301   5.027 -1.2886  0.0849 -0.9638
 9246TIP3   OH227690   7.859   5.882   1.336 -0.2134  0.2963 -0.1193
 9246TIP3    H127691   7.832   5.937   1.410  0.1896 -1.0476  1.0670
 9246TIP3    H227692   7.954   5.895   1.330 -0.2608  0.4838 -0.4727
 9247TIP3   OH227693   4.248   0.069   2.794  0.2953 -0.5501  0.1976
 9247TIP3    H127694   4.332   0.025   2.778  1.2488  1.1801  0.3740
 9247TIP3    H227695   4.226   0.046   2.884 -1.5141 -4.4013 -1.1244
 9248TIP3   OH227696   5.374   3.050   5.381  0.2901 -0.7347 -0.0478
 9248TIP3    H127697   5.301   3.068   5.441 -0.2439 -1.1370 -0.5664
 9248TIP3    H227698   5.422   2.979   5.423  0.5153 -0.3111  0.4105
 9249TIP3   OH227699   4.595   3.176   5.803  0.3711 -0.4482 -0.0402
 9249TIP3    H127700   4.562   3.140   5.721  1.4102 -2.0600  0.2231
 9249TIP3    H227701   4.524   3.161   5.866 -1.7544  3.6808 -1.2764
 9250TIP3   OH227702   7.666   7.433   0.367 -0.5233  0.7638  0.6826
 9250TIP3    H127703   7.732   7.458   0.302 -0.4780  0.2351  0.5287
 9250TIP3    H227704   7.714   7.383   0.433 -0.6607  0.8911  0.8814
 9251TIP3   OH227705   2.733   1.432   0.408 -0.3077  0.4166 -0.3505
 9251TIP3    H127706   2.732   1.411   0.314 -0.1974  1.3518 -0.5623
 9251TIP3    H227707   2.810   1.386   0.441 -0.9467 -0.7978 -0.5070
 9252TIP3   OH227708   5.174   0.289   6.202 -0.3568  0.2768  0.2797
 9252TIP3    H127709   5.082   0.311   6.187 -0.6296 -0.3177  1.1083
 9252TIP3    H227710   5.217   0.374   6.216 -1.1083  0.4093  1.7719
 9253TIP3   OH227711   5.088   6.766   0.062  0.1189 -0.1893 -0.0506
 9253TIP3    H127712   5.109   6.812  -0.020 -0.5880 -2.1875 -1.3967
 9253TIP3    H227713   4.996   6.740   0.052  0.0714 -0.5942  1.3239
 9254TIP3   OH227714   3.797   5.349   5.495 -0.0181 -0.1840 -0.0006
 9254TIP3    H127715   3.703   5.336   5.507  0.0700 -0.6021  0.2068
 9254TIP3    H227716   3.807   5.361   5.400 -0.1807 -0.9051 -0.1127
 9255TIP3   OH227717   2.101   0.390   0.414  0.0110  0.2967  0.0268
 9255TIP3    H127718   2.082   0.343   0.495  0.1766  1.1771  0.5782
 9255TIP3    H227719   2.196   0.385   0.405  0.1013  1.1032  0.4497
 9256TIP3   OH227720   6.104   6.018   6.115 -0.6599 -0.0408  0.0437
 9256TIP3    H127721   6.130   6.099   6.073 -1.9354 -0.1669 -1.0078
 9256TIP3    H227722   6.185   5.968   6.123 -0.3196  0.2031 -1.7635
 9257TIP3   OH227723   3.499   1.265   0.143 -0.1749 -0.1166  0.6353
 9257TIP3    H127724   3.526   1.356   0.130 -0.9160  0.3194  1.9784
 9257TIP3    H227725   3.522   1.246   0.234 -1.3564 -0.7895  0.8123
 9258TIP3   OH227726   4.025   4.404   4.818  0.3582  0.5729 -0.4603
 9258TIP3    H127727   4.040   4.346   4.893 -0.7219  1.0505  0.1412
 9258TIP3    H227728   4.035   4.347   4.742  0.5534 -0.1315  0.0868
 9259TIP3   OH227729   3.523   3.147   5.391  0.4639  0.6188  0.4379
 9259TIP3    H127730   3.579   3.214   5.353 -0.3563  0.7379 -0.5734
 9259TIP3    H227731   3.549   3.066   5.347 -1.7119  1.0371 -1.7861
 9260TIP3   OH227732   3.579   2.534   5.107 -0.5242 -0.4387  0.0599
 9260TIP3    H127733   3.659   2.576   5.139 -0.3475 -0.3004 -0.5554
 9260TIP3    H227734   3.599   2.440   5.109  0.1132 -0.3444 -1.2883
 9261TIP3   OH227735   0.880   1.251   0.965  0.2890  0.3046  0.7805
 9261TIP3    H127736   0.839   1.188   1.026 -1.0330  0.1003 -0.3002
 9261TIP3    H227737   0.969   1.263   1.000 -0.0366 -0.7638  2.0420
 9262TIP3   OH227738   0.426   2.047   4.921  0.5223  0.0555  0.6069
 9262TIP3    H127739   0.402   1.959   4.892  1.7505  0.0277 -0.3440
 9262TIP3    H227740   0.370   2.063   4.997 -0.9802 -0.8396 -0.2842
 9263TIP3   OH227741   2.476   7.090   1.414  0.0855  0.3508 -0.3044
 9263TIP3    H127742   2.427   7.093   1.496 -1.6339 -0.6758 -1.2418
 9263TIP3    H227743   2.413   7.120   1.348 -0.0716 -3.0828 -1.8581
 9264TIP3   OH227744   4.200   2.437   5.840 -0.0380 -0.2953 -0.3687
 9264TIP3    H127745   4.212   2.345   5.862 -0.9411 -0.4160 -0.3547
 9264TIP3    H227746   4.111   2.457   5.869 -0.1561  0.3517 -1.1611
 9265TIP3   OH227747   0.140   6.634   0.493  0.0409  0.2240 -0.0756
 9265TIP3    H127748   0.222   6.635   0.444 -0.0753 -1.6039 -0.3183
 9265TIP3    H227749   0.076   6.673   0.433  0.0212 -1.4638 -1.1798
 9266TIP3   OH227750   7.795   1.829   6.364  0.1396 -0.2128  0.1527
 9266TIP3    H127751   7.809   1.818   6.270  2.0080  0.3186  0.3383
 9266TIP3    H227752   7.700   1.832   6.374 -0.0744  0.3350 -1.7923
 9267TIP3   OH227753   6.846   2.660   4.968 -0.6853 -0.1728 -0.2725
 9267TIP3    H127754   6.760   2.700   4.981 -0.8941 -0.2342 -1.4250
 9267TIP3    H227755   6.852   2.592   5.035 -1.5567 -0.2071 -0.2305
 9268TIP3   OH227756   6.575   4.690   6.016  0.0244  0.2662  0.4733
 9268TIP3    H127757   6.629   4.696   6.095  0.0314  1.9071  0.3663
 9268TIP3    H227758   6.487   4.711   6.046 -0.4714 -1.7173  0.5141
 9269TIP3   OH227759   4.260   3.445   4.947  0.9265  0.5633  0.0859
 9269TIP3    H127760   4.303   3.381   4.892  1.3083  1.7286 -0.9920
 9269TIP3    H227761   4.229   3.512   4.886 -0.9443  0.5722  1.0075
 9270TIP3   OH227762   0.580   5.923   0.621  0.3136  0.1084 -0.1247
 9270TIP3    H127763   0.493   5.938   0.659  0.2164 -0.9955  0.1044
 9270TIP3    H227764   0.587   5.828   0.615  1.0019  0.2248 -1.3309
 9271TIP3   OH227765   1.026   0.001   0.239 -0.4702  0.3425  0.3783
 9271TIP3    H127766   1.020   0.045   0.154  0.0162  0.7225  0.5344
 9271TIP3    H227767   1.117  -0.030   0.243 -1.2157 -2.0968 -0.4074
 9272TIP3   OH227768   3.907   3.066   5.873  0.4676  0.0473  0.1422
 9272TIP3    H127769   3.947   3.014   5.942 -0.2064 -1.6381 -0.7140
 9272TIP3    H227770   3.813   3.058   5.889  0.1804 -2.5213 -2.4627
 9273TIP3   OH227771   1.726   6.964   3.298  0.1773  0.0509 -0.2258
 9273TIP3    H127772   1.796   7.023   3.270 -1.1687  0.6172 -2.5770
 9273TIP3    H227773   1.762   6.876   3.285  1.3306  0.3191  0.9996
 9274TIP3   OH227774   0.017   6.174   1.139 -0.4601 -0.2171 -0.9105
 9274TIP3    H127775   0.008   6.237   1.067  1.9037  0.0166 -1.0407
 9274TIP3    H227776   0.107   6.142   1.132 -0.8176 -1.6662  0.7564
 9275TIP3   OH227777   5.826   3.662   5.991  0.1710 -0.0950  0.0456
 9275TIP3    H127778   5.765   3.665   5.917  0.6735 -1.0417 -0.4047
 9275TIP3    H227779   5.773   3.690   6.066 -0.3294  0.8909 -0.6686
 9276TIP3   OH227780   5.572   5.435   0.222  0.2338 -0.4882  0.2655
 9276TIP3    H127781   5.503   5.400   0.166  0.0727  0.0081  0.1486
 9276TIP3    H227782   5.531   5.444   0.308 -0.1659  0.7953 -0.0469
 9277TIP3   OH227783   3.586   5.394   5.784 -0.4246 -0.0621  0.1762
 9277TIP3    H127784   3.510   5.446   5.754 -0.8662 -0.2215  1.0011
 9277TIP3    H227785   3.598   5.328   5.716 -1.2822 -0.2874  0.2399
 9278TIP3   OH227786   6.702   6.950   0.048 -0.6628 -0.5533  0.0455
 9278TIP3    H127787   6.700   7.044   0.033  4.0077 -0.2150  0.8968
 9278TIP3    H227788   6.658   6.938   0.132  1.5519  1.3088  1.5201
 9279TIP3   OH227789   4.530   5.505   6.316  0.3514 -0.5939  0.1277
 9279TIP3    H127790   4.532   5.420   6.273 -0.1333 -0.1044 -0.8715
 9279TIP3    H227791   4.441   5.538   6.301  1.6241  1.7230 -2.7398
 9280TIP3   OH227792   7.482   5.177   0.990 -0.1666  0.1446  0.3503
 9280TIP3    H127793   7.491   5.128   0.908  1.3076 -0.0997  0.6383
 9280TIP3    H227794   7.395   5.154   1.023 -0.1920 -0.8873 -0.4059
 9281TIP3   OH227795   7.271   6.596   2.565  0.4410  0.0750  0.9046
 9281TIP3    H127796   7.195   6.633   2.611  0.5138  0.2735  0.8664
 9281TIP3    H227797   7.340   6.661   2.577 -0.1638  1.1835 -1.3915
 9282TIP3   OH227798   5.705   5.616   5.307  0.0280 -0.2404 -1.0880
 9282TIP3    H127799   5.636   5.670   5.344  0.0747 -0.8775 -0.0456
 9282TIP3    H227800   5.779   5.628   5.366 -0.0290 -1.5856 -0.7175
 9283TIP3   OH227801   3.619   3.342   6.336  0.2165  0.0476 -0.3669
 9283TIP3    H127802   3.523   3.339   6.333  0.2423 -0.2792 -1.1231
 9283TIP3    H227803   3.646   3.267   6.282  0.8960 -0.0485  0.1012
 9284TIP3   OH227804   3.978   3.402   6.314 -0.0157 -0.2879  0.2900
 9284TIP3    H127805   4.059   3.411   6.265  0.2529  1.9609  1.0905
 9284TIP3    H227806   3.911   3.439   6.256 -0.2305 -0.7830  0.2231
 9285TIP3   OH227807   5.648   5.173   3.995  0.4161 -0.6464  0.2707
 9285TIP3    H127808   5.567   5.216   4.023  0.0957 -1.9232  1.3792
 9285TIP3    H227809   5.654   5.096   4.052  1.2964 -1.7152 -1.2498
 9286TIP3   OH227810   5.543   4.670   5.225 -0.2848  0.3588  0.1255
 9286TIP3    H127811   5.494   4.588   5.230 -1.5211  0.9973 -1.1678
 9286TIP3    H227812   5.476   4.737   5.209  1.2674  0.9021 -4.7676
 9287TIP3   OH227813   1.732   6.927   0.242 -0.4141  0.9905 -0.1706
 9287TIP3    H127814   1.773   7.004   0.202  1.2170  0.0748 -0.2820
 9287TIP3    H227815   1.750   6.937   0.336 -0.8295  1.1120 -0.1033
 9288TIP3   OH227816   2.941   0.600   0.909  0.1583 -0.2006  0.5431
 9288TIP3    H127817   2.995   0.606   0.988  0.5826 -0.0987  0.2472
 9288TIP3    H227818   2.907   0.688   0.896  1.2173  0.1052 -0.1774
 9289TIP3   OH227819   1.259   5.248   0.298  0.4518 -1.3265  0.0064
 9289TIP3    H127820   1.186   5.254   0.359  0.4150 -1.1049 -0.0567
 9289TIP3    H227821   1.311   5.174   0.329  0.6513 -0.9602  0.5421
 9290TIP3   OH227822   0.416   6.614   0.465  0.4227 -0.0085  0.5923
 9290TIP3    H127823   0.494   6.666   0.447  0.6505 -0.3219  0.6861
 9290TIP3    H227824   0.420   6.541   0.403 -0.3134  0.5196 -0.0934
 9291TIP3   OH227825   2.914   1.037   0.578  0.2632 -0.0769  0.0213
 9291TIP3    H127826   2.883   0.961   0.628 -1.4682 -0.8487 -2.1796
 9291TIP3    H227827   2.874   1.112   0.623 -0.8629 -0.7203  0.1259
 9292TIP3   OH227828   7.162   6.099   0.392  0.5557 -0.4668  0.0234
 9292TIP3    H127829   7.121   6.185   0.406 -0.3204 -1.0504  1.1422
 9292TIP3    H227830   7.175   6.093   0.297  0.1278  0.6745 -0.1133
 9293TIP3   OH227831   6.817   1.999   4.951  0.0470  0.1394  0.0804
 9293TIP3    H127832   6.775   1.981   4.867 -1.3118 -1.7184  1.1167
 9293TIP3    H227833   6.839   2.092   4.948  0.0997  0.0846 -2.3553
 9294TIP3   OH227834   5.752   3.423   2.313 -0.6856 -0.7043 -0.3166
 9294TIP3    H127835   5.767   3.518   2.318 -1.0325 -0.7196  1.4874
 9294TIP3    H227836   5.823   3.385   2.366 -1.5118 -1.3522  0.3266
 9295TIP3   OH227837   5.569   3.134   4.779 -0.4046 -0.4093 -0.4609
 9295TIP3    H127838   5.520   3.066   4.825 -1.2241 -1.0600 -2.2567
 9295TIP3    H227839   5.597   3.092   4.698  1.1816  0.6653 -0.4885
 9296TIP3   OH227840   7.131   6.089   0.746  0.4914  0.0421 -0.0916
 9296TIP3    H127841   7.162   6.173   0.713  0.3086 -0.1906 -0.8508
 9296TIP3    H227842   7.198   6.026   0.720 -0.2217 -0.3345 -1.0621
 9297TIP3   OH227843   6.853   2.473   5.229  0.7598 -0.3045 -0.4387
 9297TIP3    H127844   6.904   2.549   5.258  0.9195  0.1866 -1.9631
 9297TIP3    H227845   6.845   2.419   5.307 -0.1425  1.7112  0.9195
 9298TIP3   OH227846   1.135   7.315   2.310  0.0724  0.4380  0.7625
 9298TIP3    H127847   1.133   7.257   2.386  0.3793 -1.2569 -0.4957
 9298TIP3    H227848   1.193   7.271   2.248 -0.4037  1.6556 -0.5652
 9299TIP3   OH227849   7.249   1.970   6.440  0.0595  0.3618 -0.3409
 9299TIP3    H127850   7.176   1.908   6.443 -0.2343  0.7788  1.8436
 9299TIP3    H227851   7.207   2.056   6.440  0.5147  0.5831 -0.6672
 9300TIP3   OH227852   7.720   2.552   2.965 -0.4912 -0.4102  0.8021
 9300TIP3    H127853   7.629   2.581   2.977 -0.9259 -1.8658  1.1107
 9300TIP3    H227854   7.767   2.631   2.939 -1.8173  0.3938  0.8021
 9301TIP3   OH227855   1.793   6.819   1.846 -0.3278 -0.3232 -0.0470
 9301TIP3    H127856   1.836   6.778   1.771 -0.5950  1.2782 -1.1032
 9301TIP3    H227857   1.834   6.778   1.922  1.7005 -0.2138 -1.0389
 9302TIP3   OH227858   3.529   0.293   0.505 -0.2227 -0.0080  0.3155
 9302TIP3    H127859   3.530   0.387   0.524  0.4591  0.6684 -2.6761
 9302TIP3    H227860   3.611   0.261   0.541  0.2268  0.8517  0.0853
 9303TIP3   OH227861   0.167   5.095   1.818 -0.5288  0.1347 -0.0070
 9303TIP3    H127862   0.258   5.116   1.798  0.0761 -2.0329  0.3424
 9303TIP3    H227863   0.146   5.150   1.893  0.6175  0.3345  0.1792
 9304TIP3   OH227864   5.148   4.136   5.903  0.6998  0.7002 -0.0402
 9304TIP3    H127865   5.220   4.199   5.905 -0.7206  2.3002  2.3315
 9304TIP3    H227866   5.105   4.145   5.987 -1.2355 -1.5152 -0.7206
 9305TIP3   OH227867   1.116   4.128   0.368 -0.2345  0.0275  0.2988
 9305TIP3    H127868   1.160   4.044   0.359 -0.2468  0.2090 -1.9751
 9305TIP3    H227869   1.183   4.187   0.403  0.9129 -0.0844 -1.5969
 9306TIP3   OH227870   2.302   3.302   4.239  0.1115 -0.2029 -0.1228
 9306TIP3    H127871   2.344   3.381   4.206 -2.7588  0.6199 -2.0576
 9306TIP3    H227872   2.356   3.230   4.206  1.8222  0.8957  0.2531
 9307TIP3   OH227873   7.058   7.420   0.418  0.5371 -0.0155  0.1120
 9307TIP3    H127874   7.137   7.456   0.377 -0.4431  1.0667 -0.8524
 9307TIP3    H227875   7.033   7.346   0.362 -0.0172  0.6113 -0.4757
 9308TIP3   OH227876   5.257   4.580   5.755  0.2836  0.5100 -0.1571
 9308TIP3    H127877   5.265   4.577   5.660  1.0277  0.8486 -0.1076
 9308TIP3    H227878   5.163   4.591   5.771  0.2038  0.8836 -0.8641
 9309TIP3   OH227879   7.655   1.418   5.453 -0.1728  0.0142  0.1489
 9309TIP3    H127880   7.704   1.382   5.378 -0.5889 -0.0900 -0.0713
 9309TIP3    H227881   7.643   1.510   5.431  0.5674  0.2069  0.5424
 9310TIP3   OH227882   7.695   6.251   0.093  0.4214 -0.1952 -0.3313
 9310TIP3    H127883   7.646   6.279   0.171  1.7837  1.0114  0.1157
 9310TIP3    H227884   7.628   6.214   0.036 -0.6828 -0.6187  1.1888
 9311TIP3   OH227885   2.018   2.283   0.657 -0.4609  0.2005  0.0637
 9311TIP3    H127886   2.027   2.336   0.736  1.1165 -0.1936  0.1576
 9311TIP3    H227887   1.989   2.344   0.590 -0.1238  0.8780  0.5307
 9312TIP3   OH227888   7.383   5.670   0.540  0.1846  0.5233 -0.4569
 9312TIP3    H127889   7.331   5.595   0.569  1.0343  0.3921  0.7660
 9312TIP3    H227890   7.388   5.660   0.445  0.0565 -0.8162 -0.3365
 9313TIP3   OH227891   0.338   5.793   1.027  0.3667 -0.0545 -0.3687
 9313TIP3    H127892   0.343   5.736   0.950  1.0462 -0.4361 -0.0464
 9313TIP3    H227893   0.395   5.751   1.091 -1.4945 -0.6583  0.9221
 9314TIP3   OH227894   4.679   2.824   5.392  0.4084 -0.1940 -0.4024
 9314TIP3    H127895   4.767   2.806   5.425  0.5462  1.1207 -0.0250
 9314TIP3    H227896   4.621   2.792   5.460  0.6041 -0.5149 -0.3843
 9315TIP3   OH227897   4.380   1.290   0.488  0.0151  0.0453  0.5092
 9315TIP3    H127898   4.352   1.218   0.544  0.1522  0.3098  0.9182
 9315TIP3    H227899   4.299   1.338   0.468 -0.6024 -2.1139 -2.4757
 9316TIP3   OH227900   2.195   1.057   1.615 -1.2080  0.3751  0.5328
 9316TIP3    H127901   2.221   0.999   1.687  0.0704 -0.0360 -0.2435
 9316TIP3    H227902   2.137   1.122   1.656 -1.6458 -0.7099  1.6478
 9317TIP3   OH227903   2.441   0.273   0.242 -0.0944 -0.0274  0.1800
 9317TIP3    H127904   2.533   0.248   0.244 -0.3377 -1.0362 -0.9875
 9317TIP3    H227905   2.406   0.231   0.164 -2.0773 -1.5190  1.8103
 9318TIP3   OH227906   4.963   2.884   5.555 -0.9996 -0.2328  0.1390
 9318TIP3    H127907   4.935   2.947   5.489 -1.5986 -2.9886 -2.3475
 9318TIP3    H227908   4.910   2.905   5.632 -2.8066  0.9042 -1.3758
 9319TIP3   OH227909   5.694   3.310   5.905 -0.2974  0.5059 -0.1636
 9319TIP3    H127910   5.720   3.283   5.817  0.1555  0.9579 -0.1734
 9319TIP3    H227911   5.751   3.259   5.963  0.5827  1.4293 -0.1824
 9320TIP3   OH227912   3.129   0.320   1.856 -0.6081 -0.5992 -0.5916
 9320TIP3    H127913   3.057   0.384   1.850  0.6988  1.4751  3.5324
 9320TIP3    H227914   3.199   0.359   1.805 -0.0718  1.0254  1.2959
 9321TIP3   OH227915   0.718   1.565   0.024 -0.1548  0.0684  0.1972
 9321TIP3    H127916   0.765   1.640   0.059  0.3984  0.0304 -0.4489
 9321TIP3    H227917   0.709   1.584  -0.070  0.4479 -0.9015 -0.0679
 9322TIP3   OH227918   5.592   4.856   5.427  0.1778  0.3309  1.1138
 9322TIP3    H127919   5.682   4.864   5.460  0.1859 -0.6161  1.3259
 9322TIP3    H227920   5.592   4.775   5.377  0.0540  1.5634 -0.9294
 9323TIP3   OH227921   4.867   3.681   4.277 -0.1487  0.2122 -0.2869
 9323TIP3    H127922   4.801   3.618   4.249 -0.7134  0.6508  0.0445
 9323TIP3    H227923   4.871   3.745   4.206  1.0603 -0.6577 -1.0344
 9324TIP3   OH227924   4.163   0.147   0.638  0.5070  0.2223 -0.0087
 9324TIP3    H127925   4.168   0.168   0.731 -1.0875  0.3634  0.0646
 9324TIP3    H227926   4.169   0.051   0.635 -0.9322  0.1054  0.3756
 9325TIP3   OH227927   5.092   6.206   6.173  0.1533  0.4048 -0.4050
 9325TIP3    H127928   5.133   6.206   6.087  0.7081 -0.1341 -0.1427
 9325TIP3    H227929   5.121   6.124   6.214  0.0413  0.7455  0.3673
 9326TIP3   OH227930   4.497   3.219   5.142 -0.6244 -0.1522  0.3256
 9326TIP3    H127931   4.561   3.148   5.151 -0.2718  0.2614  1.1408
 9326TIP3    H227932   4.433   3.185   5.080 -1.2685 -1.7633  1.8325
 9327TIP3   OH227933   0.438   3.667   1.024  0.2415 -0.3518 -0.3025
 9327TIP3    H127934   0.528   3.692   1.044  0.5710 -1.1951 -0.6786
 9327TIP3    H227935   0.439   3.647   0.930 -0.0536 -1.5080 -0.0741
 9328TIP3   OH227936   1.877   6.683   2.727 -0.0409  0.1578 -0.2254
 9328TIP3    H127937   1.921   6.616   2.780 -0.3468 -0.0565 -0.2374
 9328TIP3    H227938   1.795   6.641   2.699 -0.3511  0.6238 -0.0238
 9329TIP3   OH227939   5.709   2.648   5.358  0.0367  0.1337 -0.2519
 9329TIP3    H127940   5.647   2.619   5.425  0.3710 -0.9804 -0.4172
 9329TIP3    H227941   5.710   2.743   5.367  0.1261  0.0021  1.3822
 9330TIP3   OH227942   7.678   5.384   0.632  0.4648 -0.6093 -0.2054
 9330TIP3    H127943   7.719   5.304   0.665 -0.8639 -1.1759  0.0786
 9330TIP3    H227944   7.610   5.404   0.695  1.1911  1.1090  0.0562
 9331TIP3   OH227945   5.622   1.963   5.089 -0.2174  0.7271  0.1176
 9331TIP3    H127946   5.717   1.970   5.088 -0.2277  0.9427  0.8755
 9331TIP3    H227947   5.592   2.039   5.140 -0.8444  1.2607 -1.0176
 9332TIP3   OH227948   0.582   0.260   6.338  0.1877 -0.1544  0.3514
 9332TIP3    H127949   0.660   0.284   6.287  0.4334 -0.0257  0.7919
 9332TIP3    H227950   0.510   0.273   6.277  0.4240  0.6172  0.2315
 9333TIP3   OH227951   7.017   4.278   4.475 -0.3787  0.1515  0.6281
 9333TIP3    H127952   6.957   4.205   4.491 -1.8403  0.7996 -1.6231
 9333TIP3    H227953   7.032   4.275   4.381  0.0470  2.3743  0.6183
 9334TIP3   OH227954   4.143   4.569   5.868  0.2977 -0.1556 -0.3098
 9334TIP3    H127955   4.186   4.644   5.827 -0.3243 -0.3921 -1.3978
 9334TIP3    H227956   4.137   4.503   5.799  0.3732 -1.0255  0.4939
 9335TIP3   OH227957   1.679   2.375   5.213 -0.2960  0.2618 -0.3999
 9335TIP3    H127958   1.688   2.469   5.198  2.7152  0.2758  1.1603
 9335TIP3    H227959   1.634   2.368   5.297 -0.1597  0.2883 -0.3254
 9336TIP3   OH227960   7.548   2.757   6.278  0.0487  0.6589  0.3453
 9336TIP3    H127961   7.528   2.802   6.360  0.5796  1.0593  0.2607
 9336TIP3    H227962   7.585   2.673   6.306  1.2167  1.2210  0.5449
 9337TIP3   OH227963   1.042   1.035   0.079  0.2162  0.0637 -0.4277
 9337TIP3    H127964   1.019   0.943   0.070 -2.8739  0.6004  1.3057
 9337TIP3    H227965   1.060   1.046   0.173 -2.4124  1.8344 -0.0833
 9338TIP3   OH227966   3.772   0.168   0.324 -0.3099  0.6162 -0.3105
 9338TIP3    H127967   3.689   0.159   0.278  0.9622 -1.7400 -2.2389
 9338TIP3    H227968   3.813   0.245   0.284 -0.7995  0.7453 -0.5693
 9339TIP3   OH227969   3.419   1.010   1.504  0.0417  0.2070 -0.8658
 9339TIP3    H127970   3.502   0.986   1.464 -0.9887 -1.0694 -2.3159
 9339TIP3    H227971   3.393   1.091   1.459  1.3142  1.6017  0.8282
 9340TIP3   OH227972   1.662   0.569   1.514  0.2542  0.3672 -0.1669
 9340TIP3    H127973   1.726   0.533   1.575 -0.0803  0.4503  0.2362
 9340TIP3    H227974   1.596   0.610   1.570  0.2027  0.8785 -0.5991
 9341TIP3   OH227975   7.026   1.710   4.078  0.1365 -0.2841  0.2049
 9341TIP3    H127976   7.050   1.754   4.160 -1.5047  3.6284 -1.2935
 9341TIP3    H227977   7.085   1.746   4.013  0.9818 -2.8744 -0.4988
 9342TIP3   OH227978   1.511   1.345   0.286  0.1861  0.3773  0.2038
 9342TIP3    H127979   1.547   1.425   0.248 -0.0207 -0.4247 -1.7406
 9342TIP3    H227980   1.580   1.314   0.345  1.1921  0.7999 -0.7244
 9343TIP3   OH227981   1.961   6.698   1.661 -0.2520  0.2206 -0.0397
 9343TIP3    H127982   1.907   6.634   1.614  0.8846  0.0959 -1.2205
 9343TIP3    H227983   2.031   6.646   1.700  0.6482  0.7329 -0.9609
 9344TIP3   OH227984   4.253   7.436   4.634  0.6000 -0.1388 -0.0396
 9344TIP3    H127985   4.319   7.399   4.692 -0.1757 -1.6715 -0.1210
 9344TIP3    H227986   4.204   7.361   4.602  0.2558  0.7922 -1.7535
 9345TIP3   OH227987   5.825   4.875   5.576  0.0977 -0.6602 -0.1334
 9345TIP3    H127988   5.911   4.876   5.618  0.4813  1.1374 -0.9217
 9345TIP3    H227989   5.781   4.798   5.613  0.8391  0.2181  2.6721
 9346TIP3   OH227990   7.156   2.857   6.326  0.3391  0.1196 -0.3400
 9346TIP3    H127991   7.144   2.941   6.370 -2.7430 -0.2840 -0.2996
 9346TIP3    H227992   7.100   2.863   6.248 -1.2856 -2.4756  0.5478
 9347TIP3   OH227993   6.002   4.120   5.760 -0.1157  0.2018 -0.4709
 9347TIP3    H127994   6.066   4.068   5.711  0.4637  2.4848 -2.1893
 9347TIP3    H227995   6.033   4.210   5.752 -1.0425  0.8573  2.5330
 9348TIP3   OH227996   0.490   4.024   6.391 -0.1812  0.1081  0.5398
 9348TIP3    H127997   0.420   4.090   6.395 -0.8080 -0.5830  0.9429
 9348TIP3    H227998   0.449   3.943   6.422  1.1201 -0.0335  1.9115
 9349TIP3   OH227999   7.105   3.612   4.039  0.5896 -0.0910 -0.0688
 9349TIP3    H128000   7.102   3.542   3.973  0.5344 -0.0457 -0.1143
 9349TIP3    H228001   7.144   3.570   4.116  1.7395  0.1590 -0.5018
 9350TIP3   OH228002   2.901   4.390   0.172  0.3284 -0.0086  0.3168
 9350TIP3    H128003   2.985   4.412   0.132  0.3313 -0.3933  0.1063
 9350TIP3    H228004   2.863   4.325   0.113  0.7442 -1.2799  1.4339
 9351TIP3   OH228005   5.122   1.881   4.776  0.3162 -0.5281 -0.0539
 9351TIP3    H128006   5.184   1.887   4.849  0.4803 -0.6290 -0.1834
 9351TIP3    H228007   5.138   1.960   4.724 -0.7095  0.2051  0.7267
 9352TIP3   OH228008   0.344   6.497   2.322  0.2939 -0.1418 -0.2260
 9352TIP3    H128009   0.436   6.518   2.310  0.2917  0.0984  0.1746
 9352TIP3    H228010   0.299   6.540   2.250  0.2757  1.3129  0.6394
 9353TIP3   OH228011   2.687   0.313   1.459 -0.1360  0.6635 -0.1182
 9353TIP3    H128012   2.701   0.220   1.480 -0.6209  0.7908  0.7984
 9353TIP3    H228013   2.766   0.356   1.491  0.4204  0.4725 -1.2209
 9354TIP3   OH228014   6.883   3.683   5.201 -0.5979  0.2573  0.1123
 9354TIP3    H128015   6.857   3.673   5.110  1.1325 -1.8715 -0.1777
 9354TIP3    H228016   6.811   3.731   5.242 -1.4950  1.0084 -2.3064
 9355TIP3   OH228017   7.771   1.904   6.061 -0.3737  0.6150 -0.1260
 9355TIP3    H128018   7.729   1.820   6.042  0.0360  0.2207  0.7030
 9355TIP3    H228019   7.857   1.898   6.019  0.0509  0.2205  0.7856
 9356TIP3   OH228020   2.472   6.026   0.712  0.1263  0.1210  0.2209
 9356TIP3    H128021   2.390   6.023   0.761 -0.3631 -0.8572 -0.6348
 9356TIP3    H228022   2.524   5.954   0.747  0.0799 -0.1022 -0.1674
 9357TIP3   OH228023   1.610   5.875   0.702  0.0138  0.1358  0.3618
 9357TIP3    H128024   1.578   5.791   0.737 -1.2615  0.3539 -0.2285
 9357TIP3    H228025   1.682   5.852   0.645  0.1100 -0.5041  0.7375
 9358TIP3   OH228026   5.157   3.866   4.679  0.0048 -0.5802  0.0529
 9358TIP3    H128027   5.170   3.811   4.602 -2.1260  1.6549 -2.0074
 9358TIP3    H228028   5.189   3.952   4.653  0.9743 -0.2202  2.3339
 9359TIP3   OH228029   2.277   7.200   0.318 -0.3333 -0.1629  0.0207
 9359TIP3    H128030   2.328   7.178   0.396 -1.9409 -0.3763  1.0308
 9359TIP3    H228031   2.271   7.296   0.320  0.4167 -0.1047 -0.3577
 9360TIP3   OH228032   3.686   0.190   1.167 -0.1286 -0.1392  0.8423
 9360TIP3    H128033   3.653   0.106   1.196  0.7856 -1.1705 -0.9647
 9360TIP3    H228034   3.751   0.215   1.232  1.4584 -2.1077  0.0644
 9361TIP3   OH228035   4.491   0.840   2.259 -0.4028 -0.4771 -0.7087
 9361TIP3    H128036   4.545   0.776   2.214 -0.3113  0.0060 -1.3081
 9361TIP3    H228037   4.436   0.789   2.318  1.1621 -0.9067  0.3981
 9362TIP3   OH228038   3.535   1.527   0.075 -0.0697  0.3830 -0.1300
 9362TIP3    H128039   3.460   1.586   0.080 -1.2690 -0.7953 -2.9105
 9362TIP3    H228040   3.610   1.584   0.057 -0.1920  1.6006  2.9588
 9363TIP3   OH228041   6.764   3.425   3.408  0.3088  0.3218 -0.0438
 9363TIP3    H128042   6.708   3.482   3.460  0.5399  1.4236 -0.9887
 9363TIP3    H228043   6.839   3.479   3.384 -1.0583  0.6932 -3.7828
 9364TIP3   OH228044   4.689   0.672   0.846  0.1339  0.4171 -0.3264
 9364TIP3    H128045   4.693   0.689   0.752  0.2819 -1.1903 -0.6154
 9364TIP3    H228046   4.763   0.614   0.863 -0.3842  0.0371  0.6524
 9365TIP3   OH228047   2.915   6.641   0.335  0.7308  0.3932 -0.6126
 9365TIP3    H128048   2.924   6.695   0.256  0.4700  2.0119  0.4498
 9365TIP3    H228049   2.953   6.694   0.405 -0.2859 -0.4541  0.5927
 9366TIP3   OH228050   5.178   4.335   3.868  0.4458  0.5044 -0.5745
 9366TIP3    H128051   5.172   4.322   3.773 -2.5558  1.4453 -0.5398
 9366TIP3    H228052   5.096   4.377   3.892  0.9399 -0.2021  2.5397
 9367TIP3   OH228053   1.298   1.850   5.858  0.4135  0.7156 -0.0075
 9367TIP3    H128054   1.213   1.882   5.887  0.7921  0.9937  0.8073
 9367TIP3    H228055   1.278   1.793   5.784 -0.3513  1.9630 -0.7698
 9368TIP3   OH228056   1.461   5.093   0.116  0.2716 -0.9164 -0.0742
 9368TIP3    H128057   1.503   5.169   0.155  2.0257 -1.2193 -1.3154
 9368TIP3    H228058   1.381   5.128   0.076  0.7668  0.1743 -0.1232
 9369TIP3   OH228059   7.221   1.556   5.255  0.4379  0.0016 -0.1834
 9369TIP3    H128060   7.282   1.595   5.318  1.7199  0.0580 -1.4218
 9369TIP3    H228061   7.241   1.599   5.172 -1.2920 -0.0073 -0.6183
 9370TIP3   OH228062   2.432   6.343   1.310  0.2947 -0.3480  0.1200
 9370TIP3    H128063   2.452   6.427   1.350 -2.2956 -0.2997  1.4866
 9370TIP3    H228064   2.457   6.278   1.375  2.7692 -0.7038 -1.1371
 9371TIP3   OH228065   7.434   2.998   5.254  0.2395  0.3922 -0.2767
 9371TIP3    H128066   7.465   3.058   5.323  0.5144  1.2781 -1.1577
 9371TIP3    H228067   7.344   3.025   5.238 -1.4888 -2.9463  3.1146
 9372TIP3   OH228068   4.945   1.657   1.853  0.1202  0.5648  0.4474
 9372TIP3    H128069   5.007   1.602   1.805 -1.3102  1.4954 -2.6228
 9372TIP3    H228070   4.998   1.730   1.885  1.0999 -0.0164  0.1643
 9373TIP3   OH228071   2.626   6.259   1.041  0.3452 -0.1820  0.4633
 9373TIP3    H128072   2.583   6.275   1.126 -0.6547  0.6209 -0.1833
 9373TIP3    H228073   2.612   6.166   1.025 -2.5651  0.3626 -0.4721
 9374TIP3   OH228074   5.023   4.504   4.658 -0.0903 -0.1634  0.3024
 9374TIP3    H128075   5.104   4.514   4.609 -0.7814  3.6202 -0.2403
 9374TIP3    H228076   5.014   4.586   4.706 -3.6068 -0.4665  0.3085
 9375TIP3   OH228077   6.587   2.962   4.516 -0.8644 -0.2946 -0.4447
 9375TIP3    H128078   6.631   2.994   4.594 -2.9143  0.8052  0.2912
 9375TIP3    H228079   6.561   2.872   4.538  0.4626 -0.7484 -0.6773
 9376TIP3   OH228080   1.027   2.193   3.223  0.2563 -0.9471  0.0665
 9376TIP3    H128081   1.061   2.205   3.312  1.2209  1.0227 -0.5452
 9376TIP3    H228082   1.069   2.113   3.191 -0.7154 -2.1295  1.6392
 9377TIP3   OH228083   6.050   2.898   5.560 -0.3088  0.2470  0.3238
 9377TIP3    H128084   6.026   2.986   5.588 -0.8588  0.6203 -1.2416
 9377TIP3    H228085   6.052   2.904   5.464  2.0921 -0.8007  0.2627
 9378TIP3   OH228086   6.430   4.386   5.291 -0.6762  0.3008  0.2814
 9378TIP3    H128087   6.395   4.443   5.223  1.0135  0.4482 -0.4758
 9378TIP3    H228088   6.401   4.426   5.373  1.2361  2.7649 -0.1938
 9379TIP3   OH228089   4.869   5.432   5.518 -0.2348 -0.0229  0.4972
 9379TIP3    H128090   4.901   5.519   5.541  0.9018 -0.0927 -0.7033
 9379TIP3    H228091   4.937   5.372   5.549 -0.1592 -0.3376 -0.2458
 9380TIP3   OH228092   4.075   0.782   2.124 -0.3566  0.4263  0.8918
 9380TIP3    H128093   4.041   0.859   2.078  0.8595 -1.1411 -2.7108
 9380TIP3    H228094   4.001   0.721   2.127  0.1939 -0.3680 -1.0728
 9381TIP3   OH228095   2.398   6.406   0.618  0.1283  0.0023 -0.2029
 9381TIP3    H128096   2.417   6.487   0.665  0.7994  0.6205 -1.5254
 9381TIP3    H228097   2.479   6.355   0.622  0.5674  0.5621 -1.6825
 9382TIP3   OH228098   5.529   2.640   6.229 -0.1302  0.0807 -0.0529
 9382TIP3    H128099   5.606   2.651   6.173 -1.0719 -0.7421 -1.5516
 9382TIP3    H228100   5.488   2.727   6.230  0.5797  0.4254  0.4433
 9383TIP3   OH228101   0.479   2.577   5.603 -0.0891  0.1563  0.5563
 9383TIP3    H128102   0.444   2.489   5.614 -0.9529  0.7475  2.8026
 9383TIP3    H228103   0.497   2.607   5.692  0.2965  2.2000 -0.1810
 9384TIP3   OH228104   7.715   7.406   1.682 -0.4824 -0.1746  0.3437
 9384TIP3    H128105   7.703   7.495   1.649 -0.2039 -0.4080 -0.3974
 9384TIP3    H228106   7.639   7.357   1.648 -0.0713 -0.4713 -0.1600
 9385TIP3   OH228107   5.842   0.028   1.120  0.0642 -0.7088 -0.2159
 9385TIP3    H128108   5.879   0.116   1.119 -0.7792 -0.3490 -0.3085
 9385TIP3    H228109   5.749   0.041   1.137 -0.6788 -1.3669 -3.4877
 9386TIP3   OH228110   7.076   1.921   5.894 -0.3080 -0.2733  0.1626
 9386TIP3    H128111   7.154   1.926   5.840 -1.2225 -0.5159 -1.1980
 9386TIP3    H228112   7.006   1.896   5.834 -1.0769 -2.0292  1.7299
 9387TIP3   OH228113   4.217   5.449   0.707 -0.4400 -0.2770 -0.2182
 9387TIP3    H128114   4.228   5.404   0.623  0.4744  0.6321 -0.5893
 9387TIP3    H228115   4.124   5.471   0.710 -0.5639 -0.6879 -0.7973
 9388TIP3   OH228116   7.056   3.525   5.993  0.2774  0.3878 -0.7814
 9388TIP3    H128117   6.981   3.490   6.042 -0.3448  1.2261 -1.1390
 9388TIP3    H228118   7.080   3.454   5.933 -0.4122  0.2281 -0.8733
 9389TIP3   OH228119   0.183   2.323   4.872  0.0897 -0.3104 -0.2526
 9389TIP3    H128120   0.197   2.262   4.799 -0.4353 -0.0791 -0.5549
 9389TIP3    H228121   0.261   2.315   4.926  0.3101 -0.7750 -0.6370
 9390TIP3   OH228122   4.255   1.644   1.375 -0.3224  0.3298 -0.3054
 9390TIP3    H128123   4.308   1.646   1.295  0.3891 -0.2223  0.1415
 9390TIP3    H228124   4.234   1.551   1.387 -0.4030  0.4073  0.1599
 9391TIP3   OH228125   4.059   0.225   1.652 -0.8355  0.2087 -0.0584
 9391TIP3    H128126   4.046   0.148   1.596 -0.3672 -0.1807  0.3553
 9391TIP3    H228127   4.144   0.261   1.624 -0.4036 -0.2227  0.6604
 9392TIP3   OH228128   6.613   3.487   3.864 -0.0394 -0.0676 -0.4118
 9392TIP3    H128129   6.549   3.456   3.801 -0.8269  0.1995  0.2377
 9392TIP3    H228130   6.596   3.435   3.943  0.3924  0.1523 -0.1709
 9393TIP3   OH228131   6.530   3.830   6.200 -0.6829  0.5204 -0.1556
 9393TIP3    H128132   6.555   3.759   6.260  0.1291  3.0650  2.6703
 9393TIP3    H228133   6.436   3.841   6.215 -0.9750 -0.4456 -1.1908
 9394TIP3   OH228134   6.694   5.089   5.780 -0.3620  0.8373  0.0259
 9394TIP3    H128135   6.677   5.123   5.692 -2.6198 -3.2801 -1.2902
 9394TIP3    H228136   6.777   5.042   5.772 -1.5474 -1.2394 -0.5227
 9395TIP3   OH228137   0.128   5.523   4.002  0.1988 -0.0058 -0.2322
 9395TIP3    H128138   0.077   5.505   4.081 -0.7358  1.1948 -0.5421
 9395TIP3    H228139   0.194   5.454   4.000  0.4556  0.1458  1.7778
 9396TIP3   OH228140   0.480   2.994   4.175 -0.5666  0.2180  0.1420
 9396TIP3    H128141   0.392   2.961   4.158 -1.3874  2.1038  0.6722
 9396TIP3    H228142   0.479   3.084   4.142  0.1335  1.3747  3.1900
 9397TIP3   OH228143   1.862   5.803   0.979 -0.0638 -0.1236 -0.3001
 9397TIP3    H128144   1.767   5.813   0.975 -0.2634 -1.1178  1.3194
 9397TIP3    H228145   1.896   5.893   0.979 -0.9475  0.2200 -1.6190
 9398TIP3   OH228146   2.097   7.205   2.387  0.2695 -0.1434 -0.0225
 9398TIP3    H128147   2.147   7.257   2.325 -0.1412  0.3122  0.0331
 9398TIP3    H228148   2.161   7.180   2.454  0.0832  1.7899  0.9000
 9399TIP3   OH228149   5.249   4.769   5.236 -0.3941  0.5985 -0.0166
 9399TIP3    H128150   5.222   4.847   5.285  0.3379  0.7440  0.1661
 9399TIP3    H228151   5.270   4.803   5.148 -1.2346  0.4154 -0.2896
 9400TIP3   OH228152   0.020   2.345   5.141  0.6587 -0.0499  0.9055
 9400TIP3    H128153   0.102   2.390   5.121 -0.8279  1.9844 -0.9188
 9400TIP3    H228154  -0.048   2.400   5.100 -1.6159 -1.6163  2.4526
 9401TIP3   OH228155   0.900   6.509   0.743 -0.0055 -0.0054  0.4383
 9401TIP3    H128156   0.923   6.549   0.660 -1.0942 -0.3701 -0.0430
 9401TIP3    H228157   0.954   6.430   0.747  1.7585  1.1995  1.1527
 9402TIP3   OH228158   2.387   6.527   1.083 -0.1183 -0.1059 -0.4761
 9402TIP3    H128159   2.432   6.517   1.167 -1.4346  0.7313  0.3419
 9402TIP3    H228160   2.381   6.438   1.048 -0.1558 -0.5410  0.6316
 9403TIP3   OH228161   7.332   3.202   4.395 -0.0567 -0.1790 -0.1710
 9403TIP3    H128162   7.315   3.263   4.467 -0.8260  0.2760 -0.7289
 9403TIP3    H228163   7.262   3.218   4.333  1.3921  0.4327 -1.6806
 9404TIP3   OH228164   3.860   1.025   4.643  0.3230  0.3092 -0.1796
 9404TIP3    H128165   3.887   0.934   4.635 -0.3950  0.2304 -1.8918
 9404TIP3    H228166   3.901   1.069   4.569  0.0917  1.2498  0.2345
 9405TIP3   OH228167   4.601   0.207   1.413  0.2803 -0.0843 -0.1831
 9405TIP3    H128168   4.632   0.224   1.502  0.6596  1.2158 -0.5620
 9405TIP3    H228169   4.681   0.197   1.362  0.0683 -1.9458 -0.1804
 9406TIP3   OH228170   6.634   3.533   5.720  0.6991  0.4412  0.1702
 9406TIP3    H128171   6.724   3.556   5.698  0.3494  0.9458 -0.8086
 9406TIP3    H228172   6.607   3.599   5.784  0.3647  1.5686 -1.0970
 9407TIP3   OH228173   7.656   0.500   6.104  0.0130  0.3017 -0.3842
 9407TIP3    H128174   7.730   0.502   6.044  0.9108 -0.1442  0.6848
 9407TIP3    H228175   7.599   0.572   6.075  0.5601  0.2561 -1.5882
 9408TIP3   OH228176   3.608   2.531   0.701  0.0437 -0.1536 -0.1252
 9408TIP3    H128177   3.578   2.539   0.611 -1.6547 -2.4532  0.1864
 9408TIP3    H228178   3.703   2.519   0.695 -0.1322 -0.8642 -1.6512
 9409TIP3   OH228179   0.121   3.657   4.830 -0.5057 -0.1403  0.1903
 9409TIP3    H128180   0.104   3.563   4.817  1.1879 -0.2352 -1.5229
 9409TIP3    H228181   0.208   3.661   4.870  0.4065  0.7657 -1.8297
 9410TIP3   OH228182   2.695   6.431   0.352 -0.2889 -0.1156  0.1096
 9410TIP3    H128183   2.749   6.508   0.371 -2.0376  0.6166  2.4114
 9410TIP3    H228184   2.739   6.358   0.395 -0.5882  0.3113  1.1660
 9411TIP3   OH228185   7.616   3.619   6.032  0.0248 -0.8130  0.0429
 9411TIP3    H128186   7.653   3.544   6.079  1.1026  0.5601  1.4435
 9411TIP3    H228187   7.579   3.674   6.101 -1.8950 -0.6495 -1.0809
 9412TIP3   OH228188   5.093   3.947   5.383  0.2013  0.4300 -0.7050
 9412TIP3    H128189   5.034   3.970   5.454  1.7992  0.0574  0.7914
 9412TIP3    H228190   5.041   3.959   5.303 -1.6337  0.8072  0.5152
 9413TIP3   OH228191   3.933   7.305   4.361  0.2428  0.3305 -0.0766
 9413TIP3    H128192   3.842   7.318   4.336  0.2373  0.7895  0.1726
 9413TIP3    H228193   3.970   7.393   4.362  0.3290  0.2913  1.1553
 9414TIP3   OH228194   2.925   5.124   0.825  0.6475  0.4955 -0.2020
 9414TIP3    H128195   2.848   5.067   0.827  0.4429  0.8298  2.0647
 9414TIP3    H228196   2.944   5.135   0.731  0.6073 -3.1448 -0.6906
 9415TIP3   OH228197   7.471   6.350   0.275 -0.1515 -0.2835 -0.0984
 9415TIP3    H128198   7.446   6.389   0.359  1.0577 -0.8686  0.5365
 9415TIP3    H228199   7.499   6.424   0.221  0.2646 -0.0515  0.4357
 9416TIP3   OH228200   5.540   3.487   6.046  0.6731 -0.3854 -0.2038
 9416TIP3    H128201   5.590   3.445   5.976  2.3926  1.4823 -0.1462
 9416TIP3    H228202   5.564   3.437   6.125  0.1780 -1.3117 -0.6279
 9417TIP3   OH228203   7.308   3.088   4.725  0.1768 -0.0646  0.4337
 9417TIP3    H128204   7.351   3.009   4.757  2.8649  1.5680  0.9909
 9417TIP3    H228205   7.380   3.145   4.697 -1.7332  1.9444 -0.5454
 9418TIP3   OH228206   5.204   2.880   4.701  0.0577 -0.1458 -0.2793
 9418TIP3    H128207   5.248   2.930   4.633  0.5611  0.9068  0.7990
 9418TIP3    H228208   5.115   2.866   4.668  0.5620 -0.4364 -1.5341
 9419TIP3   OH228209   5.910   3.399   6.347 -0.3654  0.3037  0.0030
 9419TIP3    H128210   5.958   3.460   6.403  0.6684  0.3982 -0.9526
 9419TIP3    H228211   5.928   3.313   6.383  1.9462  0.1802 -1.3146
 9420TIP3   OH228212   6.390   1.449   0.283 -0.1397  0.6611  0.5026
 9420TIP3    H128213   6.446   1.526   0.297 -0.8064  1.1739  0.3853
 9420TIP3    H228214   6.392   1.434   0.189 -0.0434  0.5632  0.5206
 9421TIP3   OH228215   4.519   0.187   0.804  0.5418 -0.6340  0.2482
 9421TIP3    H128216   4.435   0.143   0.815 -0.7634  1.4050 -1.1203
 9421TIP3    H228217   4.547   0.207   0.893 -0.5058 -1.2087  0.7154
 9422TIP3   OH228218   3.102   6.849   0.573  0.4793 -0.5023 -0.0502
 9422TIP3    H128219   3.179   6.899   0.545  0.7569 -1.4947 -1.1012
 9422TIP3    H228220   3.129   6.758   0.564 -1.8438 -0.9343 -3.4770
 9423TIP3   OH228221   1.136   0.283   6.005  0.2200 -0.7423  0.4357
 9423TIP3    H128222   1.186   0.354   5.964 -0.1062  0.2636  1.7323
 9423TIP3    H228223   1.098   0.235   5.932 -0.0051  0.7759 -0.4648
 9424TIP3   OH228224   6.629   1.572   6.163 -0.1044 -0.4394 -0.2115
 9424TIP3    H128225   6.625   1.504   6.095  0.0209 -2.4259  1.7009
 9424TIP3    H228226   6.543   1.614   6.160 -0.2262 -0.7586 -1.3616
 9425TIP3   OH228227   7.112   1.847   4.300  0.0032  0.0534  0.2524
 9425TIP3    H128228   7.177   1.801   4.353  0.5355 -0.1115 -0.5353
 9425TIP3    H228229   7.161   1.915   4.254 -0.4518  0.1944 -0.0277
 9426TIP3   OH228230   3.383   5.739   0.256 -0.0284 -0.5339 -0.1351
 9426TIP3    H128231   3.338   5.823   0.262 -0.0297 -0.5129 -0.4317
 9426TIP3    H228232   3.405   5.718   0.347  1.5722  0.6677 -0.2173
 9427TIP3   OH228233   2.318   6.424   0.340 -0.2402 -0.0405  0.1781
 9427TIP3    H128234   2.274   6.358   0.286 -0.2981 -0.3175  0.5666
 9427TIP3    H228235   2.342   6.378   0.420  0.3762  0.2223  0.1436
 9428TIP3   OH228236   7.002   2.429   6.407 -0.5514  0.7183  0.1471
 9428TIP3    H128237   7.010   2.413   6.501  0.3354  0.6330  0.0575
 9428TIP3    H228238   6.985   2.523   6.400 -3.3701  0.2896  0.5397
 9429TIP3   OH228239   0.093   3.264   5.187 -0.5730  0.4604 -0.1206
 9429TIP3    H128240   0.080   3.204   5.261 -0.3490  0.5775  0.0143
 9429TIP3    H228241   0.056   3.218   5.112 -0.1011  0.0119 -0.0802
 9430TIP3   OH228242   5.646   3.343   6.290 -0.3061  0.5026  0.1553
 9430TIP3    H128243   5.734   3.375   6.309 -0.2143 -0.2948  1.1058
 9430TIP3    H228244   5.589   3.394   6.347 -0.6852  2.3745 -1.8321
 9431TIP3   OH228245   6.455   3.707   5.465 -0.2750  0.1864  0.3945
 9431TIP3    H128246   6.467   3.764   5.542 -1.4910  1.4620 -0.3291
 9431TIP3    H228247   6.449   3.768   5.392 -1.4406 -0.9006 -0.4311
 9432TIP3   OH228248   1.859   5.642   1.190  0.0374  0.5259  0.0103
 9432TIP3    H128249   1.852   5.712   1.127 -0.8653  1.7540  1.4476
 9432TIP3    H228250   1.809   5.570   1.153  0.1710  0.9652 -1.0236
 9433TIP3   OH228251   1.137   5.494   0.512  0.3335 -0.4773  0.0976
 9433TIP3    H128252   1.210   5.542   0.552  2.0579 -2.7721 -0.2002
 9433TIP3    H228253   1.157   5.492   0.419  0.0419 -1.3257  0.0438
 9434TIP3   OH228254   3.431   1.219   0.887  0.3077 -0.3714 -0.2145
 9434TIP3    H128255   3.472   1.302   0.864  1.0378 -0.4770  0.6936
 9434TIP3    H228256   3.337   1.234   0.875  0.1167  1.6966  3.3744
 9435TIP3   OH228257   2.580   2.628   3.253  0.1558  0.1991 -0.3229
 9435TIP3    H128258   2.485   2.618   3.244  0.1359 -0.2197  0.3563
 9435TIP3    H228259   2.616   2.542   3.234  0.4377  0.4641 -1.0163
 9436TIP3   OH228260   3.577   7.212   1.174 -0.4121 -0.1619  0.0169
 9436TIP3    H128261   3.591   7.298   1.213 -0.6058 -0.0013 -0.2640
 9436TIP3    H228262   3.641   7.155   1.216 -1.3368 -0.2246  1.3686
 9437TIP3   OH228263   0.954   2.698   5.053  0.2474  0.0429  0.3973
 9437TIP3    H128264   0.996   2.757   4.990 -0.8559 -1.1404 -1.4873
 9437TIP3    H228265   0.861   2.707   5.035  0.0086 -1.4640  0.8243
 9438TIP3   OH228266   7.032   3.514   4.648 -0.5119  0.2883  0.2272
 9438TIP3    H128267   6.968   3.453   4.610 -0.2681 -0.6099  1.2501
 9438TIP3    H228268   7.009   3.599   4.610 -2.4292  0.0085  0.6936
 9439TIP3   OH228269   7.378   7.143   1.196 -0.4437 -0.0375  0.0413
 9439TIP3    H128270   7.384   7.120   1.289 -1.7752  0.4533  0.2531
 9439TIP3    H228271   7.464   7.118   1.160  0.3179  0.3765  1.5284
 9440TIP3   OH228272   7.690   3.400   6.209  0.7407  0.5409  0.2150
 9440TIP3    H128273   7.640   3.324   6.241  1.1614  1.2066  2.5848
 9440TIP3    H228274   7.759   3.411   6.274  1.8857  1.7557 -1.1895
 9441TIP3   OH228275   4.535   0.907   0.177  0.6321 -0.6499 -0.1461
 9441TIP3    H128276   4.503   0.824   0.141  0.7267 -1.1523  0.8959
 9441TIP3    H228277   4.532   0.968   0.104  0.4011 -1.5349 -0.8833
 9442TIP3   OH228278   5.446   0.522   0.362  0.3325 -0.0052 -0.1237
 9442TIP3    H128279   5.483   0.501   0.448 -0.6016 -0.1004  0.2606
 9442TIP3    H228280   5.426   0.616   0.367  1.2816  0.2368 -0.6263
 9443TIP3   OH228281   5.384   3.284   4.639 -0.8099  0.0827  0.6375
 9443TIP3    H128282   5.344   3.198   4.651  0.9228 -0.8914 -0.4359
 9443TIP3    H228283   5.478   3.268   4.646 -0.4100  1.6777 -0.8376
 9444TIP3   OH228284   0.137   1.742   4.477  0.7235 -0.2692  0.1608
 9444TIP3    H128285   0.097   1.758   4.392 -0.0235 -1.8855  0.1824
 9444TIP3    H228286   0.211   1.685   4.459 -0.9329 -2.7171  0.8311
 9445TIP3   OH228287   0.083   3.950   5.250  0.0910 -0.1198 -0.1655
 9445TIP3    H128288   0.040   3.919   5.329 -0.2990  0.4084 -0.1651
 9445TIP3    H228289   0.023   3.926   5.179 -0.2104  0.6041 -0.1654
 9446TIP3   OH228290   5.141   0.262   0.030  0.0446  0.2699 -0.1367
 9446TIP3    H128291   5.172   0.315   0.103 -0.9308 -0.2326  0.6460
 9446TIP3    H228292   5.065   0.216   0.064  0.3933 -1.0110 -1.0568
 9447TIP3   OH228293   6.549   3.851   3.358 -0.1880 -0.0348 -0.1656
 9447TIP3    H128294   6.513   3.928   3.314  1.6305  0.4515 -0.8569
 9447TIP3    H228295   6.642   3.850   3.332  0.0576 -1.8347  0.7121
 9448TIP3   OH228296   2.044   4.362   0.224 -0.3719 -0.0288  0.2949
 9448TIP3    H128297   2.122   4.331   0.179 -0.8136 -1.0266  0.1851
 9448TIP3    H228298   1.972   4.337   0.166 -0.8838 -0.6138  1.1619
 9449TIP3   OH228299   7.407   3.698   5.036  0.0953 -0.2229 -0.2548
 9449TIP3    H128300   7.373   3.772   4.986 -0.5074 -0.0844  0.3469
 9449TIP3    H228301   7.331   3.641   5.051  0.6775 -1.2725 -1.2404
 9450TIP3   OH228302   0.398   2.974   5.962 -0.0614 -0.0755  0.3706
 9450TIP3    H128303   0.403   2.990   6.056 -1.2504 -0.0724  0.4338
 9450TIP3    H228304   0.377   2.881   5.955 -0.1272 -0.0401  0.1050
 9451TIP3   OH228305   5.294   4.550   3.998  0.5951 -0.5678  0.0843
 9451TIP3    H128306   5.270   4.482   3.936  1.1775 -0.9534  0.2756
 9451TIP3    H228307   5.213   4.598   4.014  0.6856  0.2860 -1.8753
 9452TIP3   OH228308   0.697   4.788   5.832 -0.3895 -0.2982  0.2741
 9452TIP3    H128309   0.711   4.799   5.738 -2.4700 -1.2073 -0.1786
 9452TIP3    H228310   0.762   4.723   5.859 -0.1989 -0.5039 -0.6579
 9453TIP3   OH228311   2.174   6.692   1.007 -0.3498  0.0656  0.4241
 9453TIP3    H128312   2.091   6.678   1.051  0.7999  0.3087  2.7537
 9453TIP3    H228313   2.237   6.641   1.058  0.8844 -0.3611 -1.4796
 9454TIP3   OH228314   6.123   1.407   5.814 -0.2125  0.2131  0.0882
 9454TIP3    H128315   6.068   1.350   5.868  1.9167 -4.1451 -2.0675
 9454TIP3    H228316   6.194   1.434   5.873 -0.4061 -0.7009  0.7560
 9455TIP3   OH228317   6.539   2.096   5.819  0.2476 -0.0947 -0.2627
 9455TIP3    H128318   6.590   2.045   5.755 -2.7875 -2.4528 -0.9000
 9455TIP3    H228319   6.448   2.072   5.803 -0.9974  2.8009  1.9209
 9456TIP3   OH228320   0.173   2.979   4.740  0.4183 -0.1007 -0.2707
 9456TIP3    H128321   0.100   2.918   4.732  0.6471 -0.3893 -0.1734
 9456TIP3    H228322   0.141   3.047   4.799  0.8835 -1.2225  1.3265
 9457TIP3   OH228323   7.412   1.760   4.819  0.0910 -0.3050 -0.0347
 9457TIP3    H128324   7.321   1.771   4.791 -0.1996  0.1365  1.0491
 9457TIP3    H228325   7.464   1.780   4.742 -0.7118  0.0442 -0.4884
 9458TIP3   OH228326   2.233   7.260   1.251 -0.1537 -0.2433 -0.7538
 9458TIP3    H128327   2.214   7.296   1.338  0.3246 -0.1046 -0.7066
 9458TIP3    H228328   2.147   7.239   1.215 -0.5209  1.8178 -1.1593
 9459TIP3   OH228329   7.792   3.287   4.619  0.2285  0.1549 -0.0089
 9459TIP3    H128330   7.864   3.233   4.586 -0.0327 -0.9705  1.2336
 9459TIP3    H228331   7.832   3.341   4.687 -0.2014 -0.9045  1.1087
 9460TIP3   OH228332   1.858   5.029   0.100  0.6078 -1.0788  0.7853
 9460TIP3    H128333   1.862   4.950   0.154  1.2131 -3.3652 -2.4800
 9460TIP3    H228334   1.936   5.025   0.044 -1.0494  0.1241 -1.7063
 9461TIP3   OH228335   3.831   6.079   0.962 -0.1418 -0.0327 -0.4381
 9461TIP3    H128336   3.847   6.142   0.892  1.2772 -0.1714 -0.2498
 9461TIP3    H228337   3.850   5.994   0.923 -5.0855 -0.7374 -1.6676
 9462TIP3   OH228338   4.789   0.249   0.789  0.6410  0.5003 -0.3856
 9462TIP3    H128339   4.857   0.197   0.831  1.2858  0.8410 -0.9956
 9462TIP3    H228340   4.711   0.194   0.793  1.3211 -0.5276 -1.0534
 9463TIP3   OH228341   6.505   1.266   4.813 -0.2425  0.3750 -0.1269
 9463TIP3    H128342   6.482   1.311   4.894  0.5398  0.4833  0.0382
 9463TIP3    H228343   6.561   1.193   4.841  0.4931  0.7480 -0.6182
 9464TIP3   OH228344   7.475   2.251   5.871 -0.0857 -0.3656  0.0010
 9464TIP3    H128345   7.408   2.211   5.927  0.1562 -0.1570  0.4362
 9464TIP3    H228346   7.536   2.179   5.852 -0.5948 -0.6359 -0.6529
 9465TIP3   OH228347   7.691   2.821   6.034  0.5342  0.3720  0.1263
 9465TIP3    H128348   7.623   2.806   6.100 -0.0551  1.2823 -0.2552
 9465TIP3    H228349   7.646   2.868   5.964  1.2205 -0.3478 -0.8077
 9466TIP3   OH228350   6.565   1.675   5.437 -0.6487  0.3002 -0.9674
 9466TIP3    H128351   6.583   1.717   5.353  0.5072 -0.7993 -1.2877
 9466TIP3    H228352   6.506   1.603   5.415 -2.3230  1.4982 -0.4722
 9467TIP3   OH228353   5.349   2.412   4.791 -0.4676  0.5463  0.3467
 9467TIP3    H128354   5.375   2.501   4.766 -1.5626  0.6852 -0.3540
 9467TIP3    H228355   5.370   2.406   4.884 -0.1774  1.4652  0.3469
 9468TIP3   OH228356   2.425   6.173   1.533  0.7692  0.0180  0.1050
 9468TIP3    H128357   2.414   6.214   1.618  1.0505 -1.2335  0.7645
 9468TIP3    H228358   2.453   6.083   1.553 -1.0669 -0.8903 -1.2405
 9469TIP3   OH228359   6.577   3.579   6.411 -0.0888  0.8888 -0.2099
 9469TIP3    H128360   6.643   3.638   6.446  0.2710  1.3063 -1.5768
 9469TIP3    H228361   6.624   3.527   6.345 -0.5744 -0.4129  0.4473
 9470TIP3   OH228362   6.526   4.270   4.119  0.0418 -0.2929 -0.2660
 9470TIP3    H128363   6.493   4.242   4.033  0.1309 -1.0604 -0.0489
 9470TIP3    H228364   6.526   4.191   4.172  0.9879 -0.0246  0.1382
 9471TIP3   OH228365   4.105   1.813   0.182 -0.2498 -0.1872 -0.1263
 9471TIP3    H128366   4.133   1.759   0.108 -1.2510 -0.1450 -0.5336
 9471TIP3    H228367   4.021   1.776   0.209 -1.0625  1.3097 -0.5488
 9472TIP3   OH228368   6.916   3.688   6.345  0.1397  0.5153  0.5997
 9472TIP3    H128369   6.923   3.763   6.286  1.8543 -0.0013  0.1201
 9472TIP3    H228370   6.908   3.613   6.287  0.2848  0.1531  1.0505
 9473TIP3   OH228371   6.510   1.904   4.620 -0.5003 -0.4559  0.3409
 9473TIP3    H128372   6.601   1.876   4.628 -0.0978  1.0329  1.1668
 9473TIP3    H228373   6.514   2.000   4.623 -2.3071 -0.4308  2.8848
 9474TIP3   OH228374   6.312   4.165   4.576 -0.4609  0.2448  0.4675
 9474TIP3    H128375   6.231   4.112   4.576 -1.1743  1.3124 -0.0492
 9474TIP3    H228376   6.296   4.233   4.641  1.0481 -1.0128  2.2113
 9475TIP3   OH228377   6.190   5.044   5.919 -0.3276 -0.4216  0.5505
 9475TIP3    H128378   6.119   4.981   5.928 -0.1033 -0.7992 -0.2366
 9475TIP3    H228379   6.163   5.119   5.971 -1.3023 -0.5703  0.2666
 9476TIP3   OH228380   7.732   1.908   3.633  0.2418 -0.1072 -0.3108
 9476TIP3    H128381   7.742   2.000   3.654 -0.4678 -0.3859  1.3758
 9476TIP3    H228382   7.670   1.906   3.560  0.2750  0.7477 -0.3613
 9477TIP3   OH228383   3.481   4.688   0.678  0.3461 -0.5454 -0.2072
 9477TIP3    H128384   3.529   4.753   0.627 -0.7138  1.1512  0.9063
 9477TIP3    H228385   3.530   4.680   0.760  0.2056 -0.8077 -0.1474
 9478TIP3   OH228386   4.594   3.491   5.102 -0.1579 -0.0803 -0.1365
 9478TIP3    H128387   4.583   3.398   5.118  0.8263 -0.4733 -1.6866
 9478TIP3    H228388   4.593   3.500   5.007 -0.3496  1.5026 -0.0042
 9479TIP3   OH228389   7.555   2.234   6.356 -0.0554 -0.1819 -0.7326
 9479TIP3    H128390   7.502   2.170   6.308  0.9285 -0.8783 -0.9080
 9479TIP3    H228391   7.645   2.203   6.345  0.6278  2.2681 -2.3763
 9480TIP3   OH228392   6.954   3.779   4.636  0.0467  0.1290  0.2501
 9480TIP3    H128393   6.869   3.737   4.648 -1.4940  3.1509  0.4977
 9480TIP3    H228394   6.955   3.851   4.699  2.6084  0.4172 -0.0559
 9481TIP3   OH228395   7.049   1.790   6.334 -0.3600 -0.1366  0.3497
 9481TIP3    H128396   7.056   1.694   6.332 -1.8110 -0.2247 -2.2763
 9481TIP3    H228397   6.973   1.807   6.390 -0.0370 -0.5239  0.9081
 9482TIP3   OH228398   2.552   1.743   0.722  0.2732  0.4995  0.6417
 9482TIP3    H128399   2.548   1.695   0.640  0.4125  0.7036  0.5158
 9482TIP3    H228400   2.529   1.679   0.789 -2.0204  0.8539  0.2436
 9483TIP3   OH228401   0.948   3.911   4.421 -0.1060  0.6465  0.1714
 9483TIP3    H128402   0.944   4.006   4.410 -1.3307  0.6253  0.3010
 9483TIP3    H228403   0.999   3.898   4.501  0.8603  1.1618 -0.3610
 9484TIP3   OH228404   6.157   4.367   5.729 -0.0791  0.1079  0.3080
 9484TIP3    H128405   6.103   4.435   5.769  0.6319  0.9802 -0.2162
 9484TIP3    H228406   6.242   4.407   5.716  0.4949 -1.0378  0.4466
 9485TIP3   OH228407   6.624   3.302   6.175 -0.3014 -0.1915  0.2627
 9485TIP3    H128408   6.620   3.219   6.128 -2.6106 -0.6330  1.1625
 9485TIP3    H228409   6.556   3.356   6.136  0.6503  1.0243  0.2298
 9486TIP3   OH228410   2.324   1.211   0.858  0.1340  0.0438  0.0009
 9486TIP3    H128411   2.409   1.243   0.888 -1.1470  1.0691  2.7054
 9486TIP3    H228412   2.341   1.123   0.824  1.9073 -0.6789  2.6258
 9487TIP3   OH228413   2.960   5.818   0.920 -0.2032 -0.4853  0.2873
 9487TIP3    H128414   2.989   5.740   0.967 -0.4835 -0.7168  0.0808
 9487TIP3    H228415   2.985   5.802   0.829 -0.6785 -0.5456  0.1640
 9488TIP3   OH228416   3.284   0.464   1.672 -0.0803 -0.6381 -0.3998
 9488TIP3    H128417   3.284   0.515   1.753 -2.9887 -0.4076 -0.4859
 9488TIP3    H228418   3.295   0.528   1.603  1.3052 -0.7101 -0.2495
 9489TIP3   OH228419   7.605   3.114   6.326 -0.2639  0.0566  0.7679
 9489TIP3    H128420   7.551   3.169   6.383  1.0014 -0.1816  2.2147
 9489TIP3    H228421   7.575   3.024   6.343 -0.8686  0.0945 -0.0299
 9490TIP3   OH228422   7.903   2.756   4.810  0.3918 -0.4142  0.2220
 9490TIP3    H128423   7.883   2.796   4.895 -2.8174  1.7946 -1.4467
 9490TIP3    H228424   7.895   2.662   4.825 -1.0037 -0.0168  2.1694
 9491TIP3   OH228425   0.488   6.532   1.509  0.0159 -0.4756 -0.0186
 9491TIP3    H128426   0.484   6.454   1.564  0.0343  0.0444  0.7422
 9491TIP3    H228427   0.516   6.602   1.569  2.4639 -0.3739 -1.2427
 9492TIP3   OH228428   2.979   6.227   1.606 -0.0126 -0.3828  0.3023
 9492TIP3    H128429   2.916   6.291   1.639 -0.5641 -0.6148 -0.2853
 9492TIP3    H228430   3.063   6.258   1.637  0.0534  2.1360 -2.2335
 9493TIP3   OH228431   3.507   0.142   0.271 -0.1042 -0.4940  0.0446
 9493TIP3    H128432   3.431   0.169   0.219 -0.0083 -1.0615 -0.3901
 9493TIP3    H228433   3.518   0.212   0.335 -0.6115 -0.1012 -0.2941
 9494TIP3   OH228434   4.555   1.184   4.396  0.2548 -0.0656 -0.0521
 9494TIP3    H128435   4.497   1.248   4.436 -0.3210 -0.3156 -0.4632
 9494TIP3    H228436   4.497   1.133   4.338  1.2304  0.9124 -1.9469
 9495TIP3   OH228437   3.005   6.883   2.270 -0.3816 -0.1484 -0.6171
 9495TIP3    H128438   2.979   6.805   2.319 -0.3575 -0.4973 -1.1511
 9495TIP3    H228439   3.064   6.850   2.203 -0.4353  0.3236 -0.9005
 9496TIP3   OH228440   7.251   3.647   5.724  0.5307  0.3510 -0.3058
 9496TIP3    H128441   7.258   3.580   5.656 -0.2433  1.5137 -1.5529
 9496TIP3    H228442   7.156   3.658   5.737  0.6534  1.1346 -0.0565
 9497TIP3   OH228443   5.590   1.395   4.403 -0.1693 -0.4317 -0.1564
 9497TIP3    H128444   5.555   1.307   4.413  1.9933 -1.2581  0.5854
 9497TIP3    H228445   5.554   1.445   4.476 -2.3895 -0.3346 -1.2834
 9498TIP3   OH228446   7.112   2.919   4.278 -0.5749  0.3432 -0.2237
 9498TIP3    H128447   7.145   2.861   4.347 -1.2113  0.8954  0.5580
 9498TIP3    H228448   7.021   2.892   4.266 -0.5643  0.4789 -0.5992
 9499TIP3   OH228449   5.895   4.885   6.098  0.4418 -0.3014 -0.3847
 9499TIP3    H128450   5.876   4.816   6.161  1.2961 -0.9783 -0.8596
 9499TIP3    H228451   5.842   4.959   6.127  0.0478 -0.9325  0.5282
 9500TIP3   OH228452   1.072   3.876   4.702 -0.3318 -0.5698 -0.6148
 9500TIP3    H128453   1.016   3.942   4.743 -0.8308 -0.0752 -2.0907
 9500TIP3    H228454   1.098   3.819   4.775 -3.5381 -1.3902  0.0097
 9501TIP3   OH228455   2.514   2.494   5.960  0.2231  0.2925 -0.2723
 9501TIP3    H128456   2.462   2.571   5.986  1.5700  0.6941  1.2793
 9501TIP3    H228457   2.593   2.531   5.921  0.4937 -0.3139 -0.2945
 9502TIP3   OH228458   5.717   0.906   0.708  0.3196  0.6787 -0.5113
 9502TIP3    H128459   5.665   0.913   0.788  1.0471  1.0337 -0.0595
 9502TIP3    H228460   5.661   0.941   0.639 -0.4585  0.0081 -0.2187
 9503TIP3   OH228461   4.402   0.275   0.499 -0.0234  0.0352 -0.5583
 9503TIP3    H128462   4.314   0.240   0.514 -0.0080  0.2889  0.1059
 9503TIP3    H228463   4.440   0.285   0.586  1.0008 -0.9196 -0.8781
 9504TIP3   OH228464   2.399   6.528   2.870  0.3399 -0.1992 -0.3195
 9504TIP3    H128465   2.379   6.501   2.959  0.8765 -3.0789 -1.0389
 9504TIP3    H228466   2.495   6.532   2.866  0.2943  1.5806 -0.3305
 9505TIP3   OH228467   2.275   6.216   2.101  0.6599 -0.1910  0.8194
 9505TIP3    H128468   2.258   6.250   2.014 -0.1688  0.5310  1.2565
 9505TIP3    H228469   2.348   6.269   2.134 -0.2866  0.8194  1.3000
 9506TIP3   OH228470   6.988   1.298   4.976 -0.0481  0.1224  0.2582
 9506TIP3    H128471   6.962   1.206   4.981 -1.7713  0.6551  1.4991
 9506TIP3    H228472   7.046   1.311   5.051 -0.8300  0.3458  0.8352
 9507TIP3   OH228473   2.304   5.947   0.497  0.4011 -0.0631 -0.1167
 9507TIP3    H128474   2.373   5.983   0.551 -0.2916  1.3641 -0.1501
 9507TIP3    H228475   2.230   5.933   0.557  0.3713 -0.6092 -0.2718
 9508TIP3   OH228476   6.224   2.429   5.035  0.1475 -0.3369  0.1799
 9508TIP3    H128477   6.320   2.426   5.040  0.0864 -1.0410  1.0793
 9508TIP3    H228478   6.206   2.457   4.945  1.1958 -0.8590 -0.2071
 9509TIP3   OH228479   6.284   3.879   6.294 -0.0663 -0.0494 -0.2089
 9509TIP3    H128480   6.217   3.834   6.242 -1.0724  1.3069 -0.1468
 9509TIP3    H228481   6.238   3.956   6.328  1.2283  0.2843  0.7935
 9510TIP3   OH228482   6.484   4.244   5.886 -0.2571  0.2581  0.0032
 9510TIP3    H128483   6.503   4.153   5.865  0.1347  0.1663  0.7328
 9510TIP3    H228484   6.505   4.292   5.806  1.5150 -0.0422  0.2681
 9511TIP3   OH228485   3.568   6.404   1.484 -0.4383  0.1921  0.0767
 9511TIP3    H128486   3.530   6.338   1.426 -0.3987  0.0433  0.2195
 9511TIP3    H228487   3.628   6.355   1.540  1.0282  0.6250 -1.0694
 9512TIP3   OH228488   7.285   3.432   6.170  0.1428  0.0325 -0.6080
 9512TIP3    H128489   7.194   3.462   6.167  0.1409  0.2078  0.8680
 9512TIP3    H228490   7.324   3.465   6.088 -0.6150  1.6144 -0.3386
 9513TIP3   OH228491   7.189   2.238   4.840 -0.2591  0.6240 -0.1692
 9513TIP3    H128492   7.247   2.173   4.801  0.0168  0.4792  0.4766
 9513TIP3    H228493   7.173   2.302   4.770 -0.0314  0.1931 -0.6118
 9514TIP3   OH228494   4.854   0.478   1.481  0.3737  0.2842 -0.1341
 9514TIP3    H128495   4.785   0.420   1.514 -0.1363  2.0313  2.0207
 9514TIP3    H228496   4.934   0.446   1.522  0.4684 -0.3006 -0.7719
 9515TIP3   OH228497   0.475   6.385   0.141 -0.2284 -0.5951 -0.1840
 9515TIP3    H128498   0.397   6.344   0.104  1.1175 -3.3540 -0.1360
 9515TIP3    H228499   0.528   6.311   0.172  2.4193  1.1850 -0.2798
 9516TIP3   OH228500   4.758   3.678   5.239 -0.7170  0.1103 -0.1946
 9516TIP3    H128501   4.733   3.765   5.209 -1.1435  0.1314  0.2169
 9516TIP3    H228502   4.681   3.624   5.223 -0.9882  0.1484  0.9687
 9517TIP3   OH228503   7.524   2.984   5.901 -0.5598  0.0856  0.1641
 9517TIP3    H128504   7.432   2.977   5.926 -0.1012 -2.4212  1.3142
 9517TIP3    H228505   7.546   3.075   5.919 -2.1578  0.1119  2.2862
 9518TIP3   OH228506   5.074   3.311   5.979  0.0034  0.5081  0.4299
 9518TIP3    H128507   5.160   3.349   5.959  0.2189 -0.0712  0.2514
 9518TIP3    H228508   5.093   3.238   6.038 -0.0874 -1.3297 -1.7361
 9519TIP3   OH228509   6.579   3.188   5.365 -0.4810 -0.0725 -0.5641
 9519TIP3    H128510   6.570   3.204   5.271  1.9726 -1.5771 -1.1014
 9519TIP3    H228511   6.565   3.274   5.406 -2.2371  0.4646 -2.2243
 9520TIP3   OH228512   6.781   2.792   5.362 -0.3058  0.1671 -0.3448
 9520TIP3    H128513   6.843   2.719   5.374 -0.4801 -0.0719 -0.8716
 9520TIP3    H228514   6.702   2.763   5.408  0.0331  0.5606  0.5035
 9521TIP3   OH228515   7.463   0.698   6.054 -0.6134  0.3023 -0.4167
 9521TIP3    H128516   7.393   0.762   6.059  0.6785  1.6088  1.3948
 9521TIP3    H228517   7.526   0.736   5.992 -0.2036  0.4302  0.0774
 9522TIP3   OH228518   3.039   5.376   0.807  0.1789 -0.4812 -0.2620
 9522TIP3    H128519   3.019   5.290   0.843 -2.2078 -0.0277 -0.3872
 9522TIP3    H228520   2.954   5.420   0.803  1.0182  1.0241 -2.4431
 9523TIP3   OH228521   5.608   0.761   5.835  0.4364 -0.5094 -0.4680
 9523TIP3    H128522   5.550   0.686   5.846 -0.9094  0.5303 -0.3665
 9523TIP3    H228523   5.672   0.733   5.769  0.2823 -1.9250 -0.0268
 9524TIP3   OH228524   6.829   6.811   0.692 -0.5155  0.1448  0.2555
 9524TIP3    H128525   6.802   6.722   0.715  0.8317 -0.2316  0.4191
 9524TIP3    H228526   6.899   6.832   0.754 -0.3448  1.0566 -0.2318
 9525TIP3   OH228527   7.604   4.609   4.458  0.2441 -0.0160 -0.4060
 9525TIP3    H128528   7.542   4.538   4.473  0.1848  0.5232  2.1413
 9525TIP3    H228529   7.648   4.620   4.543  0.7806  2.4633 -0.9749
 9526TIP3   OH228530   5.845   4.729   6.326 -0.6375 -0.2920  0.0388
 9526TIP3    H128531   5.822   4.705   6.415 -1.9144  2.4097  0.4913
 9526TIP3    H228532   5.939   4.744   6.329 -0.7752  0.4206  1.0989
 9527TIP3   OH228533   0.089   5.008   4.888  0.5204 -0.0423 -0.0743
 9527TIP3    H128534   0.089   5.048   4.975 -0.6462 -1.1835  0.4658
 9527TIP3    H228535   0.015   5.049   4.842 -1.5261 -2.4451  0.9307
 9528TIP3   OH228536   1.131   5.923   1.340  0.3786 -0.0448  0.3651
 9528TIP3    H128537   1.050   5.964   1.312  1.1173  1.1701 -0.0266
 9528TIP3    H228538   1.177   5.902   1.259  0.0857 -1.5130  0.5637
 9529TIP3   OH228539   6.185   0.035   1.269 -0.7473 -0.2528 -0.4019
 9529TIP3    H128540   6.221   0.124   1.267 -0.5891 -0.2418  1.7473
 9529TIP3    H228541   6.099   0.045   1.309 -1.7993 -0.7515 -2.4756
 9530TIP3   OH228542   6.963   4.485   5.305  0.2715 -0.5862  0.4336
 9530TIP3    H128543   6.985   4.525   5.222  0.0302 -1.3780 -0.0206
 9530TIP3    H228544   6.881   4.527   5.331 -0.0122 -0.8176 -0.0706
 9531TIP3   OH228545   4.122   0.203   0.892 -0.3882 -0.5838 -0.3179
 9531TIP3    H128546   4.120   0.298   0.883 -1.0103 -0.5312  0.2798
 9531TIP3    H228547   4.030   0.179   0.904 -0.2923 -1.3230 -1.0475
 9532TIP3   OH228548   6.265   2.763   5.742 -0.2867 -0.6519  0.4028
 9532TIP3    H128549   6.186   2.810   5.717  0.2148 -0.2043 -0.3606
 9532TIP3    H228550   6.334   2.830   5.745  0.3737 -1.2658 -0.4253
 9533TIP3   OH228551   5.155   5.609   6.259 -0.1287 -0.3330 -0.8509
 9533TIP3    H128552   5.103   5.619   6.339  1.0235  1.5484 -0.3158
 9533TIP3    H228553   5.214   5.684   6.259  0.7999 -1.0326 -2.7999
 9534TIP3   OH228554   7.390   7.011   1.854 -0.6089  0.1703  0.0542
 9534TIP3    H128555   7.468   7.035   1.803 -0.3905 -0.1714  0.2280
 9534TIP3    H228556   7.352   7.095   1.879 -0.4959  0.3409 -0.3329
 9535TIP3   OH228557   3.165   4.702   0.043 -0.0266  0.3591  1.1202
 9535TIP3    H128558   3.166   4.675   0.134 -1.8590 -0.2777  0.9713
 9535TIP3    H228559   3.109   4.780   0.041 -0.7700 -0.1825  0.4035
 9536TIP3   OH228560   5.525   0.490   0.631 -0.0230 -0.1944 -0.0383
 9536TIP3    H128561   5.617   0.503   0.653 -0.1901  1.1916 -0.1274
 9536TIP3    H228562   5.477   0.537   0.699 -0.6455 -0.3971 -0.3329
 9537TIP3   OH228563   0.113   2.170   5.821  0.8040 -0.5336  0.3334
 9537TIP3    H128564   0.104   2.075   5.833  1.7762 -0.6661  0.0899
 9537TIP3    H228565   0.048   2.192   5.754  0.1109 -0.9153  0.8748
 9538TIP3   OH228566   7.187   0.601   4.498  0.2891  0.0856  0.3424
 9538TIP3    H128567   7.204   0.693   4.479  1.3977 -0.2860 -0.5400
 9538TIP3    H228568   7.158   0.564   4.414  0.3636 -0.4787  0.5634
 9539TIP3   OH228569   1.346   6.079   1.465 -0.0235  0.0108 -0.1207
 9539TIP3    H128570   1.293   6.112   1.538  0.9199 -0.3888  0.7591
 9539TIP3    H228571   1.283   6.040   1.405 -0.8026  0.2735  0.5134
 9540TIP3   OH228572   0.889   0.049   4.361  0.0226 -0.1073 -0.3196
 9540TIP3    H128573   0.955   0.116   4.381 -1.6072  1.6347 -0.5697
 9540TIP3    H228574   0.888   0.045   4.265  1.5974 -2.0534 -0.2868
 9541TIP3   OH228575   7.411   3.213   6.038 -0.6423  0.0944 -0.0400
 9541TIP3    H128576   7.352   3.288   6.042  0.5827  1.1447 -1.2549
 9541TIP3    H228577   7.418   3.184   6.129 -1.9813  0.7609  0.2924
 9542TIP3   OH228578   0.386   3.793   5.320 -0.1086  0.2305 -0.1208
 9542TIP3    H128579   0.337   3.869   5.354  0.9060  1.1887 -0.7574
 9542TIP3    H228580   0.360   3.721   5.377 -2.2444  0.7134 -0.4316
 9543TIP3   OH228581   7.763   6.981   1.024 -0.1980 -0.4514  0.2160
 9543TIP3    H128582   7.776   7.048   1.091  0.0484  0.2701 -0.5496
 9543TIP3    H228583   7.848   6.973   0.981 -0.6748 -0.0464 -0.8067
 9544TIP3   OH228584   2.746   7.057   5.509  0.5747 -0.2771  0.2581
 9544TIP3    H128585   2.671   6.998   5.519  0.7080 -0.7520 -1.4428
 9544TIP3    H228586   2.802   7.036   5.584 -0.7083 -0.3121  1.2332
 9545TIP3   OH228587   0.620   4.507   1.010 -0.4461 -0.1752  0.4393
 9545TIP3    H128588   0.533   4.531   0.977  0.2413 -0.4210 -1.6547
 9545TIP3    H228589   0.679   4.527   0.937  1.1773 -0.5937  1.6170
 9546TIP3   OH228590   7.030   3.142   4.534 -0.4584  0.3318 -0.4317
 9546TIP3    H128591   6.952   3.173   4.488  0.2951  2.5107 -0.2973
 9546TIP3    H228592   7.100   3.149   4.469  0.4969  2.8845  0.8260
 9547TIP3   OH228593   0.031   3.979   6.122  0.4005 -0.5469 -0.1393
 9547TIP3    H128594   0.081   3.977   6.204  0.9728  3.3831 -0.2980
 9547TIP3    H228595  -0.059   3.997   6.148  0.6646  1.1698 -0.3873
 9548TIP3   OH228596   2.032   4.717   0.984 -0.5172  0.1626  0.2646
 9548TIP3    H128597   2.002   4.785   1.043 -0.7271  0.9910 -0.7821
 9548TIP3    H228598   1.994   4.739   0.899  2.7194  1.0773 -1.0428
 9549TIP3   OH228599   2.497   6.635   1.346  0.0973  0.8625 -0.2716
 9549TIP3    H128600   2.436   6.699   1.381 -1.7227 -0.9650  0.0182
 9549TIP3    H228601   2.558   6.618   1.417  0.7099  2.4003 -0.4184
 9550TIP3   OH228602   5.218   3.498   4.588 -0.5372 -0.7498  0.2923
 9550TIP3    H128603   5.179   3.498   4.501 -0.7418 -0.0121  0.3866
 9550TIP3    H228604   5.266   3.415   4.592 -1.0948 -1.1056 -0.2645
 9551TIP3   OH228605   2.355   5.800   0.201  0.6516 -0.2483 -0.4161
 9551TIP3    H128606   2.349   5.741   0.126 -1.5873 -0.5925  0.0015
 9551TIP3    H228607   2.360   5.743   0.277 -0.1933  0.0864 -0.1005
 9552TIP3   OH228608   0.530   2.626   5.888  0.1757 -0.0002 -0.1711
 9552TIP3    H128609   0.434   2.633   5.885  0.3046  1.6419 -1.4246
 9552TIP3    H228610   0.547   2.566   5.960 -1.8106 -0.4637 -0.0446
 9553TIP3   OH228611   0.527   3.170   5.318 -0.1800  0.2648 -0.5455
 9553TIP3    H128612   0.548   3.086   5.275  0.8089  0.7708 -1.0707
 9553TIP3    H228613   0.483   3.145   5.399  3.1845 -0.8847  0.9858
 9554TIP3   OH228614   4.059   0.371   0.495 -0.5071  0.3909  0.0570
 9554TIP3    H128615   4.058   0.280   0.524 -0.8023 -0.5392 -2.7087
 9554TIP3    H228616   3.978   0.407   0.531  0.0311 -0.1535  1.9080
 9555TIP3   OH228617   0.120   1.237   5.141 -0.2518 -0.3817  0.1997
 9555TIP3    H128618   0.097   1.242   5.048  0.0745  0.4975  0.1625
 9555TIP3    H228619   0.139   1.144   5.156  0.1525 -0.4531 -0.7193
 9556TIP3   OH228620   0.435   4.275   5.765  0.3531 -0.1567 -0.2727
 9556TIP3    H128621   0.345   4.307   5.770 -0.3892 -2.3070  0.6928
 9556TIP3    H228622   0.478   4.335   5.704 -1.2431  1.9786  0.6428
 9557TIP3   OH228623   7.495   3.282   5.740  0.0678 -0.6306  0.7543
 9557TIP3    H128624   7.469   3.305   5.829 -2.4247 -1.1721  0.2085
 9557TIP3    H228625   7.547   3.357   5.710 -0.0500  0.0646  2.2488
 9558TIP3   OH228626   4.859   0.215   1.297  0.0529 -0.9392 -0.2211
 9558TIP3    H128627   4.894   0.295   1.337 -0.4597 -1.6751  1.7815
 9558TIP3    H228628   4.920   0.195   1.226  0.9815  0.4527  0.1567
 9559TIP3   OH228629   4.997   0.454   2.025 -0.5140  0.0502  0.0203
 9559TIP3    H128630   4.981   0.361   2.009  0.3718  0.2138 -1.9709
 9559TIP3    H228631   4.915   0.497   2.001 -0.4932 -0.0979 -0.3206
 9560TIP3   OH228632   4.570   1.453   0.381  0.3108  0.4093 -0.2841
 9560TIP3    H128633   4.502   1.400   0.423 -0.5977  1.4037 -0.5025
 9560TIP3    H228634   4.651   1.424   0.423 -0.3815  0.1119  0.8788
 9561TIP3   OH228635   1.214   3.043   6.373 -1.0207 -0.1028 -0.2002
 9561TIP3    H128636   1.256   3.083   6.450 -1.7564  1.8974 -0.8109
 9561TIP3    H228637   1.161   2.973   6.409  0.7183 -0.9169  0.8562
 9562TIP3   OH228638   3.378   0.064   1.299  0.0657 -0.4342 -0.0700
 9562TIP3    H128639   3.420   0.150   1.292 -0.7283 -0.1146 -1.1343
 9562TIP3    H228640   3.344   0.060   1.388  2.5715 -0.8092  0.8876
 9563TIP3   OH228641   6.593   4.463   3.842  0.4873  0.0104 -0.4095
 9563TIP3    H128642   6.619   4.407   3.769  1.1360  1.7733 -1.5673
 9563TIP3    H228643   6.675   4.490   3.882  0.2601  1.2684 -0.7586
 9564TIP3   OH228644   0.364   3.173   5.735  0.3671  0.5707 -0.3745
 9564TIP3    H128645   0.418   3.113   5.787  1.2228  0.1105 -1.7495
 9564TIP3    H228646   0.331   3.119   5.663 -0.9205  1.1551 -0.2303
 9565TIP3   OH228647   0.489   3.519   4.619  0.2220 -0.1311 -0.0431
 9565TIP3    H128648   0.525   3.605   4.642  0.7402  0.2641 -2.2299
 9565TIP3    H228649   0.530   3.459   4.681  1.9499  0.8326 -0.2133
 9566TIP3   OH228650   3.521   0.972   0.770 -0.4699 -0.2197 -0.0249
 9566TIP3    H128651   3.567   0.932   0.844 -0.0927 -1.2395 -0.7878
 9566TIP3    H228652   3.510   1.064   0.794  1.0485 -0.1983  0.6196
 9567TIP3   OH228653   2.673   6.218   0.136 -0.0801 -0.2946 -0.9345
 9567TIP3    H128654   2.578   6.208   0.131  0.2120 -3.3466 -1.3150
 9567TIP3    H228655   2.691   6.233   0.229 -0.7234 -2.8250 -0.3614
 9568TIP3   OH228656   1.802   2.006   6.121  0.2297  0.2051 -0.6635
 9568TIP3    H128657   1.763   1.962   6.196  1.6563  0.1531  0.0687
 9568TIP3    H228658   1.823   1.935   6.060 -1.0617  0.2609 -1.1925
 9569TIP3   OH228659   3.762   0.570   0.221  0.4332 -0.2604 -0.2691
 9569TIP3    H128660   3.816   0.495   0.243  0.6967 -0.3542 -1.2131
 9569TIP3    H228661   3.804   0.609   0.144 -0.4632  0.0482 -0.6153
 9570TIP3   OH228662   4.505   0.462   0.987 -0.8158 -0.2903 -0.9212
 9570TIP3    H128663   4.565   0.399   1.025 -2.9694 -0.9544  1.5162
 9570TIP3    H228664   4.559   0.539   0.967  0.8034 -0.8494  1.2432
 9571TIP3   OH228665   1.291   2.829   5.932  0.4154 -0.6660  0.2798
 9571TIP3    H128666   1.196   2.837   5.923  0.4401 -1.4004 -0.7830
 9571TIP3    H228667   1.306   2.826   6.026 -0.3685  2.1845  0.5447
 9572TIP3   OH228668   0.215   2.549   5.047 -0.1968  0.0725  0.3500
 9572TIP3    H128669   0.223   2.540   4.952 -0.3421  4.2345 -0.1594
 9572TIP3    H228670   0.304   2.568   5.077 -0.7286  2.6692  0.4517
 9573TIP3   OH228671   1.576   3.796   3.794  0.3039  0.3067 -0.6142
 9573TIP3    H128672   1.569   3.701   3.806  1.1532  0.4164  0.8786
 9573TIP3    H228673   1.491   3.822   3.759  0.0350 -0.9916 -0.9586
 9574TIP3   OH228674   2.717   5.710   5.210 -0.2723 -0.2123 -0.3774
 9574TIP3    H128675   2.681   5.682   5.294  2.7250  0.7601  1.2998
 9574TIP3    H228676   2.643   5.749   5.164 -1.9535 -0.6982  1.8493
 9575TIP3   OH228677   1.517   5.477   1.068 -0.5632 -0.5331 -0.1290
 9575TIP3    H128678   1.609   5.462   1.045 -0.6222  0.2133 -0.9110
 9575TIP3    H228679   1.476   5.391   1.061 -0.1555 -0.6714 -0.9175
 9576TIP3   OH228680   3.431   5.472   0.569 -0.1237 -0.3842  0.3481
 9576TIP3    H128681   3.496   5.505   0.631 -1.3676  2.0010  0.4598
 9576TIP3    H228682   3.475   5.474   0.484  0.5384 -0.5652  0.6861
 9577TIP3   OH228683   1.114   3.096   4.462  0.2029  0.5661  0.1081
 9577TIP3    H128684   1.206   3.071   4.462 -0.6037 -2.6212 -0.5735
 9577TIP3    H228685   1.092   3.106   4.555  1.4138  2.2124  0.2412
 9578TIP3   OH228686   0.444   4.299   5.456  0.0606  0.4010 -0.2833
 9578TIP3    H128687   0.403   4.213   5.462  1.1923 -0.1014  0.6457
 9578TIP3    H228688   0.530   4.281   5.416 -0.1957  1.2764 -1.2388
 9579TIP3   OH228689   1.526   6.842   0.098 -0.0085 -1.0245 -0.3599
 9579TIP3    H128690   1.539   6.907   0.028  0.3226 -0.4330  0.2496
 9579TIP3    H228691   1.584   6.870   0.168 -1.6010 -0.6180  0.8400
 9580TIP3   OH228692   0.376   1.230   4.163  0.1371  0.3541 -0.2754
 9580TIP3    H128693   0.359   1.299   4.100 -1.2640  0.2927  0.0228
 9580TIP3    H228694   0.409   1.157   4.111  1.2610  1.1164 -0.6374
 9581TIP3   OH228695   3.936   6.319   0.413  0.0145 -0.3916  0.2109
 9581TIP3    H128696   3.968   6.333   0.324 -0.8042 -1.1608 -0.2169
 9581TIP3    H228697   3.954   6.226   0.430  0.2252 -0.2296  0.8717
 9582TIP3   OH228698   7.613   1.194   0.725  0.4475 -0.1123  0.7084
 9582TIP3    H128699   7.632   1.122   0.665  1.5680  1.1781 -0.5430
 9582TIP3    H228700   7.594   1.152   0.809  0.7990 -1.8659 -0.0784
 9583TIP3   OH228701   4.854   0.214   2.293 -0.3096 -0.4575  0.4302
 9583TIP3    H128702   4.797   0.286   2.266  0.5899  0.3688  0.6951
 9583TIP3    H228703   4.794   0.141   2.309 -1.1668  0.0272 -0.4952
 9584TIP3   OH228704   5.496   1.584   1.019 -0.2184  0.2752  0.2532
 9584TIP3    H128705   5.551   1.645   0.971  1.0093 -0.4157  0.7589
 9584TIP3    H228706   5.546   1.502   1.020 -1.4496 -0.4925  0.3293
 9585TIP3   OH228707   1.636   1.782   5.208 -0.4868  0.1769 -0.6153
 9585TIP3    H128708   1.661   1.875   5.208 -0.3136  0.1862  2.7508
 9585TIP3    H228709   1.544   1.782   5.181  0.0221  1.1452 -2.4162
 9586TIP3   OH228710   2.706   5.708   0.098 -0.1093  0.2878 -0.1178
 9586TIP3    H128711   2.641   5.664   0.044 -0.1715  0.5672 -0.2750
 9586TIP3    H228712   2.728   5.788   0.049  1.1364 -0.3278 -0.5853
 9587TIP3   OH228713   3.456   6.735   0.037  0.4736  0.0958  0.1203
 9587TIP3    H128714   3.381   6.691  -0.004  0.6559  0.0138 -0.1229
 9587TIP3    H228715   3.532   6.688   0.004  0.6662  0.5408 -0.0698
 9588TIP3   OH228716   0.135   3.494   4.419  0.2280 -0.6381  0.3151
 9588TIP3    H128717   0.165   3.491   4.510  1.2761 -3.3226 -0.0615
 9588TIP3    H228718   0.040   3.495   4.425  0.2945  1.7026  1.4487
 9589TIP3   OH228719   1.000   1.760   4.435  0.4481 -0.6274 -0.5188
 9589TIP3    H128720   0.926   1.709   4.470 -0.4610  0.4054 -0.9074
 9589TIP3    H228721   1.066   1.694   4.413  0.0811 -1.4832  0.8595
 9590TIP3   OH228722   1.461   2.812   5.700  0.3464  0.0987  0.4477
 9590TIP3    H128723   1.414   2.815   5.783  0.8547 -2.5506  0.8734
 9590TIP3    H228724   1.550   2.841   5.722  0.8211 -1.8109  1.1091
 9591TIP3   OH228725   1.573   3.475   3.818  0.4368  0.1325 -0.3910
 9591TIP3    H128726   1.587   3.420   3.741  1.3032  0.8853 -0.7879
 9591TIP3    H228727   1.660   3.510   3.838 -0.1560  1.5916 -0.3225
 9592TIP3   OH228728   1.620   6.494   2.652 -0.1772  0.0293 -0.5076
 9592TIP3    H128729   1.547   6.481   2.714 -0.3996  0.2075 -0.7301
 9592TIP3    H228730   1.668   6.412   2.654  0.2763  0.3063  0.5061
 9593TIP3   OH228731   6.038   4.258   6.145  0.1542  0.4283 -0.3076
 9593TIP3    H128732   6.102   4.225   6.082 -0.0752  0.1024 -0.3732
 9593TIP3    H228733   5.987   4.322   6.096 -0.9975 -0.9185 -0.8800
 9594TIP3   OH228734   1.999   4.507   5.979  0.2011  0.4037  0.0786
 9594TIP3    H128735   1.944   4.523   6.056  0.3368  2.1158 -0.1566
 9594TIP3    H228736   2.088   4.525   6.009  0.2718  0.9065 -0.4185
 9595TIP3   OH228737   3.795   6.326   1.635  0.1118 -0.6965 -0.4935
 9595TIP3    H128738   3.831   6.275   1.708  2.2662  0.6486 -0.5663
 9595TIP3    H228739   3.848   6.300   1.560  1.0808  1.4276 -0.5816
 9596TIP3   OH228740   1.207   6.285   3.291  0.0723  0.4593  0.3389
 9596TIP3    H128741   1.132   6.288   3.232 -0.2397 -1.4849  0.5920
 9596TIP3    H228742   1.230   6.377   3.306 -1.2821  1.0263 -0.9621
 9597TIP3   OH228743   3.935   0.364   0.240  0.5346 -0.5209 -0.1925
 9597TIP3    H128744   4.013   0.373   0.185  1.4171  0.2786  1.1448
 9597TIP3    H228745   3.963   0.394   0.326 -0.6492 -2.3591  0.8696
 9598TIP3   OH228746   3.966   1.428   0.045  0.1362 -0.6920 -0.2975
 9598TIP3    H128747   3.991   1.481  -0.030 -1.1696 -0.0829 -0.3224
 9598TIP3    H228748   3.910   1.359   0.008  1.2699 -1.7089 -0.1714
 9599TIP3   OH228749   0.361   2.865   4.907 -0.0226 -0.4254 -0.8038
 9599TIP3    H128750   0.386   2.939   4.963  0.9179 -1.9321  0.8149
 9599TIP3    H228751   0.294   2.901   4.848 -1.5975  1.0156  1.7778
 9600TIP3   OH228752   3.829   1.185   0.277  0.0036 -0.1221 -0.3498
 9600TIP3    H128753   3.853   1.215   0.189  1.3519 -0.9331 -0.2676
 9600TIP3    H228754   3.910   1.148   0.312 -0.5844  0.0137  1.1602
 9601TIP3   OH228755   7.216   4.130   3.609  1.1265  0.5835  0.2553
 9601TIP3    H128756   7.198   4.134   3.515 -0.0543 -0.2510  0.4283
 9601TIP3    H228757   7.243   4.219   3.633  0.7403  0.9691 -0.7299
 9602TIP3   OH228758   7.458   4.596   5.436 -0.4819 -0.4682  0.0166
 9602TIP3    H128759   7.363   4.584   5.437 -1.2837  4.5559 -1.3324
 9602TIP3    H228760   7.474   4.669   5.496  2.3727 -0.3119 -0.8490
 9603TIP3   OH228761   4.350   6.093   1.123 -0.5123 -0.0412 -0.2220
 9603TIP3    H128762   4.369   6.137   1.040  1.3579  0.6392  0.5373
 9603TIP3    H228763   4.345   6.164   1.187 -1.7172 -0.5816  0.2885
 9604TIP3   OH228764   0.897   4.027   3.681  0.1469 -0.0128  0.4154
 9604TIP3    H128765   0.973   3.976   3.654 -1.2850 -2.0438  0.0384
 9604TIP3    H228766   0.880   3.998   3.771  0.3000  1.0059  0.7680
 9605TIP3   OH228767   4.934   1.791   0.510 -0.0695  0.3408  0.3568
 9605TIP3    H128768   4.880   1.865   0.483  0.0942  0.6670  0.9155
 9605TIP3    H228769   4.972   1.818   0.594 -0.9265 -0.8341  1.1442
 9606TIP3   OH228770   0.265   6.284   5.635  0.5985  0.0971 -0.2027
 9606TIP3    H128771   0.190   6.343   5.648  1.0229  0.6597 -0.3166
 9606TIP3    H228772   0.248   6.211   5.695  0.6229  0.8509  0.7422
 9607TIP3   OH228773   4.543   1.421   0.112 -0.1698  0.3114 -0.2841
 9607TIP3    H128774   4.604   1.350   0.090  0.6707  0.3093  1.9268
 9607TIP3    H228775   4.563   1.442   0.203 -0.2188  3.5926 -0.9684
 9608TIP3   OH228776   4.205   2.386   2.933 -0.2839  0.8920 -0.4325
 9608TIP3    H128777   4.237   2.428   2.853 -0.2748 -0.4254 -1.1256
 9608TIP3    H228778   4.255   2.306   2.941 -0.8120  0.6410  0.4950
 9609TIP3   OH228779   6.069   1.301   0.531  0.0949  0.0334  0.8156
 9609TIP3    H128780   6.161   1.308   0.506  0.1081 -0.8465  0.5969
 9609TIP3    H228781   6.027   1.380   0.494  0.4403 -0.3933 -0.5080
 9610TIP3   OH228782   4.982   6.002   0.998 -0.3282  0.1075 -0.1020
 9610TIP3    H128783   5.067   6.021   1.037 -0.9020  0.4152  0.9978
 9610TIP3    H228784   4.996   5.922   0.948  0.3329 -0.4793  1.0056
 9611TIP3   OH228785   6.350   0.915   0.965  0.4199 -0.1908  0.7894
 9611TIP3    H128786   6.314   0.827   0.954 -2.1830  0.7421  1.2879
 9611TIP3    H228787   6.273   0.970   0.982  2.1489  1.9099  2.1315
 9612TIP3   OH228788   4.203   1.514   1.020 -0.1184 -0.9249  0.5798
 9612TIP3    H128789   4.156   1.440   0.981 -0.6584 -0.0586 -0.4324
 9612TIP3    H228790   4.135   1.573   1.052  0.2901 -0.1704  0.0785
 9613TIP3   OH228791   3.539   4.782   5.696  0.0418  0.0891  0.8310
 9613TIP3    H128792   3.530   4.690   5.721  0.6217 -0.1006  0.3416
 9613TIP3    H228793   3.451   4.818   5.707  0.3793  0.1455  3.6807
 9614TIP3   OH228794   2.645   4.276   6.027  0.1251 -0.6689  0.0759
 9614TIP3    H128795   2.691   4.233   6.099 -0.1037  0.2528  0.7724
 9614TIP3    H228796   2.711   4.287   5.959  1.0142  0.8939  1.1723
 9615TIP3   OH228797   7.651   0.382   0.779 -0.0513 -0.2732 -0.0421
 9615TIP3    H128798   7.693   0.323   0.716  0.9241  1.3680 -0.9363
 9615TIP3    H228799   7.563   0.396   0.743 -0.1577 -0.8663 -0.0231
 9616TIP3   OH228800   5.618   4.237   5.147 -0.5703  0.2514 -0.0573
 9616TIP3    H128801   5.580   4.241   5.059 -2.9535 -0.8113  0.8588
 9616TIP3    H228802   5.542   4.233   5.205  0.9697  0.3647  2.0182
 9617TIP3   OH228803   3.992   6.580   0.501 -0.3846  0.1950 -0.1452
 9617TIP3    H128804   4.015   6.579   0.593  0.6780  1.3756 -0.3854
 9617TIP3    H228805   3.961   6.491   0.483 -0.8358  0.0300  1.3883
 9618TIP3   OH228806   7.532   2.288   1.454  0.2184 -0.2158 -0.1131
 9618TIP3    H128807   7.529   2.296   1.358  1.0658  0.0658 -0.1232
 9618TIP3    H228808   7.536   2.194   1.470 -0.7700 -0.2975 -0.3213
 9619TIP3   OH228809   5.151   0.705   0.264 -0.8354  0.8002  0.1164
 9619TIP3    H128810   5.099   0.709   0.344 -0.6593  2.2308  0.1642
 9619TIP3    H228811   5.090   0.729   0.195 -1.1443 -1.0203 -0.2771
 9620TIP3   OH228812   0.042   4.580   5.667 -0.1294 -0.0201  0.6961
 9620TIP3    H128813   0.042   4.627   5.584 -0.8732 -0.6149  0.3446
 9620TIP3    H228814   0.122   4.528   5.666 -0.5835 -0.7280 -0.0756
 9621TIP3   OH228815   3.579   7.086   0.492 -0.2352  0.0426  0.0558
 9621TIP3    H128816   3.631   7.084   0.411  1.0540  0.6856  0.8656
 9621TIP3    H228817   3.619   7.020   0.548 -1.0084 -0.2548  0.2741
 9622TIP3   OH228818   4.709   2.252   0.765 -0.3427  0.1706  0.4859
 9622TIP3    H128819   4.772   2.273   0.696 -2.2403  0.2512 -1.2747
 9622TIP3    H228820   4.730   2.161   0.788  0.8868  0.4314  0.4551
 9623TIP3   OH228821   6.624   0.708   1.579  0.3577  0.9345 -0.3344
 9623TIP3    H128822   6.540   0.755   1.588  0.4561  1.4453 -1.8566
 9623TIP3    H228823   6.602   0.617   1.598  0.0704  1.4925  2.2309
 9624TIP3   OH228824   7.242   2.961   0.717 -0.0750  0.5639 -0.1763
 9624TIP3    H128825   7.197   2.877   0.722  0.2835  0.3350 -0.6495
 9624TIP3    H228826   7.184   3.017   0.666 -0.2058  0.5243 -0.0682
 9625TIP3   OH228827   4.774   2.477   0.501  0.4386  0.0847 -0.7479
 9625TIP3    H128828   4.710   2.421   0.458 -2.3404  1.3083  1.5963
 9625TIP3    H228829   4.832   2.416   0.547 -0.8064 -0.9873 -0.5577
 9626TIP3   OH228830   1.308   5.186   5.087 -0.2140 -0.4205  0.0083
 9626TIP3    H128831   1.279   5.128   5.016  0.5371  1.0618 -1.5234
 9626TIP3    H228832   1.396   5.214   5.061 -0.0890  0.4424  1.3361
 9627TIP3   OH228833   1.417   1.455   0.913  0.2045  0.5848 -0.4919
 9627TIP3    H128834   1.343   1.399   0.938 -0.3562  0.8909 -1.4525
 9627TIP3    H228835   1.381   1.543   0.911  0.8590  0.8697  0.0774
 9628TIP3   OH228836   0.267   5.666   5.322  0.7379  0.0288  0.2495
 9628TIP3    H128837   0.324   5.610   5.269  0.3557  0.9150 -1.1234
 9628TIP3    H228838   0.311   5.750   5.324 -0.3350  0.6237 -0.5321
 9629TIP3   OH228839   4.445   7.352   0.643  0.6075 -0.3879  0.4833
 9629TIP3    H128840   4.449   7.447   0.657  1.9778 -0.1729 -1.2163
 9629TIP3    H228841   4.404   7.342   0.557 -1.9736 -1.4564  1.7830
 9630TIP3   OH228842   4.377   1.949   0.771  0.0889 -0.0672  0.2473
 9630TIP3    H128843   4.297   1.906   0.801  0.0703 -0.6463 -0.5979
 9630TIP3    H228844   4.447   1.914   0.826 -0.3019  0.8076  1.3144
 9631TIP3   OH228845   0.196   3.281   5.939  0.6475  0.2508 -0.5844
 9631TIP3    H128846   0.242   3.213   5.890  0.0196  0.5175 -1.5662
 9631TIP3    H228847   0.153   3.334   5.871 -0.8064  0.2217  0.3107
 9632TIP3   OH228848   4.389   1.265   0.845 -0.0416 -0.0048  0.3042
 9632TIP3    H128849   4.410   1.226   0.930  0.5606 -0.2626  0.0428
 9632TIP3    H228850   4.417   1.199   0.781 -1.5955 -0.3237 -0.0594
 9633TIP3   OH228851   7.224   4.395   4.934  0.9952  0.2435  0.0025
 9633TIP3    H128852   7.319   4.408   4.933  1.1343 -0.4920  2.0994
 9633TIP3    H228853   7.211   4.310   4.891  1.2766  0.3439 -0.2836
 9634TIP3   OH228854   6.268   1.531   1.457  0.0068 -0.7528  0.1715
 9634TIP3    H128855   6.347   1.483   1.433  0.6186  1.3285 -2.0933
 9634TIP3    H228856   6.296   1.622   1.467 -2.2267  0.1755 -1.5340
 9635TIP3   OH228857   0.877   4.218   5.894 -0.3198 -0.1761  0.3727
 9635TIP3    H128858   0.802   4.277   5.908 -1.1752 -1.3924  0.9490
 9635TIP3    H228859   0.838   4.132   5.884  1.1232 -1.0991  2.4572
 9636TIP3   OH228860   6.474   1.091   0.204  0.1164 -0.0498 -1.1509
 9636TIP3    H128861   6.412   1.120   0.138 -2.1088  2.3731  1.8763
 9636TIP3    H228862   6.428   1.022   0.253  0.6506  0.1633 -0.3286
 9637TIP3   OH228863   4.565   7.148   1.807  0.1349 -0.3914  0.1811
 9637TIP3    H128864   4.623   7.076   1.832  0.9635  0.0544 -0.4134
 9637TIP3    H228865   4.519   7.171   1.887  1.0265 -0.5445  0.7464
 9638TIP3   OH228866   7.436   4.326   6.154 -0.3132 -0.0690  0.0415
 9638TIP3    H128867   7.525   4.338   6.120 -0.5210 -0.0132 -0.4942
 9638TIP3    H228868   7.395   4.266   6.092 -1.0730  0.9599 -0.4714
 9639TIP3   OH228869   3.529   1.373   0.673  0.2762 -0.1596  0.1469
 9639TIP3    H128870   3.508   1.343   0.585 -0.8766 -2.3668  1.1288
 9639TIP3    H228871   3.625   1.370   0.678  0.3017 -0.8118 -0.7578
 9640TIP3   OH228872   5.394   1.161   1.564  0.1126 -0.1319  0.6973
 9640TIP3    H128873   5.421   1.069   1.564 -1.0787 -0.5100 -0.1047
 9640TIP3    H228874   5.300   1.158   1.542  0.1565  1.2949  0.2364
 9641TIP3   OH228875   0.928   3.287   4.948 -0.2153  0.1418 -0.5976
 9641TIP3    H128876   0.899   3.201   4.981 -0.6363  0.4920 -0.0489
 9641TIP3    H228877   0.850   3.341   4.949  0.2136  0.7626 -0.1888
 9642TIP3   OH228878   6.312   1.256   0.449  0.5410  0.2604  0.9668
 9642TIP3    H128879   6.365   1.176   0.448 -0.2560 -0.2934  1.7112
 9642TIP3    H228880   6.365   1.321   0.405  1.4893 -0.5075  0.9634
 9643TIP3   OH228881   3.799   2.329   1.037 -0.0171 -0.2217 -0.2199
 9643TIP3    H128882   3.810   2.251   0.983 -1.3390 -0.8082  0.3242
 9643TIP3    H228883   3.888   2.358   1.056  0.4812 -1.3749 -0.7434
 9644TIP3   OH228884   6.837   3.054   5.846  0.4069  0.5850  0.1424
 9644TIP3    H128885   6.827   3.117   5.774 -1.6188 -0.0535 -0.1750
 9644TIP3    H228886   6.931   3.049   5.860  0.7264  2.1359 -1.2158
 9645TIP3   OH228887   3.237   7.304   0.425 -0.3508  0.2130  0.1862
 9645TIP3    H128888   3.166   7.240   0.437  1.9405 -2.5346 -0.4954
 9645TIP3    H228889   3.299   7.285   0.496  1.5569  0.0149 -1.5060
 9646TIP3   OH228890   2.891   7.104   1.574  0.2526 -0.4202 -0.4432
 9646TIP3    H128891   2.816   7.057   1.538  1.0197 -1.7088 -0.4056
 9646TIP3    H228892   2.961   7.089   1.509  0.9199 -0.5853  0.3048
 9647TIP3   OH228893   1.390   2.386   0.236 -0.5225  0.3692  0.3021
 9647TIP3    H128894   1.357   2.465   0.278  0.3303  0.8864 -0.0054
 9647TIP3    H228895   1.314   2.348   0.192 -0.2779  2.6789 -2.2078
 9648TIP3   OH228896   1.937   4.880   3.966  0.5261  0.1986 -0.2274
 9648TIP3    H128897   1.948   4.839   3.880  0.4816  0.5782 -0.4160
 9648TIP3    H228898   2.026   4.884   4.002  0.6261  0.5946 -0.5147
 9649TIP3   OH228899   0.222   0.308   0.583  0.3088 -0.0743  0.1037
 9649TIP3    H128900   0.306   0.288   0.542  0.1577  1.5252 -1.0207
 9649TIP3    H228901   0.158   0.261   0.530  0.5028 -1.4804  1.0989
 9650TIP3   OH228902   3.518   2.115   0.767 -0.5320  0.0431  0.2839
 9650TIP3    H128903   3.479   2.202   0.767 -0.7977 -0.0601  2.1305
 9650TIP3    H228904   3.534   2.096   0.674 -0.5080  2.0242 -0.1376
 9651TIP3   OH228905   6.804   1.236   5.900 -0.7447  0.1584  0.1091
 9651TIP3    H128906   6.861   1.306   5.869 -1.1207  0.7837  0.8212
 9651TIP3    H228907   6.773   1.193   5.820 -1.5830  1.6586 -0.3800
 9652TIP3   OH228908   1.896   7.217   1.616  0.4643 -0.3604  0.4428
 9652TIP3    H128909   1.933   7.143   1.664  1.0173  0.8352  1.8976
 9652TIP3    H228910   1.817   7.182   1.575  0.4814 -1.6444  1.4673
 9653TIP3   OH228911   2.033   4.526   4.347  0.2000  0.0976  0.1010
 9653TIP3    H128912   1.944   4.531   4.314 -0.0864  1.7266  1.0521
 9653TIP3    H228913   2.024   4.538   4.442  1.3920 -0.1689  0.2542
 9654TIP3   OH228914   0.439   4.259   6.058  0.0807  0.3298  0.2502
 9654TIP3    H128915   0.491   4.181   6.081 -2.1027 -0.7910  1.5816
 9654TIP3    H228916   0.441   4.312   6.138 -0.4787  0.4764  0.1632
 9655TIP3   OH228917   6.199   3.996   4.977  0.2960  0.6070  0.0305
 9655TIP3    H128918   6.281   4.018   4.932  0.3173  1.3135  0.4110
 9655TIP3    H228919   6.189   4.064   5.043  0.0234 -0.1701  0.7887
 9656TIP3   OH228920   5.978   1.002   2.511 -0.2590  0.2001 -0.0776
 9656TIP3    H128921   5.927   0.949   2.572 -0.2311  2.0548  1.6044
 9656TIP3    H228922   6.052   1.034   2.563  0.7660  0.3025 -1.5814
 9657TIP3   OH228923   4.394   6.656   1.016  0.3171 -0.3073  0.3840
 9657TIP3    H128924   4.421   6.651   0.924  0.8888 -1.4713  0.6075
 9657TIP3    H228925   4.473   6.634   1.065 -0.2142 -0.5620  1.1353
 9658TIP3   OH228926   5.950   0.746   0.284  0.5058 -0.3014 -0.0024
 9658TIP3    H128927   5.946   0.779   0.373 -0.4319  2.0253 -0.8848
 9658TIP3    H228928   5.893   0.803   0.234 -0.8296 -2.9947 -1.6924
 9659TIP3   OH228929   7.389   3.514   5.937 -0.4223  0.3448  0.1500
 9659TIP3    H128930   7.482   3.530   5.953 -0.0718 -1.1268 -0.3188
 9659TIP3    H228931   7.368   3.570   5.862 -0.2659  1.6775  1.0672
 9660TIP3   OH228932   5.056   1.417   1.789  0.2029 -0.2112  0.2842
 9660TIP3    H128933   5.026   1.398   1.878 -1.0128  0.3603  0.0002
 9660TIP3    H228934   5.117   1.346   1.770  0.5002 -0.3257  1.5846
 9661TIP3   OH228935   1.026   3.048   3.356 -0.0097  0.8022 -0.0083
 9661TIP3    H128936   0.932   3.069   3.357 -0.2970 -0.3832  1.9044
 9661TIP3    H228937   1.069   3.129   3.330 -1.6748  0.8246 -2.8717
 9662TIP3   OH228938   5.514   0.888   1.967 -0.3605  0.3486 -0.8110
 9662TIP3    H128939   5.526   0.920   2.057 -1.8570  1.3861 -0.9546
 9662TIP3    H228940   5.535   0.964   1.912 -1.0255  0.2055 -1.2692
 9663TIP3   OH228941   7.855   4.672   5.905  0.2810  0.3915 -0.4195
 9663TIP3    H128942   7.770   4.645   5.940  0.6816  0.6417  0.7903
 9663TIP3    H228943   7.867   4.618   5.827 -0.7810  0.0239 -0.3411
 9664TIP3   OH228944   5.427   5.919   0.752  0.3212  0.7671  0.1557
 9664TIP3    H128945   5.445   5.833   0.714 -0.0174  1.0188 -0.5731
 9664TIP3    H228946   5.332   5.922   0.760  0.4586 -0.0976  2.9243
 9665TIP3   OH228947   0.911   5.281   6.064  0.0794 -0.3710 -1.0647
 9665TIP3    H128948   0.874   5.319   6.144 -0.2720 -1.1676 -0.8352
 9665TIP3    H228949   1.003   5.265   6.085  0.3993  1.0130 -1.4109
 9666TIP3   OH228950   3.038   4.131   6.044  0.1350 -0.1076 -0.1959
 9666TIP3    H128951   3.106   4.069   6.070  0.6005  1.3278  2.1439
 9666TIP3    H228952   3.085   4.197   5.993  0.2262  0.0849  0.1382
 9667TIP3   OH228953   0.196   2.784   0.509  0.1691  0.4346  0.3787
 9667TIP3    H128954   0.241   2.769   0.592  0.8030  0.5107  0.0504
 9667TIP3    H228955   0.146   2.704   0.493  1.6944 -0.4220 -0.2014
 9668TIP3   OH228956   4.474   3.507   6.330  0.0216 -0.2492 -0.7527
 9668TIP3    H128957   4.409   3.573   6.351  0.0819  0.5063 -2.8236
 9668TIP3    H228958   4.485   3.512   6.235  2.2340 -1.1588 -0.5998
 9669TIP3   OH228959   6.165   2.014   2.229 -0.2723 -0.2132 -0.4025
 9669TIP3    H128960   6.102   1.968   2.284  1.0404 -0.6063  0.8046
 9669TIP3    H228961   6.131   2.003   2.140 -1.5994 -0.8968  0.1695
 9670TIP3   OH228962   6.248   4.171   5.997 -0.4768 -0.2108 -0.2134
 9670TIP3    H128963   6.194   4.135   5.927 -2.8775  2.9626 -0.1262
 9670TIP3    H228964   6.327   4.201   5.953 -0.3850 -1.4965 -0.9597
 9671TIP3   OH228965   3.142   6.994   0.960  0.2519  0.1745 -0.9234
 9671TIP3    H128966   3.175   7.081   0.939 -0.9611  0.7256 -0.5284
 9671TIP3    H228967   3.086   7.006   1.036 -0.2663 -0.8845 -1.1190
 9672TIP3   OH228968   2.748   4.592   4.997  0.5095  0.8961 -0.4935
 9672TIP3    H128969   2.798   4.515   4.972 -1.7468 -0.9391  0.4380
 9672TIP3    H228970   2.800   4.633   5.066 -0.2044 -2.1584  1.9828
 9673TIP3   OH228971   5.104   0.841   1.341  0.4107  0.6475 -0.4091
 9673TIP3    H128972   5.040   0.892   1.292  0.0558  1.2078  0.6428
 9673TIP3    H228973   5.109   0.758   1.293 -2.8840 -0.3354  0.8206
 9674TIP3   OH228974   4.934   2.605   1.288 -0.5147 -0.2729  0.3164
 9674TIP3    H128975   4.886   2.650   1.219 -0.4780  0.0579  0.5034
 9674TIP3    H228976   4.916   2.656   1.367  1.9561  1.1964 -0.0136
 9675TIP3   OH228977   4.338   7.426   1.413 -0.0379 -0.0853  0.2020
 9675TIP3    H128978   4.254   7.388   1.439 -0.4912 -0.7942 -2.2119
 9675TIP3    H228979   4.347   7.406   1.320  2.3922  0.7791  0.1921
 9676TIP3   OH228980   7.403   5.586   6.370  0.1930  1.1501  0.0473
 9676TIP3    H128981   7.333   5.531   6.405  0.5851  1.5382  1.4871
 9676TIP3    H228982   7.358   5.659   6.327 -0.3226 -0.0882 -1.5661
 9677TIP3   OH228983   7.714   5.034   4.108  0.0837 -0.0808 -0.4380
 9677TIP3    H128984   7.675   5.070   4.028  2.0782 -1.0662 -1.8925
 9677TIP3    H228985   7.675   4.948   4.117 -1.4175  0.6898  0.6220
 9678TIP3   OH228986   2.678   0.748   0.365 -0.6194 -0.3023 -0.2264
 9678TIP3    H128987   2.709   0.800   0.291  0.3400  1.1726  1.1527
 9678TIP3    H228988   2.745   0.680   0.376 -0.3654 -0.0557 -0.2418
 9679TIP3   OH228989   6.968   6.781   5.844  0.0086 -0.0830  0.1041
 9679TIP3    H128990   6.974   6.832   5.924  1.2632 -1.0886  0.6632
 9679TIP3    H228991   6.874   6.780   5.823 -0.0202  2.7673 -0.1562
 9680TIP3   OH228992   7.798   5.632   4.809 -0.0166 -0.1115 -0.5769
 9680TIP3    H128993   7.749   5.684   4.872  0.7864 -0.6995  0.5513
 9680TIP3    H228994   7.828   5.695   4.744 -0.4704  0.5647 -0.1425
 9681TIP3   OH228995   4.448   2.700   3.487 -0.5016 -0.0985  1.0601
 9681TIP3    H128996   4.501   2.731   3.560  1.3563  0.2497 -0.3951
 9681TIP3    H228997   4.471   2.607   3.477  0.3351  0.2035  0.0390
 9682TIP3   OH228998   4.196   7.015   0.291  0.0936  0.0288  0.2254
 9682TIP3    H128999   4.205   6.932   0.337  1.2429  0.5103  0.8743
 9682TIP3    H229000   4.271   7.018   0.232 -0.2192  0.3821 -0.1523
 9683TIP3   OH229001   4.501   3.530   0.918 -0.5718  0.0585 -0.4737
 9683TIP3    H129002   4.541   3.471   0.853  0.2398  0.4744 -0.3603
 9683TIP3    H229003   4.462   3.471   0.982  2.0792 -0.4284  0.7903
 9684TIP3   OH229004   5.700   1.097   0.358  0.0549  0.4027  0.4135
 9684TIP3    H129005   5.619   1.060   0.393  1.2183 -1.5269  1.1907
 9684TIP3    H229006   5.734   1.028   0.301  0.8095  1.4754 -0.4549
 9685TIP3   OH229007   0.367   2.036   0.432  0.5176 -0.7488  0.2069
 9685TIP3    H129008   0.390   2.020   0.524  1.5465 -0.0639  0.0707
 9685TIP3    H229009   0.277   2.005   0.425 -0.5925  1.8412  2.1864
 9686TIP3   OH229010   1.420   2.939   5.143  0.4606 -0.1957 -1.0908
 9686TIP3    H129011   1.485   2.885   5.189 -0.8563  0.2270  1.3012
 9686TIP3    H229012   1.470   2.980   5.072  2.6536 -0.4259  0.2661
 9687TIP3   OH229013   5.439   0.981   0.148  0.4073  0.6496 -0.2115
 9687TIP3    H129014   5.370   1.043   0.124 -0.4861 -0.1152  0.3259
 9687TIP3    H229015   5.431   0.911   0.083  1.9487  1.4853 -1.3137
 9688TIP3   OH229016   6.312   4.945   6.182  0.4951 -0.7813 -0.2525
 9688TIP3    H129017   6.346   4.979   6.100  0.1716  0.3152  0.0493
 9688TIP3    H229018   6.267   4.864   6.158 -0.6601  0.1563 -1.3544
 9689TIP3   OH229019   4.627   7.329   2.304 -0.1705 -0.1046 -0.5932
 9689TIP3    H129020   4.553   7.341   2.245 -0.1212 -0.5244 -0.7425
 9689TIP3    H229021   4.658   7.418   2.323 -3.4423  0.4071  2.9645
 9690TIP3   OH229022   1.925   5.012   5.881 -0.0295  0.1815 -0.5429
 9690TIP3    H129023   1.901   4.961   5.958 -0.4295 -0.3570 -1.0137
 9690TIP3    H229024   2.006   5.056   5.905 -0.6925  0.8382  0.5480
 9691TIP3   OH229025   2.410   1.535   0.841 -0.2587  0.4167  0.0666
 9691TIP3    H129026   2.346   1.566   0.777 -1.7137 -3.1932 -0.3339
 9691TIP3    H229027   2.360   1.524   0.922 -0.2039 -2.3430 -0.2258
 9692TIP3   OH229028   2.734   5.266   5.338 -0.3983  0.0586 -0.1712
 9692TIP3    H129029   2.665   5.295   5.397  0.1111 -0.5554  0.7413
 9692TIP3    H229030   2.702   5.184   5.301 -1.0597  0.8408 -1.3715
 9693TIP3   OH229031   0.702   1.197   1.762  0.5310 -0.0477 -0.3304
 9693TIP3    H129032   0.657   1.170   1.842 -0.3677 -0.0328 -0.8342
 9693TIP3    H229033   0.735   1.285   1.781 -1.7889  0.9604 -0.8255
 9694TIP3   OH229034   3.441   7.241   0.219  0.4483  0.0836  0.1710
 9694TIP3    H129035   3.429   7.146   0.215  0.1342  0.1508 -0.7219
 9694TIP3    H229036   3.383   7.270   0.289  0.5099 -0.3803  0.4141
 9695TIP3   OH229037   5.976   2.124   1.448 -0.1560 -0.0943  0.3488
 9695TIP3    H129038   5.995   2.058   1.381 -1.4294  1.8019 -1.9232
 9695TIP3    H229039   5.916   2.079   1.509  1.1210 -1.8745  0.3307
 9696TIP3   OH229040   7.796   3.716   5.379  0.4333 -0.5844  0.4101
 9696TIP3    H129041   7.833   3.661   5.448  0.2720 -0.6862  0.4136
 9696TIP3    H229042   7.716   3.672   5.353  1.4743 -1.5818 -1.1919
 9697TIP3   OH229043   3.795   1.062   1.647 -0.0313 -0.2091 -0.0751
 9697TIP3    H129044   3.819   0.979   1.688  0.6145 -0.3673 -0.7592
 9697TIP3    H229045   3.762   1.038   1.561  2.2451  0.3778 -1.1532
 9698TIP3   OH229046   3.230   3.985   4.953 -0.3943 -0.4359 -0.2575
 9698TIP3    H129047   3.154   3.948   4.907  0.2947 -0.3300 -1.5122
 9698TIP3    H229048   3.243   4.070   4.912 -0.3845  0.0921  0.8407
 9699TIP3   OH229049   3.358   2.987   0.787 -0.1603  1.0960  0.9166
 9699TIP3    H129050   3.407   2.928   0.731 -1.6037 -0.1954  0.9987
 9699TIP3    H229051   3.385   2.965   0.876 -0.8647  0.3843  0.9613
 9700TIP3   OH229052   4.855   0.016   0.328  0.8285 -0.0604 -0.0054
 9700TIP3    H129053   4.781   0.038   0.384  1.2307  1.5049 -0.0574
 9700TIP3    H229054   4.857   0.085   0.262  2.1538 -0.2452 -0.1736
 9701TIP3   OH229055   7.280   2.830   0.286  0.3093  0.3944 -0.5332
 9701TIP3    H129056   7.248   2.871   0.205  1.1574  2.3468  0.1061
 9701TIP3    H229057   7.289   2.902   0.348  0.9434 -0.9020  0.9068
 9702TIP3   OH229058   5.389   0.782   0.358  0.8504  0.0974 -0.0994
 9702TIP3    H129059   5.305   0.750   0.324  1.0060  0.3144 -0.6847
 9702TIP3    H229060   5.417   0.848   0.295  0.7818  1.0310  0.8218
 9703TIP3   OH229061   0.817   3.717   4.908 -0.2393  0.1669 -0.3384
 9703TIP3    H129062   0.899   3.671   4.926 -0.4965 -0.2586 -0.2292
 9703TIP3    H229063   0.794   3.691   4.819  0.1750  0.9562 -0.6848
 9704TIP3   OH229064   0.155   0.735   0.864  0.2467 -0.8697 -0.2183
 9704TIP3    H129065   0.201   0.653   0.884 -0.9910 -1.6211 -0.3874
 9704TIP3    H229066   0.076   0.707   0.818 -0.1719  0.4321 -0.3033
 9705TIP3   OH229067   1.742   4.370   4.019 -0.3507  0.0389  0.5212
 9705TIP3    H129068   1.803   4.440   3.994  0.1202  0.2366  2.1960
 9705TIP3    H229069   1.797   4.304   4.061 -1.1813 -0.1014  1.4003
 9706TIP3   OH229070   0.895   4.299   5.503 -0.3233 -0.0705 -0.0157
 9706TIP3    H129071   0.861   4.316   5.415 -0.1494 -2.1866 -0.5336
 9706TIP3    H229072   0.931   4.210   5.497  1.3397  0.4666  1.7062
 9707TIP3   OH229073   6.993   1.763   0.264 -0.4435 -0.5916  0.3555
 9707TIP3    H129074   7.054   1.695   0.235 -2.2354 -2.0238 -0.1941
 9707TIP3    H229075   6.984   1.821   0.189 -0.5017 -0.9310  0.0987
 9708TIP3   OH229076   5.357   2.234   0.745 -0.3787 -0.3196 -0.7685
 9708TIP3    H129077   5.266   2.204   0.742 -0.5829 -0.1041  1.6149
 9708TIP3    H229078   5.354   2.325   0.717 -1.0018 -0.1623 -0.2196
 9709TIP3   OH229079   1.338   2.837   6.207 -0.4873  0.0215 -0.3838
 9709TIP3    H129080   1.301   2.906   6.263  0.1428  1.3494 -1.5568
 9709TIP3    H229081   1.427   2.825   6.240 -0.1561  0.7199 -0.9945
 9710TIP3   OH229082   1.130   3.339   5.389 -0.1002  0.2150  0.1464
 9710TIP3    H129083   1.193   3.411   5.396 -0.0403  0.1710  0.0627
 9710TIP3    H229084   1.068   3.354   5.460 -1.6540  1.8833 -1.4794
 9711TIP3   OH229085   7.343   3.044   0.445 -0.3629 -0.1245  0.4522
 9711TIP3    H129086   7.273   3.034   0.509  0.6221 -1.2372  1.3807
 9711TIP3    H229087   7.337   3.135   0.416 -1.2490  0.1943  1.6199
 9712TIP3   OH229088   6.149   7.145   5.996  0.3082 -0.4395  0.3902
 9712TIP3    H129089   6.086   7.074   6.005  0.4487 -0.2709  2.9535
 9712TIP3    H229090   6.219   7.123   6.057  1.0108  1.2255  0.2161
 9713TIP3   OH229091   5.858   0.979   2.927 -0.4616 -0.0045  0.1558
 9713TIP3    H129092   5.902   1.064   2.927  0.0187 -0.2420 -1.2536
 9713TIP3    H229093   5.776   0.994   2.880  0.2696 -0.6261 -1.3506
 9714TIP3   OH229094   7.575   1.266   1.771  0.3790 -0.0855 -0.1896
 9714TIP3    H129095   7.569   1.199   1.703 -0.9475  0.7179 -0.8917
 9714TIP3    H229096   7.660   1.251   1.812  1.3793 -0.3484 -2.2863
 9715TIP3   OH229097   4.657   1.147   1.299  0.5368  0.3841 -0.5831
 9715TIP3    H129098   4.610   1.215   1.348 -2.6022 -1.4125 -0.9534
 9715TIP3    H229099   4.681   1.189   1.217  2.0054  2.1378  0.7119
 9716TIP3   OH229100   2.978   4.206   5.194 -0.1616  0.2660  0.1674
 9716TIP3    H129101   2.956   4.113   5.196  1.3480 -0.0812  0.9181
 9716TIP3    H229102   3.016   4.224   5.280  0.1041  1.4478 -0.1828
 9717TIP3   OH229103   5.338   7.441   1.167 -0.0037  0.1454  1.0107
 9717TIP3    H129104   5.398   7.515   1.165  0.1717  0.0000  0.7283
 9717TIP3    H229105   5.389   7.369   1.205  0.1503 -0.0996  0.3552
 9718TIP3   OH229106   6.987   0.267   1.425  0.2213 -0.0649 -0.1569
 9718TIP3    H129107   6.941   0.184   1.436  2.2392 -1.0617  1.1755
 9718TIP3    H229108   6.941   0.328   1.483 -0.4087 -0.6260 -0.0656
 9719TIP3   OH229109   1.100   5.014   3.852  0.2957  0.0037 -0.4735
 9719TIP3    H129110   1.163   4.946   3.826  0.5026  0.1539 -0.3728
 9719TIP3    H229111   1.061   5.043   3.769  0.9831  0.5116 -0.6261
 9720TIP3   OH229112   0.570   4.341   4.879 -0.0204 -0.2020  0.5009
 9720TIP3    H129113   0.550   4.390   4.799 -0.2360  0.6979  1.0966
 9720TIP3    H229114   0.665   4.337   4.881 -0.0109 -0.1476  0.2442
 9721TIP3   OH229115   2.822   6.236   5.672  0.3738  0.0225 -0.4745
 9721TIP3    H129116   2.869   6.154   5.658  2.7556  1.3781 -0.7760
 9721TIP3    H229117   2.750   6.234   5.610 -0.5241 -2.4980  0.5807
 9722TIP3   OH229118   0.137   3.987   6.397  0.9602  0.1544  0.1063
 9722TIP3    H129119   0.189   4.044   6.453 -0.1292  1.8066 -0.5104
 9722TIP3    H229120   0.050   3.987   6.438  0.6868 -0.2236 -0.4714
 9723TIP3   OH229121   2.000   5.967   4.760  0.4228  0.4009 -0.6491
 9723TIP3    H129122   1.995   6.053   4.718 -0.5489 -0.1624 -1.7292
 9723TIP3    H229123   1.939   5.913   4.709 -0.2558 -0.4845  1.0768
 9724TIP3   OH229124   1.906   3.538   5.677  0.1614 -0.5169 -0.2914
 9724TIP3    H129125   1.816   3.529   5.647 -0.2808  0.5072  0.6830
 9724TIP3    H229126   1.900   3.592   5.756  1.7546  0.7104 -0.9699
 9725TIP3   OH229127   2.721   6.603   0.773  0.0822 -0.9590  0.2362
 9725TIP3    H129128   2.747   6.690   0.744 -0.1938 -1.5404 -1.8495
 9725TIP3    H229129   2.629   6.596   0.746 -0.3848 -1.2933  1.8654
 9726TIP3   OH229130   7.370   0.127   0.770  0.0630 -0.1609  0.3980
 9726TIP3    H129131   7.446   0.069   0.769  0.4885  0.3943 -0.6968
 9726TIP3    H229132   7.373   0.172   0.686 -2.3840 -1.2863 -0.3383
 9727TIP3   OH229133   2.651   5.053   5.683 -0.1587  0.5141  0.5525
 9727TIP3    H129134   2.651   5.009   5.769  0.8353 -1.5456 -0.4686
 9727TIP3    H229135   2.729   5.108   5.684  0.0435  0.2261  0.8403
 9728TIP3   OH229136   1.627   4.753   5.437 -0.1648  0.2927 -0.7199
 9728TIP3    H129137   1.708   4.763   5.488  0.3271 -0.6765 -1.2973
 9728TIP3    H229138   1.634   4.819   5.369 -0.3097  0.8597 -0.1851
 9729TIP3   OH229139   6.448   0.107   0.530 -0.1945  0.0136  0.2241
 9729TIP3    H129140   6.446   0.200   0.550 -0.1439  0.0544  0.0438
 9729TIP3    H229141   6.473   0.103   0.438 -2.5499 -0.0795 -0.4538
 9730TIP3   OH229142   0.841   2.774   6.074 -0.0973 -0.2874 -0.1235
 9730TIP3    H129143   0.784   2.798   6.146  0.5034 -2.6515  1.1902
 9730TIP3    H229144   0.894   2.702   6.108 -0.0150 -1.6738 -2.9993
 9731TIP3   OH229145   0.074   2.046   0.768  0.2785  0.2898 -0.7798
 9731TIP3    H129146   0.094   2.135   0.740 -1.9472  0.5985 -1.4566
 9731TIP3    H229147  -0.002   2.055   0.825  1.1789 -0.9947  0.6918
 9732TIP3   OH229148   6.942   2.651   0.146 -0.6298 -0.4735 -0.2630
 9732TIP3    H129149   6.964   2.594   0.219 -0.6926 -0.0811  0.0646
 9732TIP3    H229150   6.958   2.598   0.068 -0.7500 -0.9590  0.0408
 9733TIP3   OH229151   7.343   1.502   0.026  0.3249 -0.1067 -0.2854
 9733TIP3    H129152   7.333   1.591   0.062  0.1814  0.1378 -0.9152
 9733TIP3    H229153   7.417   1.465   0.074  1.3560  0.8998 -1.0705
 9734TIP3   OH229154   4.779   1.496   1.037  0.2744 -0.5469  0.5512
 9734TIP3    H129155   4.741   1.408   1.039  1.1547 -0.9115  1.7954
 9734TIP3    H229156   4.786   1.521   1.129 -1.5564  1.5395  0.1664
 9735TIP3   OH229157   7.750   0.196   0.209  0.3665 -0.4278 -0.2624
 9735TIP3    H129158   7.722   0.109   0.179 -0.2607  0.2501 -1.7202
 9735TIP3    H229159   7.694   0.257   0.160  2.1352  0.8553 -0.7334
 9736TIP3   OH229160   2.521   4.846   4.190 -0.5218  0.0376  0.1824
 9736TIP3    H129161   2.581   4.781   4.226 -0.0397  0.1676 -0.3734
 9736TIP3    H229162   2.458   4.861   4.260 -1.5401 -2.1317 -0.2421
 9737TIP3   OH229163   0.622   5.206   5.078  0.1752 -0.2194 -0.0970
 9737TIP3    H129164   0.682   5.192   5.004  0.8478  1.0361  0.1914
 9737TIP3    H229165   0.544   5.245   5.039 -0.4523 -1.8033 -0.4667
 9738TIP3   OH229166   3.604   6.656   1.144 -0.5098 -0.2200  0.3220
 9738TIP3    H129167   3.641   6.664   1.057 -0.1707 -0.6417  0.4241
 9738TIP3    H229168   3.519   6.612   1.130 -1.8659  2.4375 -0.1131
 9739TIP3   OH229169   1.697   5.127   5.512 -0.8464 -0.0739 -0.3996
 9739TIP3    H129170   1.761   5.169   5.569 -0.2343 -1.2374 -0.2002
 9739TIP3    H229171   1.625   5.102   5.571 -1.3799  1.0244 -0.5839
 9740TIP3   OH229172   1.477   3.877   5.601 -0.5441 -0.1329 -0.1446
 9740TIP3    H129173   1.460   3.883   5.507 -1.1234  0.5437  0.0053
 9740TIP3    H229174   1.541   3.945   5.618  0.5551 -1.1185 -0.2787
 9741TIP3   OH229175   6.917   1.944   1.372  0.3072  0.1532 -0.2861
 9741TIP3    H129176   6.830   1.938   1.333  0.4648 -2.0928 -0.3472
 9741TIP3    H229177   6.901   1.983   1.458 -0.6884  0.2212 -0.4858
 9742TIP3   OH229178   5.205   2.472   2.190 -0.3299  0.0914  0.3410
 9742TIP3    H129179   5.284   2.450   2.141 -1.6181 -0.3745 -1.5853
 9742TIP3    H229180   5.216   2.565   2.212  0.4405  0.2063 -0.4936
 9743TIP3   OH229181   6.177   2.363   0.410  0.7593  0.2300 -0.2600
 9743TIP3    H129182   6.084   2.386   0.414  0.7836  0.0045  1.9331
 9743TIP3    H229183   6.200   2.373   0.317 -2.0476 -2.0670 -1.2623
 9744TIP3   OH229184   3.816   3.043   1.263  0.5441 -0.4699 -0.1425
 9744TIP3    H129185   3.843   3.119   1.211  0.5704  0.1336  0.7326
 9744TIP3    H229186   3.897   2.993   1.276  0.4778 -0.7765 -0.9385
 9745TIP3   OH229187   4.251   6.648   0.664  0.1749 -0.4334 -0.3588
 9745TIP3    H129188   4.341   6.615   0.668  0.3093 -0.3513 -2.3636
 9745TIP3    H229189   4.209   6.610   0.742  1.9777 -0.3000  0.7187
 9746TIP3   OH229190   2.646   3.578   6.396 -0.3754 -0.1826 -0.9718
 9746TIP3    H129191   2.585   3.576   6.470 -0.6278  0.5125 -1.1551
 9746TIP3    H229192   2.705   3.651   6.415  0.1027 -0.5448 -1.0357
 9747TIP3   OH229193   1.450   4.800   5.107  0.4277 -0.3536  0.2037
 9747TIP3    H129194   1.413   4.847   5.182  1.5545  0.6441  0.1417
 9747TIP3    H229195   1.543   4.819   5.110  0.5564 -0.7160 -1.1596
 9748TIP3   OH229196   6.236   1.465   1.808 -0.5777  0.0121  0.0541
 9748TIP3    H129197   6.144   1.488   1.822 -0.4474 -0.0324  0.9779
 9748TIP3    H229198   6.259   1.511   1.727 -1.5770 -0.4632 -0.5034
 9749TIP3   OH229199   5.638   0.914   0.984 -0.0196 -0.4058  0.0159
 9749TIP3    H129200   5.647   0.933   1.078  0.9682 -0.1395 -0.1274
 9749TIP3    H229201   5.550   0.876   0.976  0.3330 -1.5101  1.2274
 9750TIP3   OH229202   5.530   1.034   2.214  0.1012 -0.3548 -0.1486
 9750TIP3    H129203   5.555   1.123   2.240 -1.3468 -0.2984  1.1035
 9750TIP3    H229204   5.439   1.041   2.186 -0.5949 -1.7361  1.6483
 9751TIP3   OH229205   1.386   3.817   6.017  0.0223  0.2148 -0.0867
 9751TIP3    H129206   1.428   3.903   6.009  0.8931 -0.1777  0.1946
 9751TIP3    H229207   1.316   3.830   6.081  0.6200  0.5428  0.4998
 9752TIP3   OH229208   7.128   2.716   0.674  0.9330  0.1449 -0.3075
 9752TIP3    H129209   7.132   2.624   0.701 -0.1264 -0.1368 -1.0699
 9752TIP3    H229210   7.190   2.722   0.601  0.6435 -0.0882 -0.5769
 9753TIP3   OH229211   6.826   0.715   0.549 -0.0629 -0.6989  0.3927
 9753TIP3    H129212   6.859   0.766   0.474  1.1232 -0.0085  1.3579
 9753TIP3    H229213   6.854   0.626   0.532  0.7483 -0.4324  0.3117
 9754TIP3   OH229214   3.161   7.038   1.476 -0.3161 -0.1138 -0.1488
 9754TIP3    H129215   3.142   7.097   1.403 -1.4349 -0.2971 -0.0137
 9754TIP3    H229216   3.255   7.050   1.492 -0.1790  0.3646 -1.2290
 9755TIP3   OH229217   1.336   4.803   6.131  0.0786 -0.0116 -0.1859
 9755TIP3    H129218   1.248   4.838   6.145  1.4248  2.2714  3.2153
 9755TIP3    H229219   1.336   4.719   6.177 -0.1168  0.3412  0.4714
 9756TIP3   OH229220   0.312   4.549   4.950 -0.2129 -0.3609 -0.2851
 9756TIP3    H129221   0.388   4.507   4.991  0.7636  1.1350 -0.5262
 9756TIP3    H229222   0.344   4.575   4.863 -0.7333  1.0712 -0.0541
 9757TIP3   OH229223   0.604   5.222   6.292  0.0760 -0.4119  0.2585
 9757TIP3    H129224   0.522   5.208   6.338 -0.3938  1.3786  0.0042
 9757TIP3    H229225   0.639   5.303   6.329  1.5232 -0.9441  0.0845
 9758TIP3   OH229226   7.511   2.340   1.191  0.6231  0.3145 -0.6684
 9758TIP3    H129227   7.486   2.429   1.217  0.0319 -0.1463  0.3568
 9758TIP3    H229228   7.601   2.348   1.159  0.1242  1.5153 -1.8090
 9759TIP3   OH229229   3.537   5.229   4.927 -0.3366  0.1318  0.7098
 9759TIP3    H129230   3.512   5.234   5.020 -1.7083  0.1411  0.3555
 9759TIP3    H229231   3.454   5.214   4.881  0.1813  1.1605 -0.5986
 9760TIP3   OH229232   2.887   3.173   6.397  0.4683 -0.6477  0.5813
 9760TIP3    H129233   2.848   3.105   6.452 -0.0256 -0.6602  0.2187
 9760TIP3    H229234   2.815   3.232   6.377  0.4040 -1.2374 -0.9645
 9761TIP3   OH229235   6.134   7.216   0.276 -0.2314  0.2745 -0.7389
 9761TIP3    H129236   6.165   7.304   0.255  0.9771 -0.1022 -0.5565
 9761TIP3    H229237   6.091   7.186   0.196  1.5791  0.0604 -1.6345
 9762TIP3   OH229238   3.732   5.298   6.185  0.1820  0.1266  0.1152
 9762TIP3    H129239   3.660   5.250   6.144  1.1488 -0.4186 -0.9571
 9762TIP3    H229240   3.803   5.234   6.192  0.4695  0.5767  1.4562
 9763TIP3   OH229241   1.601   5.215   6.261 -0.2217  0.2378 -0.0547
 9763TIP3    H129242   1.541   5.150   6.297  1.5480 -1.2659  0.2373
 9763TIP3    H229243   1.686   5.193   6.299  0.4102  2.7060  0.0185
 9764TIP3   OH229244   2.671   5.076   6.263 -0.7186  0.0096  0.0949
 9764TIP3    H129245   2.739   5.009   6.250 -0.3186  0.9584 -3.1532
 9764TIP3    H229246   2.717   5.148   6.308  0.5375  0.7116 -2.2250
 9765TIP3   OH229247   7.173   1.943   0.576 -0.1282  0.3131  0.3478
 9765TIP3    H129248   7.126   2.001   0.516 -0.5860 -1.7094 -1.3057
 9765TIP3    H229249   7.114   1.932   0.651 -0.0756  1.8759  0.6326
 9766TIP3   OH229250   7.308   1.984   1.628  0.2193  0.0557  0.0306
 9766TIP3    H129251   7.397   2.016   1.645  0.3169  0.5187 -1.2651
 9766TIP3    H229252   7.316   1.889   1.632  0.8388  0.0881 -0.3308
 9767TIP3   OH229253   5.393   6.735   0.408 -0.3195 -0.2080  0.2881
 9767TIP3    H129254   5.443   6.656   0.430 -0.5861 -0.2643  0.6914
 9767TIP3    H229255   5.454   6.807   0.422 -0.9053 -0.1199  2.5906
 9768TIP3   OH229256   1.785   2.093   1.332 -0.5394  0.3981 -0.2395
 9768TIP3    H129257   1.703   2.143   1.341 -0.8677 -0.2935  0.8377
 9768TIP3    H229258   1.807   2.068   1.422  1.1546  1.0259 -0.4686
 9769TIP3   OH229259   1.518   1.728   2.303 -0.3989 -0.3626  0.1778
 9769TIP3    H129260   1.492   1.697   2.216  0.6950 -1.6393  0.2778
 9769TIP3    H229261   1.450   1.790   2.328  0.1177  1.2810 -2.2801
 9770TIP3   OH229262   3.293   5.051   6.254  0.0907 -0.3461 -0.9778
 9770TIP3    H129263   3.348   5.052   6.332  1.2672 -1.3095 -1.7777
 9770TIP3    H229264   3.211   5.092   6.282  1.6218  2.2207 -0.0979
 9771TIP3   OH229265   2.733   6.243   5.938 -0.0052  0.3016  0.0885
 9771TIP3    H129266   2.791   6.249   5.861 -0.2554 -1.9127 -0.3165
 9771TIP3    H229267   2.792   6.238   6.012  0.2861 -0.2625 -0.1821
 9772TIP3   OH229268   5.388   3.261   1.647 -0.1301 -0.3543  0.4346
 9772TIP3    H129269   5.439   3.286   1.724  0.9969  0.7313 -0.6539
 9772TIP3    H229270   5.393   3.337   1.589  0.2488 -1.6953 -1.3331
 9773TIP3   OH229271   0.922   4.937   4.149  0.2409 -0.4478  0.5483
 9773TIP3    H129272   0.935   5.026   4.116  1.8500 -1.4150 -1.5397
 9773TIP3    H229273   0.837   4.911   4.115  0.0059  0.1067  0.7136
 9774TIP3   OH229274   4.163   6.589   5.672  0.0630  0.3510 -0.3434
 9774TIP3    H129275   4.175   6.506   5.718 -1.7249 -0.6977 -1.6997
 9774TIP3    H229276   4.077   6.620   5.699  1.0558  2.2137  0.7987
 9775TIP3   OH229277   3.567   6.982   5.456 -0.0964  0.0292  0.0795
 9775TIP3    H129278   3.480   7.019   5.471  0.3273  0.8188  0.6014
 9775TIP3    H229279   3.593   7.017   5.370 -0.2167 -0.0559  0.0086
 9776TIP3   OH229280   1.549   4.975   4.380 -0.5437 -0.2293 -0.0615
 9776TIP3    H129281   1.478   5.039   4.389 -0.6605 -0.5059  1.1082
 9776TIP3    H229282   1.541   4.943   4.290  0.2570  2.2504 -1.0506
 9777TIP3   OH229283   0.750   1.289   0.456  0.3678  0.0769  0.0272
 9777TIP3    H129284   0.838   1.290   0.419  0.1137 -2.3199 -0.7222
 9777TIP3    H229285   0.760   1.323   0.545  2.1040 -0.5686  0.0880
 9778TIP3   OH229286   0.499   1.797   1.181  0.1137  0.0982  0.0815
 9778TIP3    H129287   0.579   1.814   1.130  0.5797 -0.1928  0.7154
 9778TIP3    H229288   0.444   1.874   1.165  0.9619  0.7995  0.5087
 9779TIP3   OH229289   0.070   6.176   4.359 -0.2265 -0.1251  0.3432
 9779TIP3    H129290   0.157   6.144   4.334 -0.1879  0.0563  0.2421
 9779TIP3    H229291   0.012   6.102   4.343 -0.1696 -0.0769 -0.0963
 9780TIP3   OH229292   6.093   1.327   0.804 -0.4149  0.2447  0.4081
 9780TIP3    H129293   6.121   1.238   0.822  1.1445  0.9976  1.8092
 9780TIP3    H229294   6.056   1.323   0.716 -1.5465 -2.0261  0.9720
 9781TIP3   OH229295   0.318   4.107   0.617  0.3572  0.6145 -0.0524
 9781TIP3    H129296   0.351   4.160   0.690  0.5977 -0.8606  0.9379
 9781TIP3    H229297   0.397   4.078   0.571  0.4092 -1.2140  1.1062
 9782TIP3   OH229298   4.766   4.525   5.512  0.1754 -0.0271  0.5332
 9782TIP3    H129299   4.712   4.493   5.585 -2.0160  1.8654 -0.1751
 9782TIP3    H229300   4.732   4.613   5.494  0.4190 -0.5597 -2.9733
 9783TIP3   OH229301   3.708   0.535   4.060  0.0156  0.4431  0.0538
 9783TIP3    H129302   3.785   0.500   4.105 -0.2830 -0.3526 -0.0503
 9783TIP3    H229303   3.642   0.543   4.128 -0.4390 -0.7709 -0.2411
 9784TIP3   OH229304   0.872   0.575   1.331 -0.0039 -0.3029  0.5774
 9784TIP3    H129305   0.963   0.564   1.359  0.6238  1.3026 -0.7874
 9784TIP3    H229306   0.878   0.600   1.239 -1.7302  2.0463  1.0674
 9785TIP3   OH229307   3.284   6.436   5.493 -0.5072  0.2242 -0.8065
 9785TIP3    H129308   3.298   6.530   5.506 -1.7036  0.0944  1.7587
 9785TIP3    H229309   3.224   6.430   5.419 -0.4324  1.4840 -0.9780
 9786TIP3   OH229310   4.466   4.824   4.806  0.1166  0.2014 -0.3566
 9786TIP3    H129311   4.454   4.733   4.780 -1.3962  0.2143  0.2699
 9786TIP3    H229312   4.541   4.854   4.754  1.8428 -1.9287  0.8220
 9787TIP3   OH229313   4.122   5.239   5.080  0.3757 -0.1778  0.2798
 9787TIP3    H129314   4.136   5.253   5.174  1.7736  0.9278 -0.0807
 9787TIP3    H229315   4.097   5.325   5.046 -0.0542 -0.5584 -0.3762
 9788TIP3   OH229316   3.323   3.878   5.728 -0.3180 -0.3855  1.1910
 9788TIP3    H129317   3.242   3.857   5.683 -0.8797  0.4081  1.8121
 9788TIP3    H229318   3.391   3.871   5.661 -1.0402 -0.0013  0.4173
 9789TIP3   OH229319   2.553   6.504   6.435  0.1354 -0.3707 -0.3380
 9789TIP3    H129320   2.551   6.418   6.393  1.3705 -1.5065  1.8037
 9789TIP3    H229321   2.479   6.502   6.496  0.0459  0.1558 -0.4310
 9790TIP3   OH229322   4.656   5.953   6.370  0.0498  0.6082  0.2718
 9790TIP3    H129323   4.747   5.938   6.395 -0.4676 -0.5567  1.5100
 9790TIP3    H229324   4.641   5.892   6.299  0.1114  0.4938  0.3560
 9791TIP3   OH229325   2.517   2.319   0.618 -0.0757 -0.4316 -0.0419
 9791TIP3    H129326   2.456   2.247   0.632 -1.0344  0.4866  0.5903
 9791TIP3    H229327   2.479   2.393   0.666  1.5213  0.1681  0.3257
 9792TIP3   OH229328   1.600   2.322   0.587  0.1253  0.1397 -0.0470
 9792TIP3    H129329   1.529   2.264   0.616 -0.1528  1.0824  1.2167
 9792TIP3    H229330   1.555   2.397   0.548  0.4399  0.4632  0.2167
 9793TIP3   OH229331   0.321   7.321   6.310 -0.1495  0.3319  0.5206
 9793TIP3    H129332   0.354   7.387   6.249 -0.6458  0.5027  0.4269
 9793TIP3    H229333   0.272   7.260   6.255  0.4371 -0.1996  0.5897
 9794TIP3   OH229334   0.707   3.399   0.568 -0.1675  0.1142 -0.0763
 9794TIP3    H129335   0.801   3.402   0.586 -0.3629 -0.4209  1.0594
 9794TIP3    H229336   0.701   3.390   0.473  0.9414 -0.8151 -0.0662
 9795TIP3   OH229337   2.372   0.403   0.478 -0.2067 -0.2105  0.1672
 9795TIP3    H129338   2.428   0.480   0.472 -0.0709 -0.1551  1.9206
 9795TIP3    H229339   2.397   0.348   0.403  0.2198  1.0862 -0.6422
 9796TIP3   OH229340   4.919   6.799   5.279 -0.3873 -0.1699  0.5753
 9796TIP3    H129341   4.914   6.729   5.213 -3.5398  0.6261 -0.1010
 9796TIP3    H229342   4.939   6.878   5.228 -1.6258  0.2380  0.7093
 9797TIP3   OH229343   2.427   5.885   5.352 -0.3297  0.1827  0.0548
 9797TIP3    H129344   2.334   5.875   5.331  0.3928 -1.9591 -2.3154
 9797TIP3    H229345   2.443   5.822   5.422 -0.3762 -0.5075 -0.5432
 9798TIP3   OH229346   7.153   6.874   0.428  0.3587 -0.1573 -0.2538
 9798TIP3    H129347   7.237   6.889   0.384  0.1054  1.2236 -0.3097
 9798TIP3    H229348   7.118   6.962   0.442  0.0992 -0.5935  2.0754
 9799TIP3   OH229349   7.369   1.265   1.466 -0.0338 -0.1103 -0.0734
 9799TIP3    H129350   7.429   1.230   1.532  0.2853  0.0400 -0.2785
 9799TIP3    H229351   7.283   1.261   1.507  0.2949  0.9680  0.7605
 9800TIP3   OH229352   2.740   2.992   5.337  0.2987 -0.5545  0.4442
 9800TIP3    H129353   2.803   3.000   5.265 -0.6803 -1.9848 -0.5915
 9800TIP3    H229354   2.764   3.063   5.398  2.0742 -0.2686 -0.5562
 9801TIP3   OH229355   3.095   0.623   1.459 -0.1381 -0.1709 -0.0553
 9801TIP3    H129356   3.131   0.705   1.491  0.7360 -0.4741 -0.2573
 9801TIP3    H229357   3.002   0.642   1.442  0.2632  1.0247 -0.9837
 9802TIP3   OH229358   4.749   0.408   4.942 -0.1576  0.6248 -0.1948
 9802TIP3    H129359   4.807   0.460   4.997  0.1158  0.4287 -0.2965
 9802TIP3    H229360   4.701   0.472   4.890 -0.3874  0.8082  0.2451
 9803TIP3   OH229361   1.391   5.560   5.781 -0.1155  0.1819 -0.7017
 9803TIP3    H129362   1.295   5.560   5.782 -0.1065 -0.1832  0.8536
 9803TIP3    H229363   1.414   5.543   5.690 -1.5370 -2.4932 -0.6002
 9804TIP3   OH229364   0.721   0.774   0.737  0.2433  0.0177  0.6784
 9804TIP3    H129365   0.750   0.691   0.774  0.4437  0.8866  2.5349
 9804TIP3    H229366   0.625   0.769   0.739  0.2363 -0.8083 -0.7513
 9805TIP3   OH229367   1.156   6.065   6.166 -0.1124  0.0796 -0.3276
 9805TIP3    H129368   1.085   6.045   6.227  0.7531  0.0591  0.6969
 9805TIP3    H229369   1.167   5.984   6.115  0.3587 -0.5282  0.7240
 9806TIP3   OH229370   7.409   0.627   0.192 -0.3080 -0.5902  0.0137
 9806TIP3    H129371   7.345   0.569   0.150 -0.1481 -1.2725  0.6995
 9806TIP3    H229372   7.491   0.608   0.147 -0.4929 -0.0035 -0.5924
 9807TIP3   OH229373   6.935   5.441   6.431  0.0993  0.3470  0.4245
 9807TIP3    H129374   6.989   5.394   6.495 -2.3737  0.1360  2.4244
 9807TIP3    H229375   6.870   5.377   6.402 -0.5951  1.2909 -0.1453
 9808TIP3   OH229376   5.932   5.868   3.709  0.0236 -0.5169 -0.7340
 9808TIP3    H129377   5.851   5.842   3.664 -0.1129 -0.0890 -0.7347
 9808TIP3    H229378   6.002   5.843   3.648 -0.1968  0.7525 -1.5228
 9809TIP3   OH229379   3.605   3.683   4.399  0.4033  0.3437 -0.1689
 9809TIP3    H129380   3.646   3.652   4.480 -0.2151  0.0639  0.0427
 9809TIP3    H229381   3.583   3.604   4.351  1.3156  0.5231 -0.8956
 9810TIP3   OH229382   1.342   0.860   0.842 -0.3936 -0.1454 -0.0036
 9810TIP3    H129383   1.387   0.790   0.794 -1.1333 -0.8718  0.3547
 9810TIP3    H229384   1.278   0.815   0.897 -1.4792  0.8818 -0.4128
 9811TIP3   OH229385   7.110   1.233   1.581  1.3459 -0.2139  0.5484
 9811TIP3    H129386   7.035   1.286   1.554 -0.1459 -2.6256 -0.3077
 9811TIP3    H229387   7.105   1.231   1.677 -0.0111 -0.7540  0.4828
 9812TIP3   OH229388   0.636   5.852   6.173 -0.6255 -0.4087 -0.1929
 9812TIP3    H129389   0.656   5.886   6.086  1.0970  2.0169  1.0820
 9812TIP3    H229390   0.579   5.917   6.212 -0.0154 -0.6303  1.0998
 9813TIP3   OH229391   0.037   2.300   1.640  0.0509 -0.6271 -0.0674
 9813TIP3    H129392  -0.051   2.338   1.647  0.0843 -0.6108  0.3104
 9813TIP3    H229393   0.096   2.374   1.632  0.1046 -0.5953  0.5431
 9814TIP3   OH229394   5.316   3.847   5.205  0.2640 -0.0898  1.0029
 9814TIP3    H129395   5.224   3.869   5.220 -0.4649 -1.7228 -0.8296
 9814TIP3    H229396   5.344   3.806   5.287 -1.1576 -1.1980  0.9522
 9815TIP3   OH229397   2.878   5.218   3.783  0.6907 -0.4157  0.3532
 9815TIP3    H129398   2.923   5.184   3.860 -1.4232 -1.9167  0.9812
 9815TIP3    H229399   2.873   5.145   3.722  1.5308  0.5060 -0.8440
 9816TIP3   OH229400   4.000   6.341   0.146  0.5363  0.5299 -0.4415
 9816TIP3    H129401   3.944   6.301   0.079 -1.3060  1.4678  0.5156
 9816TIP3    H229402   4.062   6.395   0.096  0.3946 -0.2735 -1.4932
 9817TIP3   OH229403   4.080   3.075   5.064 -0.1257  0.1754  0.0461
 9817TIP3    H129404   4.028   3.089   4.985  0.6609  0.0774 -0.4995
 9817TIP3    H229405   4.102   3.163   5.095 -1.2206  0.2276  0.6891
 9818TIP3   OH229406   1.568   1.621   0.203  0.3832 -0.0042 -0.3634
 9818TIP3    H129407   1.572   1.705   0.157 -1.5748  0.1568 -0.2757
 9818TIP3    H229408   1.651   1.615   0.250  0.8920  1.4809 -1.0625
 9819TIP3   OH229409   6.947   5.514   0.697 -0.6921  0.3774 -0.0414
 9819TIP3    H129410   6.947   5.581   0.766  0.2404 -1.4161  1.7365
 9819TIP3    H229411   7.005   5.446   0.730  0.0463 -0.3708 -2.7744
 9820TIP3   OH229412   4.778   5.031   4.850  0.3714 -0.3786 -0.4360
 9820TIP3    H129413   4.754   5.070   4.934 -0.7391  0.0852 -0.9604
 9820TIP3    H229414   4.839   4.961   4.873  0.2833 -0.0833  0.7354
 9821TIP3   OH229415   0.094   2.595   0.131  0.2835 -0.1968 -0.3075
 9821TIP3    H129416   0.131   2.682   0.138 -0.0075 -0.0490 -0.6337
 9821TIP3    H229417   0.076   2.583   0.038 -1.9084  0.3312  0.0121
 9822TIP3   OH229418   4.271   0.466   0.651 -0.7416  0.0451  0.0867
 9822TIP3    H129419   4.194   0.455   0.595 -0.1878 -3.1659 -0.1537
 9822TIP3    H229420   4.345   0.449   0.593 -0.1105 -1.9723  1.4428
 9823TIP3   OH229421   6.149   7.057   0.672  0.0555  0.0253 -0.4218
 9823TIP3    H129422   6.091   6.989   0.639 -0.1624  0.6559 -1.3479
 9823TIP3    H229423   6.200   7.013   0.741 -0.8493 -0.7703 -0.2452
 9824TIP3   OH229424   0.582   4.611   5.455  0.0731  0.2087  0.6136
 9824TIP3    H129425   0.617   4.540   5.510 -0.8728 -0.4241  0.4069
 9824TIP3    H229426   0.634   4.607   5.375 -1.2313 -1.4765 -0.1602
 9825TIP3   OH229427   2.320   3.962   5.917  0.1381 -0.5024  0.2392
 9825TIP3    H129428   2.238   3.984   5.960  0.0455 -0.3178 -0.0350
 9825TIP3    H229429   2.296   3.945   5.826  0.4062 -0.4325  0.1553
 9826TIP3   OH229430   0.943   3.231   1.368 -0.1438 -0.1317 -0.4663
 9826TIP3    H129431   0.931   3.325   1.380 -0.8510  0.0095 -2.1564
 9826TIP3    H229432   1.032   3.214   1.398 -0.0600  1.0532 -0.0312
 9827TIP3   OH229433   1.622   5.524   5.961 -0.3756 -0.0388  0.4258
 9827TIP3    H129434   1.711   5.504   5.931 -0.6112  1.2734 -1.2076
 9827TIP3    H229435   1.566   5.499   5.888 -1.2086  0.5028  0.8734
 9828TIP3   OH229436   0.104   1.676   5.698 -0.2868  0.1351  0.4302
 9828TIP3    H129437   0.135   1.590   5.670  0.1763  0.9060 -1.5285
 9828TIP3    H229438   0.080   1.720   5.616 -0.7743  1.7644  1.4341
 9829TIP3   OH229439   4.588   4.747   5.474 -0.3808 -0.0922  0.1098
 9829TIP3    H129440   4.514   4.686   5.468  0.1547 -0.7739  0.3353
 9829TIP3    H229441   4.603   4.757   5.568  0.4115 -0.6969  0.0544
 9830TIP3   OH229442   5.310   7.335   1.931 -0.3963  0.3814 -0.0372
 9830TIP3    H129443   5.344   7.252   1.965 -0.5440 -0.1278 -1.0977
 9830TIP3    H229444   5.381   7.369   1.877 -0.5043  0.7289  0.0411
 9831TIP3   OH229445   4.540   3.542   5.743  0.1514 -0.2241  0.1025
 9831TIP3    H129446   4.612   3.488   5.710 -0.2283 -1.2948  1.0060
 9831TIP3    H229447   4.461   3.499   5.710 -0.1588 -0.3396  0.9747
 9832TIP3   OH229448   0.373   0.521   0.896 -0.2857  0.1096  0.6433
 9832TIP3    H129449   0.334   0.436   0.879 -0.6662  0.7671 -2.0767
 9832TIP3    H229450   0.346   0.543   0.985  0.0265 -2.6964  1.4711
 9833TIP3   OH229451   3.184   5.965   6.143  0.3477  0.4107 -0.1234
 9833TIP3    H129452   3.247   6.037   6.149  1.9258 -0.8888 -0.7594
 9833TIP3    H229453   3.236   5.886   6.158 -1.5304 -0.5581  1.4973
 9834TIP3   OH229454   1.127   2.444   0.545  0.9287  0.4043 -0.3954
 9834TIP3    H129455   1.035   2.441   0.520  0.8564  1.8925 -0.3184
 9834TIP3    H229456   1.143   2.359   0.588 -0.5824  0.4385  0.2559
 9835TIP3   OH229457   2.730   5.175   1.144  0.2942  0.6740 -0.2625
 9835TIP3    H129458   2.767   5.087   1.134 -3.1245 -0.8408 -0.2042
 9835TIP3    H229459   2.693   5.176   1.233 -1.1270  1.5740 -0.8461
 9836TIP3   OH229460   4.133   3.371   6.056  0.6811 -0.7493 -0.1200
 9836TIP3    H129461   4.136   3.467   6.057 -1.1938 -0.6801  0.3528
 9836TIP3    H229462   4.167   3.347   5.970  1.8655  0.3104  0.0381
 9837TIP3   OH229463   2.679   3.993   6.392  0.5714 -0.2701 -0.2117
 9837TIP3    H129464   2.587   4.003   6.367  0.8462 -0.4198 -1.2879
 9837TIP3    H229465   2.728   4.035   6.321  1.3000  0.8427  0.9121
 9838TIP3   OH229466   6.122   0.708   6.174 -0.4430  0.1224 -0.7013
 9838TIP3    H129467   6.148   0.664   6.255  0.8120  0.9310 -0.6475
 9838TIP3    H229468   6.163   0.794   6.179 -0.5266  0.2642 -2.1046
 9839TIP3   OH229469   2.164   6.079   5.417  0.1953 -0.3592 -0.0479
 9839TIP3    H129470   2.190   6.087   5.509 -0.0908 -1.5077  0.1318
 9839TIP3    H229471   2.083   6.131   5.411 -0.0488 -0.6701  0.4583
 9840TIP3   OH229472   4.029   4.850   6.012 -0.5498 -0.7097  0.8299
 9840TIP3    H129473   4.044   4.936   5.972 -0.7550 -0.7454  0.6734
 9840TIP3    H229474   4.112   4.829   6.055 -0.6826 -0.1808  1.3515
 9841TIP3   OH229475   3.694   2.192   6.279 -0.4733  0.2548 -0.4643
 9841TIP3    H129476   3.759   2.187   6.210 -1.0812  0.0382 -1.0228
 9841TIP3    H229477   3.727   2.135   6.348  1.1926  2.0896  0.3113
 9842TIP3   OH229478   5.867   1.281   0.251  0.3854  0.2015 -0.3397
 9842TIP3    H129479   5.949   1.234   0.238 -1.3910 -2.5280 -2.1400
 9842TIP3    H229480   5.807   1.215   0.287 -1.6301  1.5757 -1.1042
 9843TIP3   OH229481   4.265   3.603   5.189 -0.5181  0.3067  0.3281
 9843TIP3    H129482   4.340   3.624   5.134 -0.4125 -0.0677  0.3245
 9843TIP3    H229483   4.244   3.512   5.168 -1.2482  0.5430  0.0059
 9844TIP3   OH229484   3.710   6.551   5.698 -0.1635  0.5903  0.3598
 9844TIP3    H129485   3.714   6.484   5.629 -0.6628  1.2259 -0.2955
 9844TIP3    H229486   3.672   6.627   5.655  1.2834  1.6120  0.8607
 9845TIP3   OH229487   1.494   3.495   0.751  0.3081 -0.6356 -0.0078
 9845TIP3    H129488   1.568   3.551   0.725  1.1285 -1.5318  0.3736
 9845TIP3    H229489   1.461   3.536   0.831  1.6219 -1.3264  0.9027
 9846TIP3   OH229490   1.278   6.706   6.044 -0.1757 -0.5120  0.1868
 9846TIP3    H129491   1.210   6.663   6.096 -0.1102 -1.3300 -0.4001
 9846TIP3    H229492   1.283   6.794   6.081 -0.3001 -1.0033  1.4041
 9847TIP3   OH229493   3.855   5.347   5.222 -0.3525 -0.1938  0.2058
 9847TIP3    H129494   3.937   5.317   5.261 -1.0615  0.9384  2.6666
 9847TIP3    H229495   3.882   5.394   5.143  1.2869 -0.7750  0.3935
 9848TIP3   OH229496   0.220   1.546   1.479  0.0408 -0.3204 -0.5931
 9848TIP3    H129497   0.248   1.598   1.554 -3.2501 -0.6357  0.9428
 9848TIP3    H229498   0.222   1.608   1.405 -1.0053  1.2209  0.6320
 9849TIP3   OH229499   2.505   6.941   5.506 -0.0069 -0.2319 -0.8511
 9849TIP3    H129500   2.544   6.873   5.560  0.8252  0.7105 -0.2401
 9849TIP3    H229501   2.447   6.894   5.446 -1.7100 -1.2141  1.5051
 9850TIP3   OH229502   0.484   1.949   0.181  0.0559  0.6999 -0.3159
 9850TIP3    H129503   0.579   1.947   0.173  0.0201 -0.4741 -0.6745
 9850TIP3    H229504   0.467   1.955   0.275  0.5039 -1.4078 -0.0584
 9851TIP3   OH229505   6.999   1.231   0.072 -0.4066 -0.0912 -0.2837
 9851TIP3    H129506   7.030   1.213   0.161 -0.2865  0.3125 -0.2422
 9851TIP3    H229507   6.908   1.202   0.072 -1.0245  1.7655  0.5711
 9852TIP3   OH229508   2.798   5.566   5.527 -0.0395 -0.8067  0.1981
 9852TIP3    H129509   2.871   5.536   5.475  0.8546  0.2374  0.8259
 9852TIP3    H229510   2.792   5.504   5.600  0.1343 -0.9646  0.0743
 9853TIP3   OH229511   6.090   1.129   1.812  0.2440 -0.7527 -0.3691
 9853TIP3    H129512   6.163   1.189   1.831  0.1124 -1.1436  1.5094
 9853TIP3    H229513   6.118   1.082   1.733  1.1165  0.5462 -0.8536
 9854TIP3   OH229514   1.940   0.965   1.772 -0.4846  0.1483 -0.0142
 9854TIP3    H129515   2.031   0.958   1.799 -0.3366  0.5714 -0.3977
 9854TIP3    H229516   1.928   0.892   1.711  0.0573  1.0640 -1.2286
 9855TIP3   OH229517   0.425   6.240   3.257  0.3197 -0.3239  0.5203
 9855TIP3    H129518   0.517   6.255   3.277  0.1754 -1.0116  1.7733
 9855TIP3    H229519   0.378   6.262   3.338 -0.9543  3.0425 -1.0379
 9856TIP3   OH229520   6.744   2.330   0.764 -0.4756  0.4044  0.1084
 9856TIP3    H129521   6.727   2.424   0.769  1.0462  0.6379  1.2318
 9856TIP3    H229522   6.756   2.302   0.855  1.8094 -0.3261 -0.3753
 9857TIP3   OH229523   3.125   4.310   5.853 -0.0100 -0.6625  0.2101
 9857TIP3    H129524   3.137   4.404   5.839  0.0376 -0.7800 -0.5481
 9857TIP3    H229525   3.176   4.269   5.783 -0.8914 -1.2367 -0.0973
 9858TIP3   OH229526   2.904   4.372   6.184  0.2030  0.0636  0.4448
 9858TIP3    H129527   2.949   4.396   6.265  0.0286  2.2090 -0.0663
 9858TIP3    H229528   2.970   4.326   6.132  1.6330  2.5494  0.0014
 9859TIP3   OH229529   5.266   4.611   5.468 -0.0323 -0.4565 -0.1012
 9859TIP3    H129530   5.357   4.629   5.490 -0.1821 -0.3952  0.4768
 9859TIP3    H229531   5.249   4.665   5.391  0.3210 -0.2034 -0.0035
 9860TIP3   OH229532   3.327   3.509   6.113 -0.1303 -0.4896  0.4035
 9860TIP3    H129533   3.251   3.563   6.094  1.9892  2.6452  0.3248
 9860TIP3    H229534   3.342   3.520   6.207 -0.7716 -2.4809  0.7533
 9861TIP3   OH229535   6.396   4.777   3.659 -0.3007 -0.2362 -0.3063
 9861TIP3    H129536   6.392   4.873   3.651  0.4080 -0.2690 -1.1358
 9861TIP3    H229537   6.310   4.753   3.694 -0.8218  0.6204 -0.9587
 9862TIP3   OH229538   0.786   2.241   0.221  0.5507 -0.5983  0.3434
 9862TIP3    H129539   0.703   2.289   0.225  0.4435 -0.5196 -2.1539
 9862TIP3    H229540   0.763   2.153   0.250 -0.6142 -0.8037 -1.1227
 9863TIP3   OH229541   0.887   4.352   3.944 -0.0477  0.1001 -0.2014
 9863TIP3    H129542   0.836   4.285   3.989  0.8426 -1.6685 -1.7529
 9863TIP3    H229543   0.841   4.434   3.962 -0.2208 -0.6601  3.1300
 9864TIP3   OH229544   0.883   1.328  -0.013 -0.0035 -0.3525  0.0099
 9864TIP3    H129545   0.845   1.413   0.011  2.6957  0.6426  0.9318
 9864TIP3    H229546   0.853   1.268   0.055  0.8163  0.6120  1.2279
 9865TIP3   OH229547   1.772   6.110   6.082 -0.4179 -0.3456  0.2109
 9865TIP3    H129548   1.847   6.168   6.095 -0.2740 -0.0934 -1.6117
 9865TIP3    H229549   1.711   6.133   6.153  0.1115  1.2428  0.1609
 9866TIP3   OH229550   2.290   3.893   5.659 -0.2097  0.0370 -0.4931
 9866TIP3    H129551   2.299   3.958   5.590  1.4161  0.0117 -0.3078
 9866TIP3    H229552   2.216   3.839   5.631 -0.0196  0.4682 -1.8419
 9867TIP3   OH229553   5.817   3.075   5.081  0.4317 -0.0628 -0.4602
 9867TIP3    H129554   5.886   3.066   5.015 -0.7048 -1.2255 -1.5131
 9867TIP3    H229555   5.777   3.160   5.062  0.5344 -0.1019 -0.8703
 9868TIP3   OH229556   2.312   6.968   6.095 -0.7346  0.0628  0.1500
 9868TIP3    H129557   2.357   6.923   6.167  1.3220  1.5386 -0.1589
 9868TIP3    H229558   2.292   6.899   6.032 -0.2829 -0.8596  1.0039
 9869TIP3   OH229559   2.605   2.135   3.989  0.5907  0.0462  0.7896
 9869TIP3    H129560   2.546   2.158   3.917  2.1098  0.2826 -0.3929
 9869TIP3    H229561   2.586   2.199   4.057  0.7325  1.2522 -0.2791
 9870TIP3   OH229562   2.522   5.683   6.116  0.4076  0.2724  0.2621
 9870TIP3    H129563   2.542   5.714   6.027 -0.5402  0.0450 -0.0265
 9870TIP3    H229564   2.579   5.607   6.128  0.8942  0.5978  0.0316
 9871TIP3   OH229565   7.292   1.844   2.234  0.5530  0.1212 -0.1273
 9871TIP3    H129566   7.345   1.849   2.154  1.2537  1.1921  0.3782
 9871TIP3    H229567   7.223   1.909   2.221 -1.0050 -1.6704 -1.0210
 9872TIP3   OH229568   1.447   6.874   5.347  0.3454  0.5321  0.4744
 9872TIP3    H129569   1.412   6.957   5.315  0.4143  0.9616  1.4905
 9872TIP3    H229570   1.449   6.884   5.443  1.6349 -0.1176  0.5254
 9873TIP3   OH229571   6.721   0.873   0.767  0.1966 -0.1750 -0.3191
 9873TIP3    H129572   6.712   0.968   0.775  1.5941 -0.0456 -0.1724
 9873TIP3    H229573   6.720   0.856   0.672  0.5318  0.0529 -0.3641
 9874TIP3   OH229574   3.090   3.431   1.032  0.2558 -0.5351 -0.4844
 9874TIP3    H129575   3.178   3.413   0.997  0.5327 -1.4177  0.6233
 9874TIP3    H229576   3.053   3.496   0.972  2.4535  1.4216  0.2158
 9875TIP3   OH229577   2.297   2.715   2.961  0.3111  0.6560 -0.1761
 9875TIP3    H129578   2.306   2.810   2.950 -2.1724  0.9245 -0.0949
 9875TIP3    H229579   2.259   2.684   2.880 -0.3180 -0.0578  0.3842
 9876TIP3   OH229580   6.885   4.060   5.897 -0.2982  0.2397 -0.0824
 9876TIP3    H129581   6.923   4.115   5.828  0.4181 -1.3130 -0.9356
 9876TIP3    H229582   6.955   4.052   5.962 -0.0068 -0.5857 -0.4924
 9877TIP3   OH229583   3.026   4.786   3.755 -0.4803 -0.0031 -0.1272
 9877TIP3    H129584   2.941   4.743   3.745 -1.3812  2.1347 -2.2231
 9877TIP3    H229585   3.009   4.860   3.813  0.7162 -1.4539  2.1526
 9878TIP3   OH229586   2.847   5.592   4.882  0.1501 -0.1146  0.3387
 9878TIP3    H129587   2.864   5.592   4.976 -2.3654 -2.6883  0.8882
 9878TIP3    H229588   2.879   5.507   4.852  0.3698  0.4403 -1.0332
 9879TIP3   OH229589   6.139   1.061   0.630  0.4172  0.0635 -0.7003
 9879TIP3    H129590   6.110   1.139   0.582  1.0007 -0.7346 -2.3864
 9879TIP3    H229591   6.233   1.073   0.642 -0.0522  1.2886  2.2332
 9880TIP3   OH229592   7.363   5.871   5.431  0.0971  0.1871  0.2278
 9880TIP3    H129593   7.299   5.815   5.476 -0.9388  1.0269 -0.1642
 9880TIP3    H229594   7.311   5.944   5.398  1.1996  0.6519 -0.5055
 9881TIP3   OH229595   7.049   1.498   0.198 -0.0094 -0.1446  0.1263
 9881TIP3    H129596   7.099   1.441   0.257  2.0020  0.1956 -1.2156
 9881TIP3    H229597   7.016   1.440   0.130  0.1418 -0.0599 -0.0183
 9882TIP3   OH229598   5.974   0.352   2.322 -0.6589 -0.0719  0.2949
 9882TIP3    H129599   6.064   0.332   2.347 -0.8028 -0.6429  0.3820
 9882TIP3    H229600   5.965   0.317   2.233 -0.4402  1.0574 -0.1669
 9883TIP3   OH229601   0.606   2.354   1.101 -0.2957  0.2770  0.0446
 9883TIP3    H129602   0.684   2.410   1.104 -0.2308  0.2828 -1.5525
 9883TIP3    H229603   0.567   2.363   1.188 -0.0161  2.4619 -0.0144
 9884TIP3   OH229604   3.763   5.663   6.230 -0.5090  1.0039  0.1349
 9884TIP3    H129605   3.851   5.695   6.212 -0.6339  2.2267  1.6482
 9884TIP3    H229606   3.719   5.737   6.273 -1.7585 -0.1583  0.8718
 9885TIP3   OH229607   7.577   2.076   0.198 -0.9090 -0.3542 -0.3798
 9885TIP3    H129608   7.536   2.024   0.130 -2.8716  0.4113  0.1933
 9885TIP3    H229609   7.548   2.166   0.182  0.3111  0.1752  0.2208
 9886TIP3   OH229610   1.629   2.268   3.017  0.0049  0.7270 -0.5768
 9886TIP3    H129611   1.649   2.223   3.099 -0.1308  1.1020 -0.3333
 9886TIP3    H229612   1.693   2.235   2.954  1.4264  1.9583  0.2121
 9887TIP3   OH229613   3.661   5.016   4.039  0.0223  0.4031 -0.2309
 9887TIP3    H129614   3.690   4.983   4.124  0.2893 -1.1399 -0.9035
 9887TIP3    H229615   3.743   5.027   3.989 -0.3351 -1.7709 -1.3583
 9888TIP3   OH229616   2.778   1.415   2.446  0.1634  0.3853  0.1093
 9888TIP3    H129617   2.786   1.344   2.510 -0.1978  1.4266  1.3065
 9888TIP3    H229618   2.733   1.374   2.371  0.3906 -0.7694  0.5929
 9889TIP3   OH229619   1.290   1.340   0.432 -0.1960  0.2347 -0.0963
 9889TIP3    H129620   1.364   1.324   0.373 -0.8609 -2.7823 -0.1712
 9889TIP3    H229621   1.327   1.331   0.520  0.5099  3.4723  0.0198
 9890TIP3   OH229622   0.989   0.707   0.725 -0.4622 -0.0902 -0.4337
 9890TIP3    H129623   1.032   0.680   0.644  0.5050 -0.7437  0.2887
 9890TIP3    H229624   0.912   0.755   0.696  0.0322 -0.0617 -1.7466
 9891TIP3   OH229625   1.086   5.762   6.114  0.3037 -0.0780 -0.6364
 9891TIP3    H129626   1.161   5.711   6.083  0.0241 -0.8595 -0.0582
 9891TIP3    H229627   1.016   5.741   6.052 -0.3060 -1.7808  0.5979
 9892TIP3   OH229628   0.073   4.976   6.016 -0.1382 -0.0955  0.4605
 9892TIP3    H129629   0.070   4.918   5.940 -1.4585  2.8047 -1.7686
 9892TIP3    H229630   0.157   5.021   6.009 -1.1828  1.7530 -0.5360
 9893TIP3   OH229631   0.269   0.951   1.284 -0.0431 -0.1178  0.4276
 9893TIP3    H129632   0.209   0.882   1.311 -1.6880  0.8609 -0.6223
 9893TIP3    H229633   0.248   0.967   1.192  1.8218  0.2653  0.0436
 9894TIP3   OH229634   4.643   4.200   4.796  0.0260 -0.2545  0.2552
 9894TIP3    H129635   4.667   4.289   4.770 -1.1614  0.5770  1.9137
 9894TIP3    H229636   4.719   4.146   4.772  0.4848  1.0835 -1.3506
 9895TIP3   OH229637   1.594   1.397   2.291  0.1676  0.0161  0.3384
 9895TIP3    H129638   1.652   1.447   2.233  1.6438 -1.3472  0.6181
 9895TIP3    H229639   1.635   1.402   2.377 -1.3589  0.9696  1.0350
 9896TIP3   OH229640   2.760   4.784   4.774 -0.2212  0.0336  0.5390
 9896TIP3    H129641   2.678   4.790   4.724 -0.1870 -0.0122  0.4770
 9896TIP3    H229642   2.753   4.700   4.820  0.6627 -0.9259 -1.0097
 9897TIP3   OH229643   2.195   2.009   0.166 -0.6164  0.3310  0.1367
 9897TIP3    H129644   2.137   2.085   0.159 -1.4415 -0.2884  0.1835
 9897TIP3    H229645   2.138   1.934   0.149  0.3181 -0.2393 -0.5005
 9898TIP3   OH229646   0.776   4.007   6.168 -0.5925 -0.9772 -0.3090
 9898TIP3    H129647   0.848   3.998   6.230 -0.4381 -1.5500 -0.5701
 9898TIP3    H229648   0.697   3.998   6.222 -0.4737 -0.2034 -0.0028
 9899TIP3   OH229649   0.860   1.544   0.646  0.1268  0.0814 -0.1378
 9899TIP3    H129650   0.864   1.569   0.738  2.5137  2.3162 -0.7862
 9899TIP3    H229651   0.869   1.449   0.646  0.1380  0.0806  1.9467
 9900TIP3   OH229652   1.017   0.765   0.453  0.4132 -0.9380  0.5099
 9900TIP3    H129653   1.041   0.691   0.398 -0.7297 -0.2039 -1.0039
 9900TIP3    H229654   0.924   0.752   0.471  0.6198 -0.8144  1.7338
 9901TIP3   OH229655   1.557   2.195   0.296 -0.4661 -0.1185  1.1850
 9901TIP3    H129656   1.547   2.185   0.391 -1.8812 -0.3893  1.0174
 9901TIP3    H229657   1.503   2.270   0.273 -0.4240 -0.2805  0.5338
 9902TIP3   OH229658   1.367   1.118   1.048 -0.1918 -0.0245  0.1490
 9902TIP3    H129659   1.391   1.113   0.955 -0.1769 -1.3993  0.2272
 9902TIP3    H229660   1.276   1.088   1.050 -0.3807  0.5737  0.5042
 9903TIP3   OH229661   4.089   3.257   5.781 -0.0791 -0.2168 -0.2970
 9903TIP3    H129662   4.049   3.298   5.705 -1.7794  1.2606  1.3495
 9903TIP3    H229663   4.016   3.218   5.829  0.6689  0.8274  1.7565
 9904TIP3   OH229664   7.198   2.610   1.115 -0.8013  0.2759  0.0455
 9904TIP3    H129665   7.218   2.679   1.051  1.4841 -1.8886 -1.6798
 9904TIP3    H229666   7.259   2.627   1.187 -0.9827  0.6892  0.1048
 9905TIP3   OH229667   0.984   3.357   3.115 -0.0366 -1.1048 -0.1749
 9905TIP3    H129668   0.949   3.417   3.181 -1.1866 -0.9492 -0.9111
 9905TIP3    H229669   1.044   3.300   3.163 -0.0714 -0.3258  0.8040
 9906TIP3   OH229670   5.692   4.413   6.310 -0.4659 -0.3396  0.6154
 9906TIP3    H129671   5.606   4.418   6.269  0.3051  1.4932 -0.8646
 9906TIP3    H229672   5.686   4.470   6.386 -0.8414 -1.0048  1.0954
 9907TIP3   OH229673   1.586   4.044   6.293  0.1428 -0.6212 -0.2470
 9907TIP3    H129674   1.560   4.108   6.359 -1.7025 -0.1636 -1.3742
 9907TIP3    H229675   1.562   3.959   6.331 -1.7842 -0.2930 -0.6979
 9908TIP3   OH229676   1.498   0.152   1.703 -0.1418  0.2286  0.2129
 9908TIP3    H129677   1.510   0.213   1.776  1.1444  0.3641 -0.1061
 9908TIP3    H229678   1.527   0.068   1.737  2.7828  0.7303 -0.8409
 9909TIP3   OH229679   2.006   1.026   0.476 -0.0852 -0.2789 -0.1728
 9909TIP3    H129680   1.914   1.002   0.482 -0.4929  1.1041 -0.6221
 9909TIP3    H229681   2.040   1.017   0.565 -0.8793  0.0864  0.1680
 9910TIP3   OH229682   2.380   5.834   6.331 -0.2932  0.0758 -0.6904
 9910TIP3    H129683   2.423   5.759   6.290  2.9887  0.3335  2.1002
 9910TIP3    H229684   2.432   5.910   6.305  0.8817  0.4433  2.4861
 9911TIP3   OH229685   0.235   3.303   6.206  0.0711  0.1171 -0.0872
 9911TIP3    H129686   0.162   3.351   6.245  0.8185  1.8139 -0.7060
 9911TIP3    H229687   0.230   3.325   6.113  0.0329 -1.5727 -0.4983
 9912TIP3   OH229688   5.500   1.326   0.785  0.2595  0.0340 -0.0485
 9912TIP3    H129689   5.564   1.285   0.726 -0.8246 -0.0150 -1.2154
 9912TIP3    H229690   5.542   1.324   0.871  0.2071 -3.6523 -0.0358
 9913TIP3   OH229691   0.910   4.239   0.202 -0.8191 -0.0281 -0.2380
 9913TIP3    H129692   0.982   4.209   0.257 -1.0144  0.8747  0.5262
 9913TIP3    H229693   0.881   4.161   0.156 -1.3800 -1.0488  1.7943
 9914TIP3   OH229694   5.591   2.886   0.932  0.3631  0.2760  0.2021
 9914TIP3    H129695   5.600   2.791   0.942  2.3245  0.5312  1.2281
 9914TIP3    H229696   5.523   2.911   0.994 -0.5128 -0.5086 -0.4261
 9915TIP3   OH229697   4.364   5.572   5.758 -0.9322  0.2327  0.0268
 9915TIP3    H129698   4.367   5.487   5.800  1.1290 -0.4750 -1.4854
 9915TIP3    H229699   4.308   5.560   5.681  1.3462 -0.4633 -1.5868
 9916TIP3   OH229700   1.055   1.676   0.524 -0.0483  0.0607 -0.4754
 9916TIP3    H129701   1.027   1.665   0.433  1.1414 -0.5094 -0.7911
 9916TIP3    H229702   0.984   1.639   0.576 -1.0176  0.9743 -1.1503
 9917TIP3   OH229703   0.136   1.648   0.669  0.5614  0.0476 -0.0012
 9917TIP3    H129704   0.099   1.572   0.625  1.4224  1.0228 -2.4617
 9917TIP3    H229705   0.061   1.689   0.713  0.0692 -2.0908  1.2133
 9918TIP3   OH229706   1.747   4.678   6.416 -0.6714 -0.1028  0.1704
 9918TIP3    H129707   1.767   4.769   6.439  0.2509  0.5643 -2.9343
 9918TIP3    H229708   1.698   4.644   6.490  0.0366  2.5645  1.9262
 9919TIP3   OH229709   1.543   3.687   0.078  0.0433 -0.2984  0.2725
 9919TIP3    H129710   1.492   3.629   0.022 -0.5545  2.0969 -1.7662
 9919TIP3    H229711   1.634   3.664   0.060 -0.1775 -0.3181 -0.8325
 9920TIP3   OH229712   4.186   4.241   4.069 -0.0749 -0.3946  0.0402
 9920TIP3    H129713   4.165   4.170   4.129  0.0508 -0.3540  0.1303
 9920TIP3    H229714   4.243   4.201   4.003 -0.7210 -0.5900 -0.4030
 9921TIP3   OH229715   4.200   3.241   3.284 -0.1516 -0.0770 -0.0814
 9921TIP3    H129716   4.113   3.210   3.260 -0.8238  0.1374  1.9571
 9921TIP3    H229717   4.252   3.161   3.293 -0.4921 -0.2914 -0.0008
 9922TIP3   OH229718   4.814   2.432   6.331 -0.3181  0.4813 -0.3750
 9922TIP3    H129719   4.827   2.485   6.252 -1.3558 -0.3888 -1.1519
 9922TIP3    H229720   4.721   2.409   6.329  0.2784 -1.9918 -0.4642
 9923TIP3   OH229721   6.542   1.682   0.277  0.2237 -0.3023 -0.1467
 9923TIP3    H129722   6.548   1.776   0.264  0.1072 -0.4506 -1.3103
 9923TIP3    H229723   6.632   1.651   0.267  0.4640 -0.1675  1.4899
 9924TIP3   OH229724   1.261   1.730   1.003  0.4589 -0.1512 -0.4609
 9924TIP3    H129725   1.320   1.802   1.027 -0.6669  0.2342  1.2489
 9924TIP3    H229726   1.261   1.731   0.908  2.5803  0.3551 -0.4966
 9925TIP3   OH229727   4.217   4.614   6.297  0.3503 -0.1039 -0.2706
 9925TIP3    H129728   4.297   4.611   6.348 -0.2336 -0.9111  0.6256
 9925TIP3    H229729   4.148   4.635   6.361 -0.3538 -0.8750 -0.7617
 9926TIP3   OH229730   2.704   4.638   6.331 -0.5153  0.1579  0.1652
 9926TIP3    H129731   2.781   4.603   6.375 -0.0105  0.1105 -0.7375
 9926TIP3    H229732   2.632   4.622   6.392  0.2029  0.3021  1.0591
 9927TIP3   OH229733   1.703   3.551   4.199 -0.3558 -0.1822  0.0373
 9927TIP3    H129734   1.716   3.604   4.120 -0.7398  1.5409  1.1190
 9927TIP3    H229735   1.627   3.590   4.242 -0.1697 -1.1268  1.2424
 9928TIP3   OH229736   4.115   4.440   5.243  0.5936  0.6032  0.1163
 9928TIP3    H129737   4.119   4.527   5.203 -0.2470  0.3420 -0.5495
 9928TIP3    H229738   4.054   4.450   5.316 -1.3866  0.0198 -1.4135
 9929TIP3   OH229739   2.482   3.533   1.106  0.0958 -0.0013  0.1747
 9929TIP3    H129740   2.559   3.479   1.089 -0.6700 -0.8109 -0.8476
 9929TIP3    H229741   2.514   3.608   1.155  1.4679 -0.5255  0.0788
 9930TIP3   OH229742   2.112   5.399   5.288 -0.9759 -0.4151  0.3801
 9930TIP3    H129743   2.030   5.440   5.257 -0.8542  1.5401  2.4631
 9930TIP3    H229744   2.107   5.309   5.256 -2.7817  0.3462 -1.6619
 9931TIP3   OH229745   7.043   6.456   0.240 -0.2629 -0.1261 -0.4273
 9931TIP3    H129746   7.114   6.501   0.195 -1.1799  0.6834 -1.0983
 9931TIP3    H229747   7.050   6.485   0.331  0.6376 -0.5340 -0.3641
 9932TIP3   OH229748   3.303   5.357   6.199  0.0917  1.0152  0.4640
 9932TIP3    H129749   3.385   5.404   6.192  2.2593 -2.4784  1.2635
 9932TIP3    H229750   3.309   5.288   6.133 -1.0906 -0.8519  2.2510
 9933TIP3   OH229751   2.443   2.456   4.693  0.0739  0.7660  1.2589
 9933TIP3    H129752   2.356   2.429   4.723 -0.8265  3.1802  0.8935
 9933TIP3    H229753   2.479   2.507   4.766  1.3298 -0.4495  1.5194
 9934TIP3   OH229754   7.262   5.272   5.733 -0.2191  0.1035  0.4712
 9934TIP3    H129755   7.206   5.327   5.788  0.8361 -0.6942  2.3957
 9934TIP3    H229756   7.268   5.319   5.650 -0.2016  2.3727  1.7166
 9935TIP3   OH229757   0.169   7.264   0.922  0.4182 -0.2196  0.0012
 9935TIP3    H129758   0.118   7.188   0.895 -0.1124  0.1282  0.0144
 9935TIP3    H229759   0.236   7.228   0.980  0.4729 -0.7374 -0.3832
 9936TIP3   OH229760   5.420   3.885   5.953 -0.0167 -0.2795 -0.0673
 9936TIP3    H129761   5.509   3.916   5.970 -0.0370 -1.1761  1.8616
 9936TIP3    H229762   5.365   3.937   6.011 -0.7442  0.2475 -1.2348
 9937TIP3   OH229763   5.314   0.323   0.537 -0.2843  0.0851  0.3884
 9937TIP3    H129764   5.386   0.377   0.571  0.7091 -0.4572 -0.8180
 9937TIP3    H229765   5.250   0.387   0.505  0.7362  0.5757 -0.7279
 9938TIP3   OH229766   3.199   5.891   4.285  0.4570 -0.1408  0.9621
 9938TIP3    H129767   3.265   5.851   4.228  0.8031  0.1444  1.1610
 9938TIP3    H229768   3.170   5.820   4.342 -1.0607 -0.8383 -0.6200
 9939TIP3   OH229769   6.408   0.148   0.882 -0.2561  0.4209 -0.7135
 9939TIP3    H129770   6.340   0.081   0.871  0.9462 -0.8968 -0.1741
 9939TIP3    H229771   6.478   0.122   0.823  1.4932 -0.5030  1.6716
 9940TIP3   OH229772   7.032   6.107   1.013 -0.1516 -0.8549 -0.9842
 9940TIP3    H129773   7.060   6.112   0.921  2.8056  1.1882 -0.0604
 9940TIP3    H229774   7.029   6.198   1.041  2.7584 -1.6078  1.9900
 9941TIP3   OH229775   0.195   2.384   0.270  0.1982  0.0164  0.6970
 9941TIP3    H129776   0.162   2.313   0.215 -0.1600 -0.5793  1.6818
 9941TIP3    H229777   0.179   2.463   0.218 -0.1907 -0.5316 -0.0303
 9942TIP3   OH229778   6.990   3.997   1.830 -0.3911 -0.0042 -0.0836
 9942TIP3    H129779   6.975   4.028   1.920 -2.9982  1.2143 -0.9088
 9942TIP3    H229780   6.917   3.938   1.813  1.3310 -2.0449 -0.6530
 9943TIP3   OH229781   0.840   0.886   0.987 -0.1779 -0.1201  0.2773
 9943TIP3    H129782   0.802   0.861   0.902 -1.6346  0.3692  0.7687
 9943TIP3    H229783   0.783   0.957   1.018  0.1536 -0.5270  1.8218
 9944TIP3   OH229784   2.981   5.737   6.390  0.1956  0.1089  0.1745
 9944TIP3    H129785   3.031   5.720   6.469  1.4930  1.2719 -0.3673
 9944TIP3    H229786   2.993   5.660   6.336  2.3409  0.8119 -0.4078
 9945TIP3   OH229787   0.293   0.473   0.200 -0.2839  0.0312 -0.3619
 9945TIP3    H129788   0.348   0.551   0.195  0.0207 -0.1700 -0.1775
 9945TIP3    H229789   0.350   0.402   0.172 -0.6038 -0.1083 -0.6686
 9946TIP3   OH229790   0.674   0.569   2.156 -0.0930  0.2459 -0.0975
 9946TIP3    H129791   0.745   0.546   2.216  1.2541  1.8637 -1.0281
 9946TIP3    H229792   0.604   0.601   2.213  0.5221  0.1553  0.7277
 9947TIP3   OH229793   3.900   0.289   6.378  0.5464 -0.5802  0.7429
 9947TIP3    H129794   3.979   0.243   6.407 -0.0034 -1.5499  0.7426
 9947TIP3    H229795   3.828   0.229   6.399 -0.0697 -0.2907 -0.4686
 9948TIP3   OH229796   0.391   4.403   6.282  0.1378  0.6684  0.1629
 9948TIP3    H129797   0.302   4.368   6.293  0.2541  0.3742  0.1704
 9948TIP3    H229798   0.378   4.489   6.241 -0.1378  0.5073 -0.0927
 9949TIP3   OH229799   7.597   2.890   1.610 -0.4195 -0.0571 -0.2608
 9949TIP3    H129800   7.619   2.807   1.567 -1.9786 -0.8542  0.4481
 9949TIP3    H229801   7.544   2.937   1.545 -1.0908 -0.4069  0.0330
 9950TIP3   OH229802   7.317   2.274   0.412  0.0483 -0.4702  0.4431
 9950TIP3    H129803   7.224   2.255   0.401  0.0955 -0.7531  0.5582
 9950TIP3    H229804   7.361   2.209   0.358  0.1605 -0.0557  0.0345
 9951TIP3   OH229805   6.474   2.020   0.300 -0.6831  0.0191  0.4954
 9951TIP3    H129806   6.560   1.997   0.336  0.0738  1.5889 -0.2920
 9951TIP3    H229807   6.438   2.082   0.363 -0.2186  1.1986 -0.3855
 9952TIP3   OH229808   1.506   6.991   5.631  0.4587 -0.1919 -0.9727
 9952TIP3    H129809   1.471   7.030   5.712  0.3812 -3.0409  0.4487
 9952TIP3    H229810   1.564   7.057   5.596 -0.9883  1.8840  0.3985
 9953TIP3   OH229811   4.108   5.108   5.962  0.5062 -0.2221 -0.1861
 9953TIP3    H129812   4.188   5.158   5.945  0.5497  0.6107  2.2247
 9953TIP3    H229813   4.056   5.165   6.018  0.8001 -3.0717  3.1366
 9954TIP3   OH229814   0.798   1.815   1.270  0.3913 -0.3566 -0.6696
 9954TIP3    H129815   0.763   1.743   1.323 -1.4392  1.1616  0.2593
 9954TIP3    H229816   0.758   1.804   1.184  0.4707 -0.7202 -0.6588
 9955TIP3   OH229817   5.440   5.794   3.975 -0.2046  0.1541 -0.2843
 9955TIP3    H129818   5.464   5.708   3.941 -0.3532  0.0135 -0.0341
 9955TIP3    H229819   5.499   5.809   4.048  0.4819  0.6956 -0.9424
 9956TIP3   OH229820   3.335   6.747   4.663 -0.3840  0.1390 -0.2690
 9956TIP3    H129821   3.317   6.673   4.605  0.6509  1.6836 -2.6385
 9956TIP3    H229822   3.277   6.734   4.738 -0.7880 -2.6209 -1.0183
 9957TIP3   OH229823   6.485   6.476   1.363  0.0731  0.2205  0.1312
 9957TIP3    H129824   6.542   6.499   1.436 -0.0448 -0.4209  0.4333
 9957TIP3    H229825   6.460   6.385   1.380 -0.9339  0.4484 -0.0586
 9958TIP3   OH229826   0.839   5.082   6.334  0.1522  0.0053 -0.0878
 9958TIP3    H129827   0.907   5.149   6.334  0.7669 -0.6008  1.0518
 9958TIP3    H229828   0.759   5.128   6.308  0.7846  0.9434 -0.3710
 9959TIP3   OH229829   6.271   6.867   0.464  0.0131  0.5142  0.3648
 9959TIP3    H129830   6.355   6.881   0.508 -0.2489 -1.4350  1.5589
 9959TIP3    H229831   6.274   6.924   0.388  2.0320  1.1818  0.9093
 9960TIP3   OH229832   4.184   3.683   4.349 -0.3445 -0.0262 -0.2397
 9960TIP3    H129833   4.256   3.620   4.337 -0.0570  0.3852 -0.6851
 9960TIP3    H229834   4.120   3.636   4.403  0.4537 -0.2439  0.5278
 9961TIP3   OH229835   5.990   3.265   0.868  0.7488  0.4383 -0.0350
 9961TIP3    H129836   5.914   3.211   0.846  0.6172  0.5384  0.1733
 9961TIP3    H229837   6.065   3.208   0.850  0.6929  0.9499 -1.9375
 9962TIP3   OH229838   1.487   4.476   4.027 -0.0072 -0.0362 -0.0770
 9962TIP3    H129839   1.518   4.546   3.971 -1.0171 -0.4826 -1.2230
 9962TIP3    H229840   1.546   4.402   4.010 -1.1697 -0.6279 -1.6502
 9963TIP3   OH229841   3.676   3.738   5.644 -0.3593  0.0128  0.6931
 9963TIP3    H129842   3.682   3.794   5.567  1.8863 -0.4254  0.5209
 9963TIP3    H229843   3.653   3.797   5.715 -1.9024  0.5105 -0.2044
 9964TIP3   OH229844   3.149   4.830   5.494 -0.1377 -0.1047  0.2658
 9964TIP3    H129845   3.083   4.898   5.485 -1.7423 -1.7168 -0.3861
 9964TIP3    H229846   3.219   4.871   5.545 -2.3917  1.0878  2.4765
 9965TIP3   OH229847   3.745   4.361   4.869 -0.3035  0.0732  0.2606
 9965TIP3    H129848   3.813   4.316   4.819  1.1985  1.9363  0.5890
 9965TIP3    H229849   3.713   4.428   4.809 -1.4329 -0.3697  0.3463
 9966TIP3   OH229850   2.031   2.365   4.545  0.1425  0.0408  0.0661
 9966TIP3    H129851   1.938   2.347   4.536 -0.2751  1.9785  0.2997
 9966TIP3    H229852   2.056   2.325   4.628 -0.3616 -0.9281 -0.2503
 9967TIP3   OH229853   0.237   7.057   1.169 -0.2972  0.5498 -0.2046
 9967TIP3    H129854   0.307   7.001   1.201  0.1289  0.2459 -1.6242
 9967TIP3    H229855   0.274   7.145   1.171 -0.5887  0.6607  0.9707
 9968TIP3   OH229856   2.382   7.043   5.767 -0.4318  0.1441  0.4174
 9968TIP3    H129857   2.365   6.956   5.802 -0.7158 -0.9664 -2.3091
 9968TIP3    H229858   2.399   7.028   5.674  0.1550  2.9405  0.0275
 9969TIP3   OH229859   5.891   5.146   1.075  0.4822  0.3374 -0.1759
 9969TIP3    H129860   5.982   5.172   1.089  0.3128  1.3730 -0.9109
 9969TIP3    H229861   5.896   5.053   1.054  1.5268  0.6930 -1.6093
 9970TIP3   OH229862   0.276   3.408   0.431 -0.3141  0.1049 -0.1605
 9970TIP3    H129863   0.205   3.444   0.378  0.5208  1.3125 -0.4764
 9970TIP3    H229864   0.261   3.444   0.518 -0.9818 -0.9111  0.1648
 9971TIP3   OH229865   5.630   3.975   4.203 -0.2991 -0.0321  0.5804
 9971TIP3    H129866   5.622   3.966   4.298  0.9640  0.7562  0.7739
 9971TIP3    H229867   5.678   4.057   4.191 -1.4160  0.4470 -0.7726
 9972TIP3   OH229868   6.007   5.208   5.341 -0.2763  0.6264  0.4319
 9972TIP3    H129869   5.938   5.274   5.327 -2.2064 -1.2048  1.0643
 9972TIP3    H229870   6.020   5.208   5.436 -0.6094 -0.2156  0.4811
 9973TIP3   OH229871   0.731   3.155   0.693  0.3318 -0.1586  0.3231
 9973TIP3    H129872   0.825   3.161   0.713  0.2673  0.9099  0.3080
 9973TIP3    H229873   0.715   3.227   0.632 -0.3300 -0.8572 -0.3242
 9974TIP3   OH229874   6.700   5.250   5.131  0.0325 -0.2514  0.2805
 9974TIP3    H129875   6.758   5.313   5.174  0.0123 -0.1944  0.2251
 9974TIP3    H229876   6.754   5.212   5.062  0.0894 -0.3985  0.4070
 9975TIP3   OH229877   5.778   6.299   5.264  0.0145  0.4860 -0.0530
 9975TIP3    H129878   5.815   6.211   5.257 -0.8098  0.0617  0.7708
 9975TIP3    H229879   5.770   6.314   5.358  1.2075  1.9029 -0.1544
 9976TIP3   OH229880   1.110   0.995   0.345 -0.6174 -0.0113  0.0017
 9976TIP3    H129881   1.051   0.923   0.368  0.2003 -0.7637 -0.2145
 9976TIP3    H229882   1.180   0.991   0.411 -1.4878  1.7303  1.0804
 9977TIP3   OH229883   1.422   1.989   0.138 -0.1512  0.0881 -0.4235
 9977TIP3    H129884   1.481   2.043   0.191 -0.5401  0.3047 -0.2135
 9977TIP3    H229885   1.430   1.901   0.176 -1.3532  0.4802  0.7773
 9978TIP3   OH229886   2.421   4.326   0.404  0.6003  0.4017  0.2780
 9978TIP3    H129887   2.339   4.277   0.400  1.8539 -1.5885 -1.9819
 9978TIP3    H229888   2.481   4.278   0.347  2.8892  2.7003  0.6584
 9979TIP3   OH229889   2.481   0.700   0.542 -0.0701 -0.1201 -0.1286
 9979TIP3    H129890   2.530   0.744   0.473 -1.4042  1.2081 -0.2492
 9979TIP3    H229891   2.542   0.695   0.616  0.7983 -0.0253 -0.8328
 9980TIP3   OH229892   6.215   4.203   5.154  0.6121 -0.1457 -0.0276
 9980TIP3    H129893   6.143   4.266   5.148  0.4048 -0.5074 -1.8914
 9980TIP3    H229894   6.292   4.251   5.125  0.5930 -0.5271 -0.7232
 9981TIP3   OH229895   3.433   3.322   4.587  0.4961 -0.5049 -0.3745
 9981TIP3    H129896   3.470   3.249   4.537 -0.1782 -0.1295 -1.4221
 9981TIP3    H229897   3.344   3.293   4.608  0.5911 -0.4285  0.1527
 9982TIP3   OH229898   7.583   4.758   5.263 -0.2581 -0.2749  0.7876
 9982TIP3    H129899   7.539   4.706   5.330  1.1500  1.0119  2.7498
 9982TIP3    H229900   7.583   4.847   5.298 -1.1453  0.7720 -1.7629
 9983TIP3   OH229901   2.593   5.265   6.078  0.6916 -0.3374 -0.2116
 9983TIP3    H129902   2.625   5.341   6.128  0.9142 -1.1109  0.8216
 9983TIP3    H229903   2.636   5.190   6.119  1.0980 -0.9524 -1.7620
 9984TIP3   OH229904   0.847   2.538   0.703 -0.0912  0.0845  0.0693
 9984TIP3    H129905   0.857   2.487   0.784 -0.8874  0.4802  0.4191
 9984TIP3    H229906   0.762   2.581   0.712 -0.2580  0.0038 -1.0555
 9985TIP3   OH229907   4.214   0.470   1.204  0.5634 -0.5422 -0.0450
 9985TIP3    H129908   4.251   0.386   1.177 -0.6697 -0.9154 -0.5961
 9985TIP3    H229909   4.172   0.505   1.125 -0.6455 -0.3509  0.6628
 9986TIP3   OH229910   7.435   6.525   1.301 -0.4521 -0.1693  0.2894
 9986TIP3    H129911   7.523   6.552   1.277 -0.4681  0.0841  0.5193
 9986TIP3    H229912   7.410   6.583   1.373 -1.9663  1.7814 -1.7292
 9987TIP3   OH229913   6.138   5.094   2.841 -0.0547 -0.4870 -0.3159
 9987TIP3    H129914   6.169   5.095   2.750 -0.9950  1.2903 -0.6619
 9987TIP3    H229915   6.185   5.166   2.883 -0.4338 -0.5959  0.3011
 9988TIP3   OH229916   5.377   3.612   5.051  0.1473 -0.3113 -0.2101
 9988TIP3    H129917   5.358   3.690   5.103  0.3514 -0.5498  0.2263
 9988TIP3    H229918   5.291   3.570   5.040 -0.3285  1.1409 -2.3710
 9989TIP3   OH229919   3.173   3.731   4.723  0.2115 -0.2512 -0.3123
 9989TIP3    H129920   3.268   3.726   4.715  0.1753 -1.4303 -0.1840
 9989TIP3    H229921   3.145   3.779   4.645  0.9496  0.6152 -0.0504
 9990TIP3   OH229922   4.562   5.463   5.508  0.1134  0.5109  0.1657
 9990TIP3    H129923   4.657   5.469   5.521  0.1824 -0.0537 -0.0667
 9990TIP3    H229924   4.551   5.393   5.444 -0.3518  1.8651 -1.2527
 9991TIP3   OH229925   5.316   4.718   5.969  0.0408 -0.2487 -0.2806
 9991TIP3    H129926   5.318   4.688   5.879  0.5297 -0.8982 -0.0575
 9991TIP3    H229927   5.231   4.689   6.003  0.0744 -0.4612 -0.3799
 9992TIP3   OH229928   5.222   5.805   5.905 -0.0309  0.0514  0.4974
 9992TIP3    H129929   5.226   5.853   5.822 -0.2969 -1.0844 -0.1958
 9992TIP3    H229930   5.130   5.807   5.930  0.0671  0.4838  0.8121
 9993TIP3   OH229931   5.449   4.987   6.257  0.2903 -0.1483  0.5845
 9993TIP3    H129932   5.365   4.949   6.282 -0.0134 -1.5380 -2.3088
 9993TIP3    H229933   5.507   4.912   6.246  1.6086  0.7238  1.4809
 9994TIP3   OH229934   6.372   6.728   5.651 -0.1294 -0.6298  0.1786
 9994TIP3    H129935   6.381   6.689   5.564  1.0346 -0.3783  0.1772
 9994TIP3    H229936   6.436   6.799   5.653 -2.3349  1.4232  0.1331
 9995TIP3   OH229937   3.103   5.202   3.969  0.1245 -0.2363 -0.1283
 9995TIP3    H129938   3.077   5.161   4.052  0.4426  0.0140  0.0982
 9995TIP3    H229939   3.182   5.154   3.942  1.5266  1.3211  1.0260
 9996TIP3   OH229940   6.708   6.910   6.027  0.4245  0.1457 -0.2163
 9996TIP3    H129941   6.713   6.957   5.944  1.3385  1.7716  0.7436
 9996TIP3    H229942   6.794   6.921   6.066 -0.3809  0.4331  1.5126
 9997TIP3   OH229943   7.213   4.419   6.271  0.2828 -0.0796  0.0995
 9997TIP3    H129944   7.180   4.334   6.300 -1.4821 -0.3177 -2.3837
 9997TIP3    H229945   7.287   4.398   6.213 -0.8956 -0.0351 -1.4646
 9998TIP3   OH229946   3.417   4.370   5.052  0.0792 -0.5154 -0.3832
 9998TIP3    H129947   3.459   4.284   5.041  0.4783 -0.1384 -1.9402
 9998TIP3    H229948   3.490   4.431   5.056 -0.2297 -0.1775  0.0608
 9999TIP3   OH229949   1.505   7.228   2.662 -0.0043 -0.0100  0.0878
 9999TIP3    H129950   1.410   7.233   2.662 -0.0814 -1.4067  0.1488
 9999TIP3    H229951   1.532   7.290   2.730 -0.7946  1.3966 -0.8564
10000TIP3   OH229952   5.068   5.785   5.058  0.5268  0.3547  0.5554
10000TIP3    H129953   5.160   5.802   5.079  0.2577  0.9732  1.2789
10000TIP3    H229954   5.043   5.857   5.000  0.3046  0.5920  0.9414
10001TIP3   OH229955   1.038   1.044   0.653  0.2134 -0.1610 -0.2551
10001TIP3    H129956   1.096   1.011   0.721  0.7729  0.3242 -0.4961
10001TIP3    H229957   1.036   0.975   0.587 -1.4501 -1.2445  0.9045
10002TIP3   OH229958   0.829   1.619   1.457  0.4005 -0.1370  0.3013
10002TIP3    H129959   0.834   1.552   1.389 -1.5187  0.5670 -0.5846
10002TIP3    H229960   0.772   1.581   1.524  0.4468  0.0583  0.4512
10003TIP3   OH229961   6.137   6.086   5.457  0.0011 -0.2043 -0.0252
10003TIP3    H129962   6.093   6.042   5.530  0.7896 -1.1040 -0.0838
10003TIP3    H229963   6.074   6.081   5.385 -1.2745  1.7504  0.9064
10004TIP3   OH229964   4.870   5.588   5.807  0.3450 -0.2095 -0.3658
10004TIP3    H129965   4.946   5.644   5.788 -0.8142  2.0216  1.3729
10004TIP3    H229966   4.888   5.553   5.895  0.2580 -1.2746 -0.7579
10005TIP3   OH229967   3.932   4.523   5.458 -0.0291 -0.2421  0.4211
10005TIP3    H129968   3.901   4.613   5.460  0.7924  0.0597 -0.1173
10005TIP3    H229969   3.853   4.470   5.446 -0.5949  0.3519  1.4884
10006TIP3   OH229970   5.994   3.167   5.619 -0.1342 -0.0893 -0.0081
10006TIP3    H129971   5.899   3.151   5.623  0.0048 -0.4913  1.8542
10006TIP3    H229972   6.007   3.247   5.670  0.4042  0.6653 -1.2890
10007TIP3   OH229973   3.584   0.590   0.895  0.7148  0.7191 -0.0735
10007TIP3    H129974   3.596   0.674   0.940  1.1797 -0.0508  1.2722
10007TIP3    H229975   3.494   0.565   0.915  0.2266  1.3922 -1.3593
10008TIP3   OH229976   4.901   3.937   6.420  0.8830  0.5547  0.1581
10008TIP3    H129977   4.993   3.936   6.393  0.6543  0.2052 -0.6234
10008TIP3    H229978   4.893   3.861   6.478  0.3771 -1.3033 -2.2422
10009TIP3   OH229979   7.895   1.408   2.669 -0.4893  0.0918  0.6044
10009TIP3    H129980   7.853   1.329   2.635 -0.2404 -0.5248  1.6973
10009TIP3    H229981   7.823   1.458   2.708 -0.7368  0.6815 -0.6155
10010TIP3   OH229982   5.681   3.736   5.755 -0.0382 -0.4944  0.1506
10010TIP3    H129983   5.688   3.831   5.759 -1.7554 -0.4017  1.1963
10010TIP3    H229984   5.619   3.719   5.685 -0.1797 -0.8266  0.3558
10011TIP3   OH229985   5.239   4.792   4.594  0.0490  0.0830  0.5119
10011TIP3    H129986   5.303   4.721   4.600  0.3123  0.3622  0.9954
10011TIP3    H229987   5.234   4.811   4.500  0.0710 -0.4910  0.3937
10012TIP3   OH229988   7.755   4.371   4.866 -0.2726 -0.3503 -0.5473
10012TIP3    H129989   7.822   4.352   4.800  0.1576 -0.6265 -0.0373
10012TIP3    H229990   7.776   4.313   4.938 -0.0582  0.7476  0.2930
10013TIP3   OH229991   3.122   6.345   5.245 -0.7483  0.2935  0.4260
10013TIP3    H129992   3.104   6.265   5.294 -1.4906  1.4649  2.1348
10013TIP3    H229993   3.037   6.374   5.214 -0.8589  1.7162  1.9476
10014TIP3   OH229994   3.674   6.355   6.105  0.0613  0.6677 -0.1230
10014TIP3    H129995   3.627   6.291   6.158 -1.4553  1.3096 -0.6707
10014TIP3    H229996   3.649   6.440   6.142  0.3662  1.0423 -0.7637
10015TIP3   OH229997   3.716   5.786   5.844 -0.5017 -0.2832 -0.6125
10015TIP3    H129998   3.757   5.711   5.886 -0.0682  0.2785 -0.0175
10015TIP3    H229999   3.638   5.803   5.897  0.4235  0.8652  0.4079
10016TIP3   OH230000   1.294   2.854   0.402 -0.4054 -0.2311  0.2680
10016TIP3    H130001   1.352   2.811   0.465 -0.2568 -2.1761 -1.1503
10016TIP3    H230002   1.206   2.835   0.434 -0.3238 -0.8355  0.1404
10017TIP3   OH230003   6.329   1.920   5.785  0.6859 -0.1292  0.4464
10017TIP3    H130004   6.241   1.900   5.818 -0.1774  1.5200 -0.7803
10017TIP3    H230005   6.330   1.881   5.697  1.0218  0.2563  0.2842
10018TIP3   OH230006   7.458   0.629   0.467  0.4335  0.5312  0.3477
10018TIP3    H130007   7.539   0.667   0.433  0.0941  1.1155  0.1774
10018TIP3    H230008   7.398   0.629   0.393  0.6027 -0.8770  0.1971
10019TIP3   OH230009   4.323   4.505   4.155 -0.8753  0.5040  0.4660
10019TIP3    H130010   4.279   4.430   4.115  1.1182  0.0323 -0.9102
10019TIP3    H230011   4.398   4.467   4.200 -0.8172  1.5055  1.2301
10020TIP3   OH230012   5.331   3.942   5.522 -0.1917 -0.4837 -0.6273
10020TIP3    H130013   5.256   3.923   5.466 -0.4615 -0.4082 -0.2881
10020TIP3    H230014   5.318   3.888   5.600 -0.8988  0.9809  0.2899
10021TIP3   OH230015   1.779   0.206   0.680 -0.4429  0.4437 -0.2195
10021TIP3    H130016   1.836   0.266   0.728 -0.7256  0.2425  0.3620
10021TIP3    H230017   1.828   0.124   0.676 -0.9160  0.1092  0.7488
10022TIP3   OH230018   1.263   1.408   2.258  0.5742 -0.0387  0.1191
10022TIP3    H130019   1.303   1.465   2.192 -0.7397  1.0584  0.2536
10022TIP3    H230020   1.175   1.390   2.225  0.7547 -1.4801  0.3959
10023TIP3   OH230021   1.217   2.667   1.323 -0.3532  0.2008  0.3036
10023TIP3    H130022   1.195   2.587   1.372 -0.4038  1.0125  1.6346
10023TIP3    H230023   1.310   2.682   1.344 -0.0599 -0.0818 -0.7769
10024TIP3   OH230024   4.530   4.984   6.031  0.7694  0.2794 -0.3985
10024TIP3    H130025   4.551   5.023   5.946  0.0571 -2.4271 -1.8791
10024TIP3    H230026   4.440   4.953   6.022  0.2228  1.1462  1.8257
10025TIP3   OH230027   2.142   0.611   0.103  0.4416 -0.1840  0.4250
10025TIP3    H130028   2.160   0.643   0.191 -0.4510  0.4500  0.3874
10025TIP3    H230029   2.189   0.670   0.044 -0.2685  0.3639  0.4065
10026TIP3   OH230030   3.322   3.353   0.155  0.3087 -0.5046  0.0528
10026TIP3    H130031   3.298   3.323   0.243  0.6432  0.1937  0.3890
10026TIP3    H230032   3.331   3.448   0.164 -1.8924 -0.1420 -1.2612
10027TIP3   OH230033   3.895   4.031   5.815 -0.0632  0.0318  0.0297
10027TIP3    H130034   3.952   4.066   5.747 -0.7224 -0.3867 -0.7356
10027TIP3    H230035   3.941   3.952   5.846  1.0434  1.1059  1.2294
10028TIP3   OH230036   3.740   4.025   5.561 -0.8096  0.2603 -0.4338
10028TIP3    H130037   3.726   4.002   5.653  0.9891 -2.7660 -0.8437
10028TIP3    H230038   3.659   4.002   5.517 -1.1389  0.2965  0.1535
10029TIP3   OH230039   3.622   4.257   5.309 -0.0526  0.5914  0.1048
10029TIP3    H130040   3.672   4.211   5.242 -0.4707 -0.3202  0.3995
10029TIP3    H230041   3.616   4.347   5.278  1.0951  0.5334 -0.3111
10030TIP3   OH230042   4.332   3.879   4.720 -0.2621 -0.0026  0.3221
10030TIP3    H130043   4.410   3.854   4.770 -1.0257 -1.3671  0.8694
10030TIP3    H230044   4.360   3.876   4.629  0.1796 -1.0386  0.4850
10031TIP3   OH230045   2.212   1.591   0.183 -0.0455 -0.6258 -0.0235
10031TIP3    H130046   2.174   1.520   0.235 -1.0225 -1.0032 -1.2093
10031TIP3    H230047   2.300   1.604   0.219 -0.1906 -1.8213  0.7826
10032TIP3   OH230048   3.602   4.779   4.211  0.2407  0.1395 -0.3767
10032TIP3    H130049   3.557   4.716   4.267 -0.0014  0.4767 -0.1929
10032TIP3    H230050   3.568   4.763   4.123  0.8099 -0.5651 -0.4748
10033TIP3   OH230051   1.451   0.371   0.263  0.1693  0.2631 -0.8274
10033TIP3    H130052   1.428   0.325   0.183 -0.3855  0.5700 -0.8510
10033TIP3    H230053   1.471   0.302   0.326 -3.8305 -0.1529  0.0922
10034TIP3   OH230054   4.758   4.178   4.351 -1.0792 -0.4004 -0.3431
10034TIP3    H130055   4.806   4.253   4.386 -1.5117  0.1837 -0.9738
10034TIP3    H230056   4.803   4.102   4.387  0.3331  0.1340 -0.9109
10035TIP3   OH230057   4.897   3.423   5.014 -0.1950 -0.8681  0.0556
10035TIP3    H130058   4.822   3.463   5.059  1.0550  2.3824 -0.5997
10035TIP3    H230059   4.869   3.416   4.923 -0.4541 -1.5941  0.1909
10036TIP3   OH230060   4.272   2.774   3.996 -0.3826  0.3186  0.1649
10036TIP3    H130061   4.205   2.828   3.954  0.1274  0.8747  0.0667
10036TIP3    H230062   4.224   2.723   4.062 -0.4287  3.1063  2.4110
10037TIP3   OH230063   3.324   5.809   5.705  0.4031 -0.4860  0.3823
10037TIP3    H130064   3.353   5.787   5.616 -0.8972 -0.3574 -0.0897
10037TIP3    H230065   3.358   5.898   5.719 -0.4889  0.0187 -0.5094
10038TIP3   OH230066   6.014   5.179   4.393 -0.0635 -0.0214 -0.4140
10038TIP3    H130067   6.109   5.169   4.406 -0.3485 -0.3178  1.7696
10038TIP3    H230068   5.980   5.187   4.482 -2.3147 -1.8727 -1.0765
10039TIP3   OH230069   6.944   6.201   0.028  0.4895  0.1984  0.3308
10039TIP3    H130070   6.937   6.258   0.105  0.4234  1.5697 -0.6757
10039TIP3    H230071   6.910   6.116   0.058  2.5904  0.0585  2.4742
10040TIP3   OH230072   4.234   4.436   6.113  0.3303 -0.1244  0.5287
10040TIP3    H130073   4.235   4.504   6.181 -0.3739 -0.5546  0.9816
10040TIP3    H230074   4.181   4.473   6.042  0.7303  0.1709  0.3879
10041TIP3   OH230075   6.655   3.896   5.585  0.5337 -0.5596  0.6674
10041TIP3    H130076   6.667   3.988   5.559  0.8316 -0.7448  0.1505
10041TIP3    H230077   6.702   3.888   5.668  2.9037 -0.9541 -0.6803
10042TIP3   OH230078   4.561   4.506   6.174 -0.3712 -0.3928  0.1175
10042TIP3    H130079   4.544   4.540   6.261 -0.7951  0.6786 -0.3770
10042TIP3    H230080   4.582   4.414   6.188  0.2857 -0.0517  1.4181
10043TIP3   OH230081   6.448   3.807   4.737 -0.1616  0.0378  0.6446
10043TIP3    H130082   6.497   3.854   4.805 -0.9727  0.3182  1.0307
10043TIP3    H230083   6.367   3.780   4.779 -0.9648  0.7834 -0.3981
10044TIP3   OH230084   1.043   1.639   3.750  0.1699  0.2747 -0.2720
10044TIP3    H130085   1.027   1.555   3.794  1.2480 -0.1854 -0.7404
10044TIP3    H230086   0.979   1.641   3.679 -1.5322  0.9891  1.2506
10045TIP3   OH230087   3.927   4.663   4.798  0.5483 -0.2041 -0.1849
10045TIP3    H130088   3.832   4.649   4.796  0.3030  1.2492  0.8458
10045TIP3    H230089   3.964   4.574   4.796 -0.8858 -0.9049  2.1153
10046TIP3   OH230090   5.200   2.184   5.582  0.6775  0.3041 -0.5505
10046TIP3    H130091   5.134   2.122   5.613  2.8297 -1.8173  0.0059
10046TIP3    H230092   5.166   2.270   5.604 -0.7588 -0.8726  1.9576
10047TIP3   OH230093   2.700   5.519   6.200 -0.1663 -0.0695  0.1756
10047TIP3    H130094   2.785   5.562   6.191  0.7004 -1.6735  0.4239
10047TIP3    H230095   2.673   5.537   6.290 -0.5050  1.1711 -0.1710
10048TIP3   OH230096   7.307   4.872   4.333  0.2917 -0.4754  0.2417
10048TIP3    H130097   7.224   4.835   4.364 -1.2004  1.1091 -1.6699
10048TIP3    H230098   7.321   4.948   4.389 -1.2973  1.1503 -1.4776
10049TIP3   OH230099   0.544   2.734   2.311 -0.2385 -0.4961 -0.1287
10049TIP3    H130100   0.544   2.755   2.218 -0.8218 -0.7294 -0.1882
10049TIP3    H230101   0.472   2.785   2.347 -2.7103 -3.4876 -0.5645
10050TIP3   OH230102   4.317   4.134   5.616  0.1443  0.2872  0.3994
10050TIP3    H130103   4.351   4.174   5.536  0.4356 -1.3897 -0.3498
10050TIP3    H230104   4.389   4.078   5.646 -0.8656 -0.9941  0.4507
10051TIP3   OH230105   5.250   5.203   4.288 -0.0680 -0.2134 -0.0918
10051TIP3    H130106   5.167   5.225   4.330  0.5168  0.2295  0.8560
10051TIP3    H230107   5.226   5.161   4.206 -1.2382 -1.7098  1.0063
10052TIP3   OH230108   3.953   3.537   4.843 -0.0054  0.0513  0.1448
10052TIP3    H130109   4.017   3.606   4.861 -0.2753  0.5980 -0.9436
10052TIP3    H230110   3.998   3.480   4.780 -0.8203  0.8049 -1.1424
10053TIP3   OH230111   4.951   4.212   5.363 -0.2081  0.8200 -0.1028
10053TIP3    H130112   4.947   4.181   5.273  0.6900 -0.0151  0.1377
10053TIP3    H230113   5.027   4.269   5.365 -0.8637  1.7152 -0.1263
10054TIP3   OH230114   2.167   3.680   6.219  0.8336 -0.0357 -0.3440
10054TIP3    H130115   2.203   3.753   6.268 -0.6838 -1.0709  2.4506
10054TIP3    H230116   2.242   3.642   6.173  2.1706  1.4486  0.5812
10055TIP3   OH230117   5.681   5.867   6.412  0.2644 -0.4544 -0.3883
10055TIP3    H130118   5.602   5.815   6.405  0.2856 -0.5858  0.3617
10055TIP3    H230119   5.655   5.944   6.463  0.6383 -0.5381 -0.0685
10056TIP3   OH230120   4.195   3.287   5.182  0.3926 -0.0213 -0.3315
10056TIP3    H130121   4.224   3.324   5.265 -0.3332 -0.4214  0.1037
10056TIP3    H230122   4.260   3.317   5.118 -0.7218  2.8892 -0.1865
10057TIP3   OH230123   5.023   5.190   6.338  0.1766 -0.0854 -0.3812
10057TIP3    H130124   4.997   5.213   6.428  1.9009  0.8690 -0.1046
10057TIP3    H230125   4.954   5.226   6.283 -0.6440 -0.2352  0.5324
10058TIP3   OH230126   4.263   2.955   6.293  0.4848  0.0411 -0.3755
10058TIP3    H130127   4.326   3.026   6.276  1.2668 -0.1792  1.3967
10058TIP3    H230128   4.179   3.000   6.302  0.7076  0.5662 -0.8662
10059TIP3   OH230129   6.670   5.373   6.321 -0.3868  0.5882 -0.2112
10059TIP3    H130130   6.597   5.346   6.266 -0.6847 -0.6451  0.7616
10059TIP3    H230131   6.683   5.465   6.301 -0.3639  0.1136 -2.4835
10060TIP3   OH230132   5.019   4.253   4.774  0.1850  0.2489 -0.1918
10060TIP3    H130133   5.047   4.265   4.865  0.0316  0.1315 -0.1281
10060TIP3    H230134   5.023   4.341   4.736  1.3329  0.1204 -0.3893
10061TIP3   OH230135   2.148   5.143   5.919 -0.3445  0.0179  0.1380
10061TIP3    H130136   2.233   5.140   5.963 -0.4231 -1.3232  0.2049
10061TIP3    H230137   2.166   5.187   5.836  0.7132 -1.5945 -0.4972
10062TIP3   OH230138   2.213   4.884   6.290 -0.3195 -0.0387  0.3759
10062TIP3    H130139   2.235   4.975   6.311 -0.9483  0.1556  0.2093
10062TIP3    H230140   2.195   4.885   6.196  0.8981 -0.5880  0.1252
10063TIP3   OH230141   0.325   1.307   0.636 -0.1735 -0.0599  0.2654
10063TIP3    H130142   0.366   1.340   0.716 -1.1201  0.6088  0.4724
10063TIP3    H230143   0.236   1.341   0.638 -1.1651 -2.5836  0.4529
10064TIP3   OH230144   0.301   1.633   0.028 -0.2636  0.7145 -0.1532
10064TIP3    H130145   0.328   1.660   0.115 -0.3619  1.7474 -0.4407
10064TIP3    H230146   0.211   1.602   0.040  0.6456 -1.7793  0.6107
10065TIP3   OH230147   2.953   7.272   5.386  0.2647  0.8694 -0.1516
10065TIP3    H130148   2.946   7.185   5.425  1.8137  0.9230  0.3029
10065TIP3    H230149   2.887   7.324   5.431 -2.0020 -0.5279 -1.7777
10066TIP3   OH230150   0.768   1.940   0.222  0.2323 -0.2652  0.4405
10066TIP3    H130151   0.831   1.889   0.170 -0.9237 -1.1287 -0.1567
10066TIP3    H230152   0.754   1.888   0.301 -1.7546 -1.4592 -0.6457
10067TIP3   OH230153   1.183   2.052   0.314 -0.1460  0.1422 -0.0793
10067TIP3    H130154   1.269   2.041   0.273 -0.6242 -0.3808 -0.9776
10067TIP3    H230155   1.155   2.140   0.288  0.5638  0.7097  1.0767
10068TIP3   OH230156   3.041   0.892   0.064 -0.6335 -0.2943 -0.4795
10068TIP3    H130157   3.054   0.885   0.158 -1.0377  2.7414 -0.1367
10068TIP3    H230158   2.946   0.897   0.053 -0.5337  1.4712 -0.8075
10069TIP3   OH230159   2.508   2.615   0.778 -0.2471  0.1168  0.7738
10069TIP3    H130160   2.437   2.612   0.714  0.2154 -1.1240  0.3044
10069TIP3    H230161   2.481   2.552   0.846 -0.7259  1.3992  1.8065
10070TIP3   OH230162   4.484   4.074   4.999  0.3144  0.4774 -0.2543
10070TIP3    H130163   4.458   4.149   5.052  0.9021  0.6506 -0.2050
10070TIP3    H230164   4.539   4.112   4.930 -1.0696  0.3653 -1.4484
10071TIP3   OH230165   1.538   1.161   2.000  0.2039 -0.2576  0.5892
10071TIP3    H130166   1.456   1.210   2.008 -0.0708 -0.4486 -0.8100
10071TIP3    H230167   1.597   1.221   1.955  0.4501 -0.5537  0.5133
10072TIP3   OH230168   5.884   5.458   6.311  0.3338 -0.2138  0.9031
10072TIP3    H130169   5.790   5.447   6.326  0.1860 -0.9832 -0.5141
10072TIP3    H230170   5.906   5.539   6.358 -1.4295  1.0070 -0.2744
10073TIP3   OH230171   7.699   3.061   1.367 -0.6476  0.1970  0.3233
10073TIP3    H130172   7.760   3.062   1.441  0.3251  0.0904 -0.4703
10073TIP3    H230173   7.746   3.015   1.298 -1.0843  1.3614 -0.7526
10074TIP3   OH230174   3.898   5.025   2.833 -0.7542 -0.6279 -0.2972
10074TIP3    H130175   3.977   5.012   2.885 -1.1500 -1.0615  0.1878
10074TIP3    H230176   3.848   4.944   2.843 -0.3432 -1.1513 -2.2036
10075TIP3   OH230177   3.160   0.433   4.857  0.0175 -0.0222  0.1317
10075TIP3    H130178   3.172   0.339   4.845 -0.2628 -0.2345  1.4209
10075TIP3    H230179   3.082   0.440   4.913  1.3988  0.8783  1.9885
10076TIP3   OH230180   3.378   5.630   3.986  0.1578  0.1095  0.2457
10076TIP3    H130181   3.394   5.698   4.052 -2.2932 -0.4246  1.4625
10076TIP3    H230182   3.444   5.564   4.004  0.5444  0.7274  1.1474
10077TIP3   OH230183   5.409   6.886   6.049 -0.3181 -0.2258  0.2089
10077TIP3    H130184   5.382   6.802   6.086 -1.6712 -0.7851 -1.9798
10077TIP3    H230185   5.386   6.880   5.956  2.3650  1.3897 -0.6143
10078TIP3   OH230186   3.408   2.889   4.798  0.2573 -0.2266  0.3685
10078TIP3    H130187   3.422   2.799   4.827 -3.1274 -0.2037  2.3378
10078TIP3    H230188   3.351   2.880   4.722  0.6503  0.2420  0.0171
10079TIP3   OH230189   6.693   0.539   4.210 -0.3522  0.3755  0.0511
10079TIP3    H130190   6.650   0.470   4.159  1.2676 -0.3216 -0.3895
10079TIP3    H230191   6.702   0.501   4.298  0.8307 -0.1003 -0.2738
10080TIP3   OH230192   5.159   4.486   4.985  0.1928 -0.6442  0.2539
10080TIP3    H130193   5.131   4.510   5.073 -0.6847  0.5936 -0.3433
10080TIP3    H230194   5.098   4.417   4.958 -0.7599  0.3219 -0.1048
10081TIP3   OH230195   7.620   5.736   0.722  0.4331 -0.2145 -0.7316
10081TIP3    H130196   7.564   5.717   0.647  0.7352  0.2447 -1.0719
10081TIP3    H230197   7.559   5.755   0.794  0.1407 -1.2343 -0.7081
10082TIP3   OH230198   4.468   4.565   6.407 -0.0351 -0.4271 -0.0853
10082TIP3    H130199   4.477   4.472   6.427  0.2740 -0.4154 -0.1671
10082TIP3    H230200   4.508   4.610   6.481 -0.5150 -0.3501  0.1317
10083TIP3   OH230201   3.782   4.125   4.655 -0.0146  0.4321 -0.1358
10083TIP3    H130202   3.693   4.120   4.688  0.3652 -0.2960  0.7984
10083TIP3    H230203   3.802   4.036   4.626  0.6948  0.4055  0.4157
10084TIP3   OH230204   4.439   4.037   5.335 -0.0360  0.1733 -0.2395
10084TIP3    H130205   4.455   4.132   5.340  2.6223 -0.2464 -0.2501
10084TIP3    H230206   4.487   4.000   5.409 -2.3525 -1.0528  0.6990
10085TIP3   OH230207   5.889   1.995   5.071 -0.2708 -0.2644  0.0747
10085TIP3    H130208   5.964   2.048   5.043 -1.1561  0.1652 -1.5222
10085TIP3    H230209   5.919   1.904   5.062  0.7685 -0.0824  1.4816
10086TIP3   OH230210   4.252   5.564   6.442 -0.6897 -0.2974  0.1358
10086TIP3    H130211   4.186   5.532   6.380 -2.3589  0.5884  1.4248
10086TIP3    H230212   4.227   5.655   6.459  0.5269 -0.1309  1.0946
10087TIP3   OH230213   3.198   4.378   4.515 -0.2212  0.2371  0.2637
10087TIP3    H130214   3.213   4.462   4.558 -1.7180 -0.6189  2.5792
10087TIP3    H230215   3.102   4.369   4.513 -0.0696 -1.8228  0.9206
10088TIP3   OH230216   3.952   5.160   3.921 -0.5163  0.0335 -0.0061
10088TIP3    H130217   3.999   5.110   3.987 -2.2740 -0.7252  0.7026
10088TIP3    H230218   4.004   5.240   3.909  0.3433 -0.2895  1.5444
10089TIP3   OH230219   1.254   0.537   5.918  0.3032  0.0995  0.1755
10089TIP3    H130220   1.274   0.590   5.996 -1.8539  1.5580 -0.2354
10089TIP3    H230221   1.171   0.572   5.885  1.1386 -0.5322 -2.7624
10090TIP3   OH230222   7.849   4.263   6.360  0.0757  0.6054 -0.3350
10090TIP3    H130223   7.781   4.261   6.428  0.4777  0.2166  0.0586
10090TIP3    H230224   7.887   4.175   6.362  0.0356  0.5730 -1.1245
10091TIP3   OH230225   1.677   2.175   1.027 -0.5101 -0.2786 -0.0960
10091TIP3    H130226   1.749   2.234   1.049 -0.0152 -1.3579  1.2764
10091TIP3    H230227   1.703   2.136   0.943 -0.3690  0.6872 -0.5109
10092TIP3   OH230228   1.963   1.988   2.130  0.3126 -0.3749 -0.2100
10092TIP3    H130229   1.873   2.004   2.161  0.9839  0.2621  1.4589
10092TIP3    H230230   1.952   1.930   2.054 -1.5050 -0.3303 -0.0086
10093TIP3   OH230231   1.315   1.047   2.180 -0.2438 -0.1964  0.4832
10093TIP3    H130232   1.258   1.112   2.137 -0.8212 -0.2516  1.1542
10093TIP3    H230233   1.366   1.009   2.108  0.9671  1.8363  0.2083
10094TIP3   OH230234   6.185   6.873   2.225  0.4651  0.3382 -0.4144
10094TIP3    H130235   6.158   6.887   2.316  0.7796 -2.1248  0.1091
10094TIP3    H230236   6.275   6.908   2.222  0.6034  0.0713  0.3409
10095TIP3   OH230237   2.929   1.658   0.279 -0.8018  0.6433 -0.4889
10095TIP3    H130238   2.914   1.734   0.336 -0.1534  1.1048 -0.9219
10095TIP3    H230239   2.860   1.663   0.213 -2.3352 -0.6184  0.9964
10096TIP3   OH230240   6.412   3.451   6.090 -0.2626  0.0933 -0.0284
10096TIP3    H130241   6.371   3.448   6.004  0.9128 -2.2445 -0.5456
10096TIP3    H230242   6.345   3.417   6.150 -0.5756  0.3610 -0.2248
10097TIP3   OH230243   2.401   4.073   6.310  0.1841  0.1102  0.2923
10097TIP3    H130244   2.442   4.001   6.262  0.4969 -0.6050  1.6057
10097TIP3    H230245   2.446   4.152   6.279 -0.1756 -0.2436 -1.1627
10098TIP3   OH230246   3.151   6.642   3.891  0.2148  0.7482 -0.1627
10098TIP3    H130247   3.073   6.677   3.934  0.9292  2.6373 -0.3225
10098TIP3    H230248   3.139   6.663   3.798  0.5791  0.4045 -0.2901
10099TIP3   OH230249   7.345   7.339   0.544  0.3030 -0.1997 -0.3461
10099TIP3    H130250   7.390   7.341   0.629 -0.7449  1.3816  0.1809
10099TIP3    H230251   7.371   7.420   0.501 -1.0245  0.1114 -0.5684
10100TIP3   OH230252   2.087   6.835   0.162 -0.1197 -0.3863 -0.4501
10100TIP3    H130253   2.037   6.882   0.229  0.2841 -1.3864  0.5644
10100TIP3    H230254   2.125   6.904   0.108 -0.5192  0.4312  0.3032
10101TIP3   OH230255   3.753   5.603   4.139 -0.1520 -1.0147  0.4043
10101TIP3    H130256   3.788   5.679   4.093 -2.6058 -0.5856 -0.8315
10101TIP3    H230257   3.703   5.556   4.073  0.1780 -2.9737  1.5096
10102TIP3   OH230258   1.763   0.306   3.192  0.9742  0.2310  0.4041
10102TIP3    H130259   1.707   0.383   3.200 -0.4643 -0.9111  1.5391
10102TIP3    H230260   1.816   0.306   3.271  2.8399  1.4773 -0.8083
10103TIP3   OH230261   3.594   3.344   4.794 -0.3201 -0.6937  0.3481
10103TIP3    H130262   3.539   3.331   4.717 -1.0752  0.6966  0.6414
10103TIP3    H230263   3.600   3.257   4.833 -1.9390 -0.9597  0.0570
10104TIP3   OH230264   3.854   4.143   6.059  0.6715 -0.3585  0.1524
10104TIP3    H130265   3.872   4.106   5.972  0.8394 -0.2005  0.1190
10104TIP3    H230266   3.940   4.173   6.090  0.5768 -0.2313  0.2890
10105TIP3   OH230267   4.626   3.314   5.446 -0.5204  0.3251 -0.1053
10105TIP3    H130268   4.614   3.336   5.354 -0.0399 -2.2684 -0.8414
10105TIP3    H230269   4.546   3.267   5.471 -0.1850  0.0603  0.4929
10106TIP3   OH230270   2.458   1.029   2.476 -0.4389  0.0192  0.1358
10106TIP3    H130271   2.545   1.033   2.517 -1.1193  0.4921  1.5947
10106TIP3    H230272   2.476   1.023   2.382  1.1752 -0.5355  0.4560
10107TIP3   OH230273   3.149   3.619   4.997 -0.1818 -0.4357  0.1469
10107TIP3    H130274   3.154   3.626   4.902  0.4636 -3.0628 -0.0736
10107TIP3    H230275   3.240   3.627   5.026 -0.2176 -0.9308  0.4070
10108TIP3   OH230276   3.363   3.940   5.196 -0.3542  0.6561  0.4991
10108TIP3    H130277   3.330   3.969   5.111 -2.4165 -1.3890  0.5558
10108TIP3    H230278   3.458   3.938   5.186 -0.5093  1.7781 -1.3039
10109TIP3   OH230279   5.408   4.321   5.306  0.1520 -0.1018  0.4609
10109TIP3    H130280   5.394   4.282   5.392  0.6195  1.3400  1.2047
10109TIP3    H230281   5.338   4.385   5.297  0.7556  0.5305  0.2427
10110TIP3   OH230282   7.389   1.465   0.452 -0.5310  0.0564  0.0626
10110TIP3    H130283   7.351   1.377   0.461  0.3113 -0.2097  1.2107
10110TIP3    H230284   7.320   1.524   0.483 -1.4032 -0.1306 -1.4934
10111TIP3   OH230285   2.732   2.225   1.194  0.7847 -0.3585 -0.6967
10111TIP3    H130286   2.737   2.136   1.160  0.4821 -1.1484  1.2262
10111TIP3    H230287   2.639   2.240   1.208  1.1235 -1.7817  3.9548
10112TIP3   OH230288   2.439   1.136   0.107  0.4534 -0.3680 -0.2085
10112TIP3    H130289   2.376   1.091   0.163  0.2102 -0.5743 -0.6450
10112TIP3    H230290   2.522   1.131   0.156  0.5245 -1.6574 -0.4311
10113TIP3   OH230291   2.128   1.669   2.045  0.3990  0.1213  0.2476
10113TIP3    H130292   2.193   1.739   2.050  0.3539  0.2058 -0.2640
10113TIP3    H230293   2.055   1.708   1.997  0.2580 -0.1885  0.2112
10114TIP3   OH230294   1.246   1.116   3.163 -0.7126  0.7240  0.3162
10114TIP3    H130295   1.320   1.175   3.154 -2.0667  2.1951 -1.7260
10114TIP3    H230296   1.212   1.133   3.251  1.6265 -0.3175  1.4551
10115TIP3   OH230297   2.318   0.371   1.882  0.0019  0.9836 -0.0180
10115TIP3    H130298   2.340   0.461   1.858 -0.1314  0.8478 -0.6374
10115TIP3    H230299   2.359   0.360   1.968  0.3093  1.5245 -0.0867
10116TIP3   OH230300   5.080   1.949   1.401 -0.2110  0.9618  0.2391
10116TIP3    H130301   5.167   1.966   1.364 -0.6364  0.4780 -1.0177
10116TIP3    H230302   5.083   1.989   1.488  1.6871 -0.1223  0.7123
10117TIP3   OH230303   2.842   0.397  -0.021  0.2059 -0.1003  0.2905
10117TIP3    H130304   2.787   0.457   0.030 -0.6874 -0.7959  0.1697
10117TIP3    H230305   2.847   0.317   0.033  0.0681 -0.4868 -0.2674
10118TIP3   OH230306   3.431   6.706   5.210 -0.4546 -0.2482  0.1513
10118TIP3    H130307   3.382   6.713   5.292 -1.3191  0.8923 -0.4472
10118TIP3    H230308   3.431   6.795   5.174  1.4201 -0.3771 -0.2358
10119TIP3   OH230309   1.271   0.704   1.221 -0.4103 -0.3278  0.1209
10119TIP3    H130310   1.325   0.783   1.226 -0.1174 -0.5523  0.5641
10119TIP3    H230311   1.204   0.725   1.156  0.3167 -0.1206 -0.5705
10120TIP3   OH230312   4.373   4.961   5.436  0.0396  0.1750  0.4791
10120TIP3    H130313   4.394   4.985   5.526  0.3266 -2.2860  1.1155
10120TIP3    H230314   4.441   4.897   5.413 -1.6104 -1.2428 -0.5258
10121TIP3   OH230315   4.215   3.608   4.737 -0.2749  0.3000  0.0339
10121TIP3    H130316   4.311   3.612   4.727 -0.4678  0.1498 -2.0536
10121TIP3    H230317   4.187   3.699   4.730 -0.4787  0.1231 -1.7466
10122TIP3   OH230318   2.780   5.888   4.899  1.4545  0.2834  0.0220
10122TIP3    H130319   2.812   5.800   4.878  2.9224  0.7429  0.2564
10122TIP3    H230320   2.696   5.873   4.943  1.8074 -1.0119  0.2731
10123TIP3   OH230321   5.668   4.707   2.193 -0.4166  0.1120 -0.0649
10123TIP3    H130322   5.696   4.789   2.150 -1.3856  0.2825 -0.3760
10123TIP3    H230323   5.742   4.683   2.249  1.1827 -0.5101 -2.3895
10124TIP3   OH230324   3.049   6.185   5.935 -0.3082  0.2488  0.0453
10124TIP3    H130325   3.067   6.198   5.841  0.3438  0.9688  0.2630
10124TIP3    H230326   3.122   6.227   5.979 -0.8958  0.3772  0.9003
10125TIP3   OH230327   3.510   5.242   5.222  0.3695 -0.0875 -0.0609
10125TIP3    H130328   3.541   5.331   5.240 -1.7422  1.0048 -1.6575
10125TIP3    H230329   3.416   5.245   5.240  0.4467 -2.2877  0.8639
10126TIP3   OH230330   4.866   5.728   6.302 -0.6794 -0.0071 -0.6052
10126TIP3    H130331   4.775   5.728   6.272 -0.4129 -1.5828 -1.4644
10126TIP3    H230332   4.894   5.819   6.292 -1.3698 -0.0010 -2.7781
10127TIP3   OH230333   1.802   0.959   0.842  0.6818 -0.6718 -0.2141
10127TIP3    H130334   1.869   0.924   0.901  0.4251 -0.3165  0.2934
10127TIP3    H230335   1.723   0.962   0.896  0.0102 -2.0249 -1.0920
10128TIP3   OH230336   4.801   4.597   4.279  0.0233  0.1633 -0.0522
10128TIP3    H130337   4.844   4.650   4.345 -0.6212 -0.3246  0.7635
10128TIP3    H230338   4.786   4.512   4.321  0.2236 -0.3736 -1.0379
10129TIP3   OH230339   7.714   3.853   4.653  0.1401 -0.3530  0.1215
10129TIP3    H130340   7.619   3.858   4.641  0.1467 -0.2970  0.0951
10129TIP3    H230341   7.726   3.819   4.741  0.0911  2.0376  1.0850
10130TIP3   OH230342   6.944   3.613   5.743 -0.3427 -0.3693  0.0670
10130TIP3    H130343   6.936   3.707   5.760 -0.9985 -0.4370  0.1472
10130TIP3    H230344   6.964   3.575   5.828 -0.5417 -0.3556  0.1200
10131TIP3   OH230345   6.877   5.742   5.290  0.2366  0.2453 -0.6370
10131TIP3    H130346   6.889   5.811   5.225 -0.6396 -0.7302 -1.8743
10131TIP3    H230347   6.816   5.780   5.353 -1.4709  0.1128 -2.1349
10132TIP3   OH230348   6.620   5.495   5.475 -0.0357  0.1676 -0.4496
10132TIP3    H130349   6.661   5.543   5.547  1.1884 -1.7561  0.1898
10132TIP3    H230350   6.560   5.434   5.518  1.4001 -1.6529 -0.9487
10133TIP3   OH230351   5.830   5.124   5.646 -0.1729 -0.4632 -0.2734
10133TIP3    H130352   5.740   5.151   5.626 -0.2465 -0.6890 -0.2586
10133TIP3    H230353   5.841   5.042   5.598 -0.0904 -0.6118 -0.0029
10134TIP3   OH230354   7.056   2.745   5.591 -0.1788  1.0145 -0.5340
10134TIP3    H130355   6.986   2.723   5.653  1.0632  3.7379  1.9427
10134TIP3    H230356   7.134   2.702   5.626 -0.1388 -0.2037 -2.0869
10135TIP3   OH230357   0.081   0.520   0.044 -0.2421  0.0605 -0.3579
10135TIP3    H130358   0.075   0.425   0.033  0.7138  0.1331 -1.7008
10135TIP3    H230359   0.148   0.532   0.111  1.1493 -0.1747 -1.6860
10136TIP3   OH230360   0.216   6.120   5.856 -0.2710 -0.1703  0.2322
10136TIP3    H130361   0.148   6.078   5.909 -0.3211  1.0326  1.1488
10136TIP3    H230362   0.288   6.136   5.917  0.2595 -0.1128 -0.4020
10137TIP3   OH230363   6.885   3.259   5.613  0.8714  0.2192  0.1759
10137TIP3    H130364   6.888   3.350   5.581  0.7058 -0.6219 -2.3120
10137TIP3    H230365   6.868   3.207   5.535 -1.0410 -1.8078  1.8832
10138TIP3   OH230366   4.401   4.088   6.040  0.0879 -0.2827 -0.0977
10138TIP3    H130367   4.353   4.039   6.107  1.5129 -1.0849  0.3785
10138TIP3    H230368   4.419   4.173   6.080 -0.1207 -0.3256  0.0858
10139TIP3   OH230369   3.805   6.762   3.365  0.3312  0.5817  0.3949
10139TIP3    H130370   3.778   6.670   3.361  0.4907  0.4206  2.3408
10139TIP3    H230371   3.730   6.810   3.329 -0.4900 -0.2078  1.0022
10140TIP3   OH230372   5.223   5.953   5.640  0.0533  0.2754 -0.2586
10140TIP3    H130373   5.307   5.908   5.636  0.5085  1.2165 -1.9787
10140TIP3    H230374   5.232   6.026   5.578 -1.9892  0.4438 -0.3937
10141TIP3   OH230375   2.615   2.037   0.715 -0.0505 -0.8369  0.1475
10141TIP3    H130376   2.607   2.054   0.622  0.1134  1.8448  0.5800
10141TIP3    H230377   2.547   1.973   0.734 -1.7832  0.5055 -1.3449
10142TIP3   OH230378   4.446   4.562   5.939  0.2172 -0.3301  0.0988
10142TIP3    H130379   4.415   4.474   5.917  0.2673  0.1446 -2.0375
10142TIP3    H230380   4.499   4.551   6.018  0.3097 -2.2373 -0.2162
10143TIP3   OH230381   0.840   6.483   2.003  0.3638 -0.3534 -0.5108
10143TIP3    H130382   0.934   6.463   2.005  0.7319  1.3932  0.2818
10143TIP3    H230383   0.805   6.427   1.934  1.9181 -1.3373 -0.5167
10144TIP3   OH230384   7.504   5.413   3.189 -0.2830 -0.1460  0.1381
10144TIP3    H130385   7.555   5.494   3.187 -0.6174  0.0430 -0.7299
10144TIP3    H230386   7.569   5.344   3.202  0.1270  0.1496 -0.3259
10145TIP3   OH230387   1.380   0.537   1.863 -0.1001 -0.0484  0.3001
10145TIP3    H130388   1.424   0.575   1.787 -1.4089  1.3851  0.2110
10145TIP3    H230389   1.330   0.464   1.828 -1.7159  1.3824 -0.4957
10146TIP3   OH230390   4.075   2.880   4.726 -0.0777  0.2127  0.5959
10146TIP3    H130391   3.994   2.851   4.767  0.2302  0.2701  1.2618
10146TIP3    H230392   4.103   2.955   4.779  0.6195 -0.0637  0.6241
10147TIP3   OH230393   1.781   2.149   0.476  0.1853  0.3612  0.0313
10147TIP3    H130394   1.745   2.222   0.527 -1.6024 -0.1323 -0.5293
10147TIP3    H230395   1.789   2.183   0.387 -0.9822 -0.2428 -0.3039
10148TIP3   OH230396   7.918   3.091   4.950  0.2286 -0.3520  0.0694
10148TIP3    H130397   7.907   3.021   5.015 -1.3460  0.2050  0.4290
10148TIP3    H230398   7.829   3.119   4.929  0.7533  0.0948 -1.6801
10149TIP3   OH230399   6.209   5.023   0.016 -0.7116  0.1663  0.6705
10149TIP3    H130400   6.122   5.010   0.052 -0.3993  1.2664  1.8152
10149TIP3    H230401   6.267   5.029   0.092  0.5398 -1.7410 -0.0968
10150TIP3   OH230402   4.444   5.883   5.069  0.5396 -0.3559 -0.5635
10150TIP3    H130403   4.465   5.950   5.134  1.5037 -0.6445 -0.5803
10150TIP3    H230404   4.466   5.800   5.111 -1.1036 -0.7226 -0.3589
10151TIP3   OH230405   2.563   2.916   1.652  0.1285 -0.0232  0.5337
10151TIP3    H130406   2.607   2.970   1.587  0.7530 -0.4214  0.6182
10151TIP3    H230407   2.600   2.945   1.736 -0.3113  0.1476  0.6704
10152TIP3   OH230408   3.400   4.605   6.097 -0.1506  0.1798 -0.1512
10152TIP3    H130409   3.420   4.637   6.185  0.3014 -0.5992  0.0307
10152TIP3    H230410   3.390   4.685   6.045  1.2427  0.6328  0.2375
10153TIP3   OH230411   2.160   5.945   6.439  0.0187  0.1722  0.1865
10153TIP3    H130412   2.213   5.880   6.393  2.0319  0.3054  2.2196
10153TIP3    H230413   2.086   5.895   6.473  0.0277 -0.4876 -0.7549
10154TIP3   OH230414   1.880   0.517   0.730  0.1411 -0.1649  0.0259
10154TIP3    H130415   1.954   0.470   0.692  0.5883  0.4167  0.1770
10154TIP3    H230416   1.875   0.487   0.820  0.1752 -0.2227  0.0084
10155TIP3   OH230417   2.997   1.515   0.507 -0.0209 -0.3678 -0.7929
10155TIP3    H130418   2.967   1.569   0.434 -0.4075  0.0384 -0.3376
10155TIP3    H230419   2.991   1.425   0.474 -1.6914 -0.2974 -0.7558
10156TIP3   OH230420   0.608   7.007   0.456  0.3512  0.4288  0.2749
10156TIP3    H130421   0.636   7.001   0.364 -2.1041 -0.0677 -0.5126
10156TIP3    H230422   0.638   6.925   0.495 -0.3820 -0.3200 -0.6695
10157TIP3   OH230423   1.024   1.306   0.375 -0.2987 -0.3236 -0.0937
10157TIP3    H130424   1.107   1.353   0.384 -0.7992  0.4039  0.7945
10157TIP3    H230425   1.049   1.221   0.338  0.9955 -0.6021  1.3671
10158TIP3   OH230426   2.197   3.124   1.200 -0.2448 -0.3819  0.3423
10158TIP3    H130427   2.131   3.081   1.146  0.0808 -0.3018 -0.1268
10158TIP3    H230428   2.167   3.215   1.206  0.8017  0.1129 -1.4702
10159TIP3   OH230429   5.580   6.510   3.482 -0.6648  0.0954 -0.6296
10159TIP3    H130430   5.538   6.451   3.545 -1.6451  0.8056 -0.6133
10159TIP3    H230431   5.517   6.520   3.412 -0.8017  1.6851 -0.2967
10160TIP3   OH230432   4.578   6.105   4.277 -0.3511 -0.2991  0.2423
10160TIP3    H130433   4.584   6.094   4.372  0.0504  1.3324  0.4163
10160TIP3    H230434   4.622   6.188   4.259 -2.3545  0.5155 -1.1068
10161TIP3   OH230435   4.003   6.281   3.823  0.2899  0.3099  0.3954
10161TIP3    H130436   3.987   6.203   3.876 -2.9200  1.3065  1.0082
10161TIP3    H230437   4.067   6.332   3.873  1.3549 -1.2622  0.6612
10162TIP3   OH230438   3.761   5.022   4.893 -0.3374  0.0016  0.6651
10162TIP3    H130439   3.693   5.089   4.898 -0.0938  0.3526 -0.5567
10162TIP3    H230440   3.713   4.939   4.886 -0.6694  0.2988 -0.9062
10163TIP3   OH230441   2.418   4.744   6.368  0.2935  0.5013  0.8395
10163TIP3    H130442   2.336   4.794   6.369 -0.0690 -0.0262 -1.2006
10163TIP3    H230443   2.390   4.653   6.376  0.5141  0.1670 -1.7464
10164TIP3   OH230444   3.326   4.171   5.695  0.0567  0.2845  0.0345
10164TIP3    H130445   3.318   4.077   5.707 -0.7390  0.3064 -0.2838
10164TIP3    H230446   3.330   4.184   5.601  0.9494  0.5163  0.0985
10165TIP3   OH230447   6.737   6.155   5.624  0.1556 -0.1668 -0.5757
10165TIP3    H130448   6.711   6.087   5.685 -2.8944  1.6865  0.3071
10165TIP3    H230449   6.796   6.112   5.562 -1.1237 -3.3825  0.3878
10166TIP3   OH230450   5.939   4.583   4.309 -0.1821  0.3057  0.8086
10166TIP3    H130451   5.985   4.528   4.372  0.0042 -1.5744 -0.8996
10166TIP3    H230452   6.006   4.604   4.243 -1.3401 -1.1912 -0.9038
10167TIP3   OH230453   3.123   0.492   0.156  0.0413 -0.1530 -0.1556
10167TIP3    H130454   3.122   0.558   0.087 -0.2069  0.3695  0.3412
10167TIP3    H230455   3.035   0.494   0.193  0.3488  0.0322  0.5955
10168TIP3   OH230456   3.352   0.038   0.493 -0.1002  0.1959  0.1153
10168TIP3    H130457   3.376   0.127   0.518 -1.0143  0.5383 -0.1918
10168TIP3    H230458   3.424   0.009   0.437  0.0877  0.8345  0.0156
10169TIP3   OH230459   3.892   5.952   5.667  0.3578 -0.3252 -0.5428
10169TIP3    H130460   3.838   5.923   5.741  0.6104  1.5045  0.3943
10169TIP3    H230461   3.982   5.935   5.696  0.4248 -0.3584 -0.7715
10170TIP3   OH230462   5.096   5.009   4.655 -0.3539  0.6593  0.5276
10170TIP3    H130463   5.053   5.018   4.570 -0.3046  0.0925  0.4424
10170TIP3    H230464   5.151   4.931   4.646 -2.0850 -0.7406  1.7973
10171TIP3   OH230465   5.498   4.588   5.577 -0.7737  0.0647 -0.1090
10171TIP3    H130466   5.520   4.610   5.667 -0.4500 -0.4927 -0.0469
10171TIP3    H230467   5.565   4.525   5.550  0.7852  2.2961 -1.6666
10172TIP3   OH230468   0.113   6.294   0.243 -0.0742  0.2573  0.1701
10172TIP3    H130469   0.169   6.277   0.167 -0.6858 -2.1150  0.1936
10172TIP3    H230470   0.138   6.226   0.306 -1.8077  0.2113  0.8241
10173TIP3   OH230471   2.230   6.159   5.714 -0.2602 -0.7227  0.3906
10173TIP3    H130472   2.136   6.175   5.712 -0.2232 -0.3830  1.1878
10173TIP3    H230473   2.270   6.244   5.699 -0.0647 -1.3835 -3.2251
10174TIP3   OH230474   5.548   2.065   4.438 -0.2897  0.0387 -0.1105
10174TIP3    H130475   5.504   2.002   4.495 -0.2521  1.0270  1.0338
10174TIP3    H230476   5.486   2.079   4.366  0.1431 -2.0603 -0.9097
10175TIP3   OH230477   6.298   3.242   5.546 -0.0803 -0.8055  0.5423
10175TIP3    H130478   6.375   3.261   5.600 -1.2098 -0.5428  2.1186
10175TIP3    H230479   6.224   3.273   5.599 -1.1764  0.3281 -1.5839
10176TIP3   OH230480   3.599   6.689   4.705  0.5358  0.0193  0.4059
10176TIP3    H130481   3.593   6.682   4.800 -0.1622 -0.2037  0.3449
10176TIP3    H230482   3.512   6.716   4.677  0.2263 -1.7075 -0.3280
10177TIP3   OH230483   6.224   5.495   5.006  0.1747 -0.0355 -0.1514
10177TIP3    H130484   6.130   5.482   4.995  0.1733  0.3223 -0.5727
10177TIP3    H230485   6.258   5.408   5.026 -0.1843 -0.2418 -0.4413
10178TIP3   OH230486   5.306   7.083   0.566 -0.5214  0.3227  0.3842
10178TIP3    H130487   5.349   7.167   0.553 -0.0027  0.0524  0.3374
10178TIP3    H230488   5.239   7.099   0.633  0.0809  0.5918  0.9176
10179TIP3   OH230489   0.290   6.377   2.595  0.2342 -0.2421 -0.2970
10179TIP3    H130490   0.315   6.419   2.512 -0.3809  1.5233  0.3765
10179TIP3    H230491   0.374   6.361   2.639  0.5074 -0.1732 -0.7760
10180TIP3   OH230492   2.380   5.207   4.416 -0.3149  0.1901  0.5209
10180TIP3    H130493   2.449   5.243   4.473  0.2563 -0.2887  0.1342
10180TIP3    H230494   2.308   5.270   4.424  0.6788  1.4371 -0.1594
10181TIP3   OH230495   2.015   2.657   2.164  0.8876  0.1732 -0.4105
10181TIP3    H130496   1.964   2.576   2.159 -0.0415  0.5846  1.7902
10181TIP3    H230497   2.072   2.645   2.240  1.0349  1.4145 -0.3092
10182TIP3   OH230498   6.191   4.582   4.875 -0.5398 -0.2648  0.0841
10182TIP3    H130499   6.098   4.560   4.871 -0.6320  0.2406 -0.6515
10182TIP3    H230500   6.194   4.677   4.860 -0.0477  0.0096  1.8065
10183TIP3   OH230501   2.157   7.306   0.036 -0.4633 -0.4190 -0.5207
10183TIP3    H130502   2.175   7.304   0.130 -0.7038  0.0065 -0.4685
10183TIP3    H230503   2.062   7.298   0.029 -0.5455  0.7234 -0.6923
10184TIP3   OH230504   2.220   6.711   2.727  0.3330  0.2722  0.0122
10184TIP3    H130505   2.282   6.641   2.751  0.6274  0.2046 -0.9258
10184TIP3    H230506   2.139   6.687   2.772  0.7936 -0.0062  0.7035
10185TIP3   OH230507   6.986   4.986   5.846 -0.3768 -0.3872  0.1722
10185TIP3    H130508   6.946   4.899   5.846 -0.8124 -0.1904  1.6992
10185TIP3    H230509   7.001   5.006   5.938 -0.0676  1.0712 -0.1846
10186TIP3   OH230510   0.052   6.275   4.974 -0.0404  0.2208  0.2447
10186TIP3    H130511   0.059   6.266   4.879  0.1577 -1.1624  0.3815
10186TIP3    H230512  -0.037   6.307   4.989 -0.3887 -0.4741 -0.3418
10187TIP3   OH230513   0.711   0.209   5.229  0.2845  0.3123  0.3013
10187TIP3    H130514   0.660   0.162   5.295  0.3707 -0.9543 -0.5142
10187TIP3    H230515   0.646   0.243   5.168  0.1918  1.6391  1.1154
10188TIP3   OH230516   6.691   4.450   2.432 -0.4622 -0.0120 -0.4264
10188TIP3    H130517   6.690   4.498   2.515 -0.0467  1.0275 -1.0273
10188TIP3    H230518   6.652   4.509   2.369  0.6066 -0.2213 -1.3009
10189TIP3   OH230519   2.468   1.125   1.562 -0.1762  0.2242  0.2375
10189TIP3    H130520   2.385   1.123   1.611 -0.6966  0.0337 -0.6387
10189TIP3    H230521   2.442   1.150   1.473  0.6367 -0.4142 -0.1826
10190TIP3   OH230522   6.927   4.137   3.578 -0.5994 -0.2206  0.2583
10190TIP3    H130523   7.013   4.129   3.619 -0.5590  0.9647  0.4189
10190TIP3    H230524   6.883   4.054   3.597  0.6435 -0.9788 -0.1522
10191TIP3   OH230525   7.101   5.936   5.937 -0.5729  0.3164 -0.2856
10191TIP3    H130526   7.075   5.882   6.011  1.6299  0.4877  0.6412
10191TIP3    H230527   7.119   5.874   5.866 -0.5169  0.0105 -0.0012
10192TIP3   OH230528   3.761   0.570   1.246 -0.3977 -0.1802 -0.2498
10192TIP3    H130529   3.773   0.523   1.328  0.2103 -0.2896 -0.4035
10192TIP3    H230530   3.670   0.599   1.248 -0.0336  0.9078  1.0400
10193TIP3   OH230531   7.574   5.110   6.048 -1.0336  0.5433 -0.8641
10193TIP3    H130532   7.537   5.191   6.012  1.8136  2.0587 -0.5475
10193TIP3    H230533   7.602   5.060   5.971  1.7876  2.1864 -0.9958
10194TIP3   OH230534   1.608   3.834   5.151 -0.0346  0.4319 -0.1941
10194TIP3    H130535   1.668   3.759   5.149  0.0921  0.5285 -2.7389
10194TIP3    H230536   1.637   3.889   5.077 -0.2486  2.8852  1.4954
10195TIP3   OH230537   6.504   3.691   4.477  0.1762  0.2527  0.6050
10195TIP3    H130538   6.431   3.664   4.421 -1.5054  1.5741  2.1335
10195TIP3    H230539   6.465   3.704   4.563  2.3682  0.2476  1.6221
10196TIP3   OH230540   6.130   6.496   3.421 -0.1964 -0.1463 -0.2072
10196TIP3    H130541   6.046   6.455   3.400 -0.1074 -0.4471  0.0171
10196TIP3    H230542   6.107   6.571   3.475 -0.2347 -0.9679  0.9375
10197TIP3   OH230543   6.815   4.646   3.903 -0.0926 -0.2553 -0.1011
10197TIP3    H130544   6.851   4.604   3.825 -0.9922  0.2559 -0.7909
10197TIP3    H230545   6.825   4.740   3.886 -1.1873 -0.1215 -0.0350
10198TIP3   OH230546   0.480   4.498   4.382 -0.4480  0.4115 -0.4293
10198TIP3    H130547   0.398   4.474   4.425 -0.2910  0.7835  0.0698
10198TIP3    H230548   0.516   4.414   4.351 -0.3541  0.1010  0.5189
10199TIP3   OH230549   0.576   3.581   5.142  0.1248 -0.1467  0.3590
10199TIP3    H130550   0.565   3.531   5.223  0.3746  1.3763  1.3504
10199TIP3    H230551   0.563   3.672   5.167  0.4788  0.3788 -1.2654
10200TIP3   OH230552   6.376   0.665   0.315 -0.4767  0.5534 -0.3557
10200TIP3    H130553   6.452   0.653   0.372  0.9123  0.0302 -2.2830
10200TIP3    H230554   6.313   0.601   0.345  0.5118 -0.1974  0.1537
10201TIP3   OH230555   0.895   6.780   4.399 -0.6569  0.0837  0.1209
10201TIP3    H130556   0.931   6.758   4.312  0.2293 -0.7442  0.6868
10201TIP3    H230557   0.805   6.749   4.396 -0.4578 -0.4672 -0.3089
10202TIP3   OH230558   6.680   3.848   5.308  0.6150 -0.2282 -0.3222
10202TIP3    H130559   6.713   3.849   5.398  1.0334 -0.2687 -0.4753
10202TIP3    H230560   6.624   3.925   5.302  0.7615 -0.1052 -0.0927
10203TIP3   OH230561   4.015   0.647   1.075 -0.0394  0.4217  0.0498
10203TIP3    H130562   3.945   0.596   1.116 -1.9894  2.0102 -1.2059
10203TIP3    H230563   4.025   0.608   0.988 -0.2606  1.0156 -0.2414
10204TIP3   OH230564   7.201   4.505   5.451 -0.0958 -0.2263  0.5652
10204TIP3    H130565   7.137   4.482   5.384 -0.5023 -1.6034  1.3992
10204TIP3    H230566   7.195   4.434   5.515  0.8809  0.6360  1.6333
10205TIP3   OH230567   5.814   7.267   4.929 -0.8084 -0.1541  0.5581
10205TIP3    H130568   5.907   7.283   4.918 -1.3766  2.3796 -0.8722
10205TIP3    H230569   5.795   7.193   4.872 -0.2938  1.5180 -1.8566
10206TIP3   OH230570   0.834   5.143   4.868  0.5757 -0.3814  0.4910
10206TIP3    H130571   0.873   5.057   4.852  1.4766  0.4642 -2.2012
10206TIP3    H230572   0.886   5.180   4.939  1.5663 -1.2409  0.2296
10207TIP3   OH230573   3.349   1.519   1.540 -0.4147  0.2238  0.2390
10207TIP3    H130574   3.296   1.552   1.612  1.0149 -1.1889  1.9638
10207TIP3    H230575   3.432   1.566   1.547 -0.1384 -0.1769 -0.2812
10208TIP3   OH230576   6.609   2.192   5.167  0.9145  0.1101 -0.2376
10208TIP3    H130577   6.618   2.212   5.261 -0.0334 -0.6974  0.0339
10208TIP3    H230578   6.652   2.107   5.157  1.7787  0.5971 -0.7065
10209TIP3   OH230579   5.486   0.987   0.519 -0.0638  0.0440  0.0576
10209TIP3    H130580   5.425   1.061   0.515  1.8897  1.6172 -1.9914
10209TIP3    H230581   5.435   0.913   0.486 -1.0513  1.2093 -1.0977
10210TIP3   OH230582   6.663   5.964   3.665 -0.5718 -0.7044 -0.1981
10210TIP3    H130583   6.675   6.019   3.743 -0.7543 -1.5726  0.4608
10210TIP3    H230584   6.641   6.025   3.595 -0.0347  0.1251  0.3522
10211TIP3   OH230585   5.712   6.723   4.495 -0.1548 -0.3571  0.3720
10211TIP3    H130586   5.692   6.770   4.577 -1.9628 -3.0099  1.5362
10211TIP3    H230587   5.650   6.758   4.432 -1.8757 -1.5416  1.3781
10212TIP3   OH230588   4.430   3.867   4.460  0.0506 -0.5326  0.1365
10212TIP3    H130589   4.371   3.818   4.402  0.2674 -0.1217 -0.4462
10212TIP3    H230590   4.517   3.852   4.424 -0.0030  1.2799 -0.8197
10213TIP3   OH230591   6.902   4.997   4.648  0.0514 -0.8341 -0.2379
10213TIP3    H130592   6.884   5.053   4.724  1.4304 -0.1913 -0.3747
10213TIP3    H230593   6.989   4.960   4.664 -0.0587 -1.4704 -1.0404
10214TIP3   OH230594   7.059   3.314   5.837 -0.6357  0.5002 -0.0373
10214TIP3    H130595   7.100   3.229   5.852 -1.2850  0.4738  1.6243
10214TIP3    H230596   7.017   3.306   5.751  0.0896 -0.5351 -0.3001
10215TIP3   OH230597   0.123   4.222   5.235 -0.3459  0.3952 -0.2743
10215TIP3    H130598   0.120   4.269   5.319 -3.4714  0.0962 -0.1571
10215TIP3    H230599   0.104   4.131   5.257  1.0044 -0.0972 -1.0719
10216TIP3   OH230600   0.173   3.416   4.067 -0.4661  0.1827 -0.6139
10216TIP3    H130601   0.131   3.502   4.070 -1.5225 -0.3184 -0.8043
10216TIP3    H230602   0.107   3.356   4.103  1.8930  0.0581  3.7365
10217TIP3   OH230603   1.914   6.706   2.095 -0.3027  0.1311 -0.2936
10217TIP3    H130604   1.839   6.712   2.153  0.5085  1.5096  0.6503
10217TIP3    H230605   1.932   6.612   2.088 -0.1902 -0.0543  2.0069
10218TIP3   OH230606   4.525   1.702   0.568  0.1149 -0.5688 -0.3116
10218TIP3    H130607   4.573   1.766   0.516 -0.4200  0.1982  0.1385
10218TIP3    H230608   4.587   1.630   0.580  0.6086 -0.2810 -1.0818
10219TIP3   OH230609   0.972   5.215   5.314 -0.5111  0.1418  0.2518
10219TIP3    H130610   0.941   5.147   5.374 -0.6531  0.1693  0.2103
10219TIP3    H230611   1.067   5.205   5.313 -0.6377 -1.0551 -0.9416
10220TIP3   OH230612   6.250   6.649   4.801 -0.2448 -0.4957 -0.4493
10220TIP3    H130613   6.156   6.638   4.808 -0.2342 -0.0207  0.6784
10220TIP3    H230614   6.284   6.560   4.787 -0.8917 -0.6046 -1.3216
10221TIP3   OH230615   5.218   4.518   3.548  0.2529 -0.1390  0.1822
10221TIP3    H130616   5.244   4.461   3.476  0.1699 -0.3843  0.3432
10221TIP3    H230617   5.274   4.595   3.540 -0.1059  0.0576 -0.4452
10222TIP3   OH230618   6.053   4.586   2.938 -0.6896  0.0218 -0.6206
10222TIP3    H130619   6.078   4.675   2.913  0.6521  0.3555  1.8081
10222TIP3    H230620   6.007   4.596   3.021 -0.4470 -1.5693 -0.2702
10223TIP3   OH230621   7.336   3.920   5.446 -0.2770  0.1893  0.0856
10223TIP3    H130622   7.252   3.937   5.487  0.2758 -1.8793  2.1274
10223TIP3    H230623   7.364   4.006   5.413 -2.9769  0.9552 -0.3027
10224TIP3   OH230624   5.359   6.272   5.141  0.3358  0.0346 -0.1305
10224TIP3    H130625   5.311   6.325   5.205  0.2146  0.1579 -0.3232
10224TIP3    H230626   5.296   6.254   5.072 -0.0141 -1.4765  0.5548
10225TIP3   OH230627   5.948   5.497   3.676 -0.3684  0.2496 -0.0786
10225TIP3    H130628   6.035   5.517   3.641  0.2806 -2.5115 -0.1751
10225TIP3    H230629   5.950   5.531   3.765  1.5927 -1.6371  0.6394
10226TIP3   OH230630   7.348   5.023   4.100  0.8187  0.0702  0.0986
10226TIP3    H130631   7.337   4.970   4.021 -1.3218  2.1907 -1.1240
10226TIP3    H230632   7.337   4.962   4.173  0.2541 -1.4825 -1.2521
10227TIP3   OH230633   7.259   4.147   4.782  0.6936 -0.0090  0.2011
10227TIP3    H130634   7.341   4.180   4.746  0.9984 -0.2561  0.6695
10227TIP3    H230635   7.280   4.122   4.872  0.4506 -1.4230 -0.1272
10228TIP3   OH230636   1.241   5.792   3.999 -0.0489  0.1744 -0.0490
10228TIP3    H130637   1.277   5.799   4.087  1.0148  0.7321 -0.5143
10228TIP3    H230638   1.317   5.773   3.944 -1.1180 -3.2282 -0.4567
10229TIP3   OH230639   3.156   1.405   0.034  0.2914 -0.6302  0.2585
10229TIP3    H130640   3.159   1.310   0.050 -1.2107 -0.6562  0.3984
10229TIP3    H230641   3.210   1.418  -0.044 -0.2065 -1.6995 -0.2641
10230TIP3   OH230642   4.512   5.244   5.330  0.3623 -0.1065 -0.3400
10230TIP3    H130643   4.582   5.190   5.369 -0.0551  0.5736  1.4099
10230TIP3    H230644   4.431   5.199   5.353  0.0837  0.5372 -0.0360
10231TIP3   OH230645   3.250   2.594   0.607  0.0352  0.3300 -0.4130
10231TIP3    H130646   3.176   2.638   0.567  0.3153 -0.4341 -1.7843
10231TIP3    H230647   3.256   2.510   0.562  0.6206 -0.3717  0.9300
10232TIP3   OH230648   6.418   7.344   1.373 -0.0375  0.2300 -0.0292
10232TIP3    H130649   6.486   7.389   1.423  1.0772 -1.4874  0.0403
10232TIP3    H230650   6.450   7.254   1.366 -1.9179 -0.3885 -0.7183
10233TIP3   OH230651   5.049   5.294   4.444 -0.0655 -0.8506  0.0334
10233TIP3    H130652   5.005   5.335   4.519  0.8313 -0.8089  0.5434
10233TIP3    H230653   5.023   5.347   4.369  1.3218  0.8660  0.7187
10234TIP3   OH230654   6.609   6.610   2.733  0.1110 -0.1812 -0.7550
10234TIP3    H130655   6.621   6.544   2.801 -2.0602  1.7205  1.5819
10234TIP3    H230656   6.683   6.669   2.744  1.2411 -1.3782 -1.8604
10235TIP3   OH230657   6.318   5.295   4.462 -0.0390 -0.2571 -0.4274
10235TIP3    H130658   6.412   5.291   4.447 -0.2198 -1.6950 -1.2815
10235TIP3    H230659   6.284   5.345   4.387  0.1132  0.8209  0.2199
10236TIP3   OH230660   0.286   4.808   5.116  0.2944 -0.1365 -0.3674
10236TIP3    H130661   0.363   4.846   5.158  0.8515 -2.6643  0.9924
10236TIP3    H230662   0.308   4.807   5.023  0.4622  2.3142 -0.3932
10237TIP3   OH230663   6.134   4.053   5.361  0.1211 -0.0624  0.5856
10237TIP3    H130664   6.039   4.046   5.353  0.2357 -1.6549  0.5220
10237TIP3    H230665   6.161   4.109   5.288 -0.8758  1.3363  1.2651
10238TIP3   OH230666   0.484   4.244   0.812  0.1239 -0.8304 -0.2342
10238TIP3    H130667   0.510   4.243   0.904 -0.7841 -0.8795  0.0306
10238TIP3    H230668   0.566   4.254   0.764  0.5526 -0.2777  0.5960
10239TIP3   OH230669   1.847   5.155   6.351  0.1005  0.1498  0.7553
10239TIP3    H130670   1.933   5.182   6.384  0.3815  0.4180 -0.1889
10239TIP3    H230671   1.814   5.094   6.417  2.4058 -2.4581 -0.4078
10240TIP3   OH230672   0.419   3.450   5.676 -0.7797 -0.2008 -0.2225
10240TIP3    H130673   0.440   3.357   5.681  1.3766  0.3342  1.9369
10240TIP3    H230674   0.329   3.457   5.708 -0.6096 -1.4353  0.5438
10241TIP3   OH230675   5.994   4.054   4.556  0.3284 -0.3481 -0.5678
10241TIP3    H130676   6.017   4.147   4.562  1.0090 -0.5766  0.4688
10241TIP3    H230677   5.963   4.031   4.643  0.2350 -1.1181 -0.8023
10242TIP3   OH230678   6.137   3.067   3.215  0.0089 -0.0642 -0.0995
10242TIP3    H130679   6.173   3.148   3.181 -2.2613  0.6705 -0.8192
10242TIP3    H230680   6.159   3.001   3.149  1.7853 -0.0476  0.4491
10243TIP3   OH230681   1.606   4.372   0.623 -0.0033 -0.1382 -0.0988
10243TIP3    H130682   1.686   4.345   0.578 -0.3135 -1.6374  0.2081
10243TIP3    H230683   1.614   4.332   0.710 -0.2347  1.2322  0.5601
10244TIP3   OH230684   6.119   4.928   4.625 -0.4060 -0.0040 -0.3768
10244TIP3    H130685   6.043   4.870   4.619 -0.2479 -0.3013  0.4130
10244TIP3    H230686   6.163   4.902   4.707 -1.2546  2.3218  0.8571
10245TIP3   OH230687   0.021   2.504   3.935  0.0309 -0.0260  0.1181
10245TIP3    H130688   0.053   2.589   3.966 -0.2449  0.3019 -0.4749
10245TIP3    H230689   0.069   2.488   3.854 -0.0736 -0.3369  0.1171
10246TIP3   OH230690   6.906   0.125   6.161  0.1162  0.2739 -1.2697
10246TIP3    H130691   6.920   0.031   6.148 -0.4986  0.4213 -2.9969
10246TIP3    H230692   6.825   0.144   6.115  0.7204  1.8456 -1.7105
10247TIP3   OH230693   7.552   3.434   4.855 -0.2138  0.3398 -0.3436
10247TIP3    H130694   7.512   3.377   4.790  3.1635 -1.7530 -0.6849
10247TIP3    H230695   7.516   3.404   4.939 -0.3688 -0.6058 -0.7443
10248TIP3   OH230696   1.834   0.590   0.061 -0.0435  0.7573  0.2295
10248TIP3    H130697   1.753   0.539   0.068  1.0414 -0.8648  1.2024
10248TIP3    H230698   1.874   0.583   0.148  0.8623  2.0269 -0.0771
10249TIP3   OH230699   6.559   3.604   5.174 -0.2957  0.2005 -0.2653
10249TIP3    H130700   6.578   3.549   5.249  1.6841  0.3026 -0.6626
10249TIP3    H230701   6.540   3.690   5.212 -1.7125 -0.3221  0.2450
10250TIP3   OH230702   6.067   3.430   5.667 -0.3846  0.5175 -0.1284
10250TIP3    H130703   6.029   3.437   5.755 -1.1976 -1.3570 -0.3106
10250TIP3    H230704   6.029   3.503   5.618  1.1818  2.4447  1.4637
10251TIP3   OH230705   5.607   4.291   3.964 -0.5249 -0.0378 -0.3200
10251TIP3    H130706   5.677   4.333   4.014 -0.3352 -0.6455 -0.0582
10251TIP3    H230707   5.627   4.197   3.970 -1.1642 -0.1919 -0.5400
10252TIP3   OH230708   6.527   4.852   5.568  0.3632  0.1431 -0.1391
10252TIP3    H130709   6.572   4.847   5.653  1.1238  1.1734 -0.4663
10252TIP3    H230710   6.594   4.826   5.504  0.2978  1.0312 -0.5766
10253TIP3   OH230711   6.498   3.269   5.091  0.2896 -0.4050 -0.1629
10253TIP3    H130712   6.408   3.302   5.094  0.0578 -1.1554  2.0619
10253TIP3    H230713   6.507   3.230   5.005 -0.6452  2.0899 -1.4333
10254TIP3   OH230714   6.833   3.850   3.559  0.2222 -0.1253  0.0298
10254TIP3    H130715   6.894   3.783   3.587  1.8124  1.5119  0.5832
10254TIP3    H230716   6.837   3.849   3.463  0.1618 -0.8884  0.0396
10255TIP3   OH230717   6.908   3.704   4.208  0.1052  0.1156  0.1815
10255TIP3    H130718   6.966   3.658   4.148  0.0856  0.9317 -0.4693
10255TIP3    H230719   6.860   3.634   4.254  1.8016 -0.5662  0.9422
10256TIP3   OH230720   1.646   6.577   0.350  0.3782  0.0536  0.0578
10256TIP3    H130721   1.596   6.561   0.271 -0.8403 -1.5875  1.1243
10256TIP3    H230722   1.586   6.626   0.407  1.2888  1.3420 -0.0732
10257TIP3   OH230723   7.798   5.965   4.639  0.4163  0.1496  0.1839
10257TIP3    H130724   7.770   5.954   4.730 -0.5768 -0.7976 -0.2174
10257TIP3    H230725   7.732   6.024   4.601  1.7853  1.9156  0.5066
10258TIP3   OH230726   5.173   6.131   5.925 -0.7726  0.5140 -0.1312
10258TIP3    H130727   5.155   6.158   5.835 -0.9768 -0.9897 -0.5506
10258TIP3    H230728   5.268   6.119   5.928 -0.7400  0.7873 -0.0872
10259TIP3   OH230729   7.395   3.363   5.362 -0.3795  0.0844 -0.9162
10259TIP3    H130730   7.332   3.432   5.381 -1.3386 -0.4254 -2.1573
10259TIP3    H230731   7.359   3.285   5.401 -0.5602 -0.2233 -1.6846
10260TIP3   OH230732   6.173   4.611   5.372  0.5323 -0.1118  0.2038
10260TIP3    H130733   6.181   4.692   5.321 -0.4500 -0.5400 -0.6296
10260TIP3    H230734   6.179   4.640   5.463  1.9995  0.6912 -0.1281
10261TIP3   OH230735   5.552   5.239   6.411  0.0466  0.6479 -0.0063
10261TIP3    H130736   5.523   5.211   6.324 -2.6117 -2.1644  1.6768
10261TIP3    H230737   5.636   5.196   6.424  0.2782  0.7889 -1.0223
10262TIP3   OH230738   6.708   5.524   2.839  0.0247  0.4909 -0.3535
10262TIP3    H130739   6.713   5.620   2.840 -2.0296  0.6113  0.8383
10262TIP3    H230740   6.653   5.502   2.914  0.5432 -1.6450 -0.5712
10263TIP3   OH230741   2.853   0.875   0.820  0.2907  0.4073 -0.1822
10263TIP3    H130742   2.787   0.894   0.886  0.7178 -0.4470  0.4964
10263TIP3    H230743   2.931   0.921   0.851  0.0961  1.1954 -0.8453
10264TIP3   OH230744   7.919   4.517   4.601  0.2813 -0.1904  0.2047
10264TIP3    H130745   7.863   4.594   4.593  0.2085 -0.1767  0.8385
10264TIP3    H230746   7.866   4.453   4.648 -0.0765 -1.0443 -1.3131
10265TIP3   OH230747   6.326   5.368   3.872 -0.5958 -0.4401  0.4212
10265TIP3    H130748   6.268   5.429   3.919  0.5220  1.2531 -0.3582
10265TIP3    H230749   6.370   5.422   3.807 -0.0629 -2.2348 -0.7362
10266TIP3   OH230750   6.501   3.194   4.820 -0.0334  0.4620 -0.2407
10266TIP3    H130751   6.570   3.129   4.809 -0.3495 -0.1552  1.2572
10266TIP3    H230752   6.429   3.160   4.766 -0.8860 -1.4894  2.0457
10267TIP3   OH230753   0.473   4.020   5.792 -0.1113  0.3430  0.2246
10267TIP3    H130754   0.559   3.994   5.826 -1.4677 -2.2924  1.7859
10267TIP3    H230755   0.469   4.114   5.807  3.2969  0.8766 -1.7302
10268TIP3   OH230756   7.889   5.042   5.176 -0.3832 -0.2396 -0.5897
10268TIP3    H130757   7.881   4.948   5.190  2.7740 -0.1702  2.3248
10268TIP3    H230758   7.833   5.081   5.244  2.6855 -0.0418  1.9308
10269TIP3   OH230759   1.470   1.907   0.989 -0.0990  1.0219 -0.0290
10269TIP3    H130760   1.551   1.935   0.946  0.0960  1.5589  0.6659
10269TIP3    H230761   1.467   1.959   1.070 -0.1891 -0.3229  0.8538
10270TIP3   OH230762   4.877   4.369   5.026 -0.1340  0.4188 -0.5396
10270TIP3    H130763   4.814   4.393   4.958  0.7400  2.2538 -0.7452
10270TIP3    H230764   4.845   4.414   5.105  1.7432  2.6658 -1.0176
10271TIP3   OH230765   4.194   1.967   1.480  0.6612 -0.1469  0.2398
10271TIP3    H130766   4.290   1.972   1.485  0.8235 -2.3371 -0.2636
10271TIP3    H230767   4.164   2.040   1.534  2.6154  0.6474  0.3063
10272TIP3   OH230768   6.748   2.622   4.632  0.2276  0.3504  0.9976
10272TIP3    H130769   6.727   2.551   4.693  0.3334  0.9378  1.7366
10272TIP3    H230770   6.666   2.670   4.623 -0.0522 -0.3188 -0.1272
10273TIP3   OH230771   2.347  -0.015   2.923  0.2693  0.7966  0.2352
10273TIP3    H130772   2.330   0.079   2.926 -0.2326  0.6867  1.0313
10273TIP3    H230773   2.385  -0.030   2.836 -2.6741  1.2446 -1.2213
10274TIP3   OH230774   7.646   6.848   4.303  0.6215  0.3148  0.1668
10274TIP3    H130775   7.570   6.814   4.351  0.8462 -1.0058 -0.4098
10274TIP3    H230776   7.633   6.943   4.303 -0.5076  0.1742  0.9507
10275TIP3   OH230777   5.984   4.323   4.866 -0.1151 -0.8547 -0.0854
10275TIP3    H130778   6.018   4.340   4.954  1.1120  0.1942 -0.7466
10275TIP3    H230779   5.930   4.399   4.846 -2.9397 -2.5314  0.9696
10276TIP3   OH230780   6.557   5.060   3.423  0.2950 -0.1363 -0.4798
10276TIP3    H130781   6.544   4.989   3.360 -0.4888  0.6844 -1.2454
10276TIP3    H230782   6.652   5.065   3.433  0.3929 -0.7206 -1.0762
10277TIP3   OH230783   1.571   0.605   0.229  0.3173 -0.2864 -0.3366
10277TIP3    H130784   1.565   0.651   0.313  0.7239  0.1811 -0.5636
10277TIP3    H230785   1.522   0.524   0.243  0.7335 -0.4025  0.4832
10278TIP3   OH230786   5.330   5.614   4.706  0.1563 -0.6000 -0.2272
10278TIP3    H130787   5.369   5.701   4.709  1.5405 -1.2035 -0.4725
10278TIP3    H230788   5.236   5.630   4.719  0.4268  0.8904  0.0293
10279TIP3   OH230789   6.095   5.877   5.253 -1.0886 -0.4078  0.3634
10279TIP3    H130790   6.132   5.803   5.205 -1.9815 -0.1146 -0.8024
10279TIP3    H230791   6.106   5.854   5.345  0.4252 -1.0982  0.0342
10280TIP3   OH230792   1.331   0.414   5.151 -0.2210 -0.4152 -0.2721
10280TIP3    H130793   1.317   0.320   5.158 -1.3952 -0.1860  0.6918
10280TIP3    H230794   1.359   0.441   5.239  0.8708  0.0245 -0.7402
10281TIP3   OH230795   0.205   4.323   5.919  0.1640 -0.5770 -0.1184
10281TIP3    H130796   0.275   4.268   5.955  0.1393 -1.1903 -0.9801
10281TIP3    H230797   0.221   4.410   5.956  0.8061 -0.9355  0.4590
10282TIP3   OH230798   0.302   5.148   6.030 -0.2077  0.8407  0.1459
10282TIP3    H130799   0.288   5.226   6.084  0.4490  0.9902  0.0997
10282TIP3    H230800   0.345   5.086   6.089  1.8765  1.5341 -0.6044
10283TIP3   OH230801   0.018   5.609   4.298 -0.7566  0.0703  0.5906
10283TIP3    H130802   0.082   5.539   4.310  1.2072  1.4642 -1.3654
10283TIP3    H230803  -0.005   5.637   4.387  3.3108  1.2518  1.3332
10284TIP3   OH230804   6.444   3.983   5.822 -0.6817  0.2979 -0.3615
10284TIP3    H130805   6.384   3.952   5.889  0.4971 -0.3450  0.4104
10284TIP3    H230806   6.429   3.926   5.747 -0.7556 -0.1084 -0.0331
10285TIP3   OH230807   0.302   1.955   5.305  0.1611 -0.5175 -0.3933
10285TIP3    H130808   0.271   2.019   5.241 -2.1746 -1.3924 -0.2012
10285TIP3    H230809   0.334   2.008   5.378  0.1841  0.4535 -1.0945
10286TIP3   OH230810   7.782   5.231   5.404 -0.0245  0.3294 -0.2552
10286TIP3    H130811   7.698   5.240   5.448 -0.7691 -1.4399 -1.2602
10286TIP3    H230812   7.787   5.305   5.345 -0.3824  1.0313  0.5807
10287TIP3   OH230813   7.462   6.682   2.929 -0.1242 -0.7446 -0.5363
10287TIP3    H130814   7.534   6.636   2.973  0.6224  0.7397 -0.1765
10287TIP3    H230815   7.484   6.678   2.836  0.0610 -0.9070 -0.4861
10288TIP3   OH230816   0.579   7.054   1.055  0.5202  0.0341 -0.0976
10288TIP3    H130817   0.666   7.019   1.038  1.2031  1.0193  1.2707
10288TIP3    H230818   0.574   7.132   1.000 -0.7961 -1.8480 -2.7337
10289TIP3   OH230819   5.349   4.234   4.057 -0.1717 -0.2773  0.4787
10289TIP3    H130820   5.423   4.285   4.025 -0.0414 -1.1482 -0.6290
10289TIP3    H230821   5.281   4.246   3.991 -0.1151 -1.5766  0.1725
10290TIP3   OH230822   3.325   0.657   0.659 -0.1081 -0.0185  0.1503
10290TIP3    H130823   3.319   0.657   0.754 -1.1495  2.3907  0.1279
10290TIP3    H230824   3.245   0.614   0.629 -1.9602  3.1506  0.3454
10291TIP3   OH230825   6.973   4.429   4.766 -0.6028  0.0881 -0.2920
10291TIP3    H130826   6.963   4.365   4.695 -0.1919  0.7062 -0.9239
10291TIP3    H230827   7.034   4.388   4.827 -0.4827 -0.1983 -0.6022
10292TIP3   OH230828   6.706   5.536   1.625 -0.2047  0.0730  0.2982
10292TIP3    H130829   6.706   5.497   1.712  0.0244 -1.9103 -0.5681
10292TIP3    H230830   6.775   5.603   1.629  0.8645 -1.0586  1.1751
10293TIP3   OH230831   5.193   2.343   3.855  0.6449  0.1260 -0.1333
10293TIP3    H130832   5.230   2.402   3.789  1.6263 -2.1155 -1.6428
10293TIP3    H230833   5.268   2.318   3.909  0.2519  0.1615  0.4370
10294TIP3   OH230834   4.340   1.061   0.648  0.1835 -0.1220  0.0667
10294TIP3    H130835   4.319   1.000   0.577  1.4911 -1.1517  0.5624
10294TIP3    H230836   4.297   1.024   0.725  2.1255 -1.1693  0.6595
10295TIP3   OH230837   7.266   4.687   6.320 -0.4945  0.2582 -0.6638
10295TIP3    H130838   7.240   4.599   6.292  1.2729 -0.3163 -0.5298
10295TIP3    H230839   7.184   4.727   6.352 -1.1566 -1.6277  0.0822
10296TIP3   OH230840   5.500   6.542   3.901 -0.1520 -0.6473  0.0916
10296TIP3    H130841   5.501   6.505   3.990  3.5952 -0.3480  0.2450
10296TIP3    H230842   5.518   6.635   3.914 -0.3655 -0.4647 -0.9201
10297TIP3   OH230843   6.934   1.832   5.684 -0.1789  0.0414 -0.0231
10297TIP3    H130844   6.880   1.757   5.710 -0.9650 -0.0785 -1.9486
10297TIP3    H230845   7.001   1.794   5.626 -1.2619  0.9774 -1.9157
10298TIP3   OH230846   0.726   4.215   4.515  0.7606  0.5650 -0.0586
10298TIP3    H130847   0.759   4.282   4.576  0.7046 -0.5701  1.2292
10298TIP3    H230848   0.727   4.134   4.565 -1.5610  0.0248 -0.8145
10299TIP3   OH230849   7.602   5.667   5.063  0.5393  0.4605  0.7030
10299TIP3    H130850   7.678   5.635   5.110  0.8972 -0.3725 -0.4187
10299TIP3    H230851   7.561   5.730   5.122  1.5123  0.1357  1.7221
10300TIP3   OH230852   6.567   4.625   3.530 -0.8724 -0.6015 -0.3948
10300TIP3    H130853   6.507   4.686   3.573 -1.3305 -0.3670 -1.3337
10300TIP3    H230854   6.513   4.549   3.508 -0.6555 -0.7047 -0.5737
10301TIP3   OH230855   4.336   2.650   0.126 -0.7196  0.0118 -0.0656
10301TIP3    H130856   4.357   2.629   0.035 -0.9380  1.9273 -0.5819
10301TIP3    H230857   4.242   2.668   0.125 -0.4657  1.3897  0.2600
10302TIP3   OH230858   1.764   4.281   5.600 -0.1210 -0.2442  0.3921
10302TIP3    H130859   1.695   4.223   5.568  0.4826  0.1980 -1.7837
10302TIP3    H230860   1.721   4.367   5.607  0.0671 -0.0685 -0.5101
10303TIP3   OH230861   4.633   5.118   5.777 -0.5433  0.1454  0.5090
10303TIP3    H130862   4.721   5.081   5.787 -0.2189  0.5250 -0.8421
10303TIP3    H230863   4.642   5.209   5.808 -0.4679  0.1827  0.3760
10304TIP3   OH230864   4.672   3.741   4.466 -0.7339 -0.8554  0.3475
10304TIP3    H130865   4.720   3.741   4.549 -1.2176 -2.1650  0.6534
10304TIP3    H230866   4.739   3.737   4.398 -0.2846  1.5350  0.6116
10305TIP3   OH230867   5.245   5.162   5.148  0.4116 -0.1035 -0.2692
10305TIP3    H130868   5.167   5.188   5.099 -0.1045  1.1094  1.1519
10305TIP3    H230869   5.302   5.239   5.146 -0.9615  1.1639  3.6439
10306TIP3   OH230870   5.456   4.140   4.919 -0.3377 -0.3631 -0.1626
10306TIP3    H130871   5.475   4.047   4.932 -2.5150 -0.7779  0.3133
10306TIP3    H230872   5.445   4.149   4.824 -1.2913 -0.8502 -0.1046
10307TIP3   OH230873   6.619   5.718   3.535 -0.4310 -0.2296 -0.1989
10307TIP3    H130874   6.622   5.796   3.590  0.7135 -0.7283  0.4780
10307TIP3    H230875   6.675   5.738   3.461  0.2563 -0.5812  0.2208
10308TIP3   OH230876   6.040   5.790   5.544 -0.6429  0.2508  0.0799
10308TIP3    H130877   5.975   5.720   5.531 -0.2188 -0.2020  0.3606
10308TIP3    H230878   6.015   5.830   5.627 -1.0422  0.6087 -0.2084
10309TIP3   OH230879   4.786   6.873   6.210  0.1468 -0.2512 -0.4868
10309TIP3    H130880   4.727   6.810   6.167 -1.0733 -0.4703  1.4283
10309TIP3    H230881   4.821   6.825   6.285  0.4715  0.8212  0.0572
10310TIP3   OH230882   6.788   4.246   4.213  0.2127  0.2209 -0.0891
10310TIP3    H130883   6.795   4.176   4.277 -2.2190  0.6161  0.6660
10310TIP3    H230884   6.705   4.230   4.168  1.4016  0.5222 -2.4688
10311TIP3   OH230885   5.667   4.959   4.177 -0.1907  0.2296 -0.1874
10311TIP3    H130886   5.603   4.988   4.242  2.2414 -1.3365  3.0350
10311TIP3    H230887   5.634   4.874   4.148 -1.0577  0.7367 -0.7110
10312TIP3   OH230888   5.388   4.919   5.603 -0.1837  0.1516  0.6311
10312TIP3    H130889   5.451   4.901   5.533 -1.2865 -0.9692 -0.0799
10312TIP3    H230890   5.442   4.927   5.682  0.8962 -0.3492 -0.0450
10313TIP3   OH230891   6.599   5.923   4.619  0.0652 -0.2886  0.3318
10313TIP3    H130892   6.615   5.926   4.525 -1.5724 -0.1021  0.0512
10313TIP3    H230893   6.505   5.907   4.627  0.4116 -1.5855  1.9341
10314TIP3   OH230894   1.180   6.867  -0.003  0.2750  0.0484 -0.6755
10314TIP3    H130895   1.170   6.935   0.063 -0.3108 -0.9672  0.2913
10314TIP3    H230896   1.274   6.848  -0.005  0.4688  1.0257 -1.1089
10315TIP3   OH230897   7.553   3.633   5.269 -0.3742 -0.0349 -0.1288
10315TIP3    H130898   7.517   3.665   5.186 -0.3047 -0.9061 -0.5087
10315TIP3    H230899   7.589   3.546   5.247 -2.7018 -1.4219  1.3913
10316TIP3   OH230900   0.122   2.750   3.997  0.0771  0.0252 -0.1077
10316TIP3    H130901   0.206   2.738   3.954  0.1878 -0.1767  0.1633
10316TIP3    H230902   0.139   2.812   4.068 -0.1148  0.3948 -0.3777
10317TIP3   OH230903   6.231   6.990   1.572  0.8204 -0.2209  0.3011
10317TIP3    H130904   6.219   6.905   1.614  1.3236  0.3125  1.5527
10317TIP3    H230905   6.144   7.012   1.538  0.6398 -1.1288  0.1752
10318TIP3   OH230906   4.574   3.003   2.385  0.4960  0.3602  0.1071
10318TIP3    H130907   4.497   3.031   2.434  0.4243  0.6584 -0.1738
10318TIP3    H230908   4.647   3.047   2.428  0.3562  1.1696 -0.4858
10319TIP3   OH230909   7.029   5.961   5.122 -0.4804  0.5180 -0.1209
10319TIP3    H130910   7.064   5.961   5.032 -0.0280  0.4200  0.0538
10319TIP3    H230911   7.098   6.001   5.174 -1.5408  2.4136 -0.1189
10320TIP3   OH230912   5.805   4.433   4.118 -0.0151  0.2165 -0.4448
10320TIP3    H130913   5.808   4.510   4.061  1.4240  1.2897  1.0386
10320TIP3    H230914   5.835   4.465   4.203 -1.7718 -1.4469  0.8236
10321TIP3   OH230915   6.601   4.260   3.205  0.5777  0.2388  0.1680
10321TIP3    H130916   6.545   4.271   3.282  1.8553 -0.1811  1.1971
10321TIP3    H230917   6.683   4.224   3.241  0.7856 -1.0332 -1.5393
10322TIP3   OH230918   6.046   4.804   5.719  0.5958  0.0881 -0.1407
10322TIP3    H130919   6.006   4.739   5.777 -0.3526  0.5761 -0.2411
10322TIP3    H230920   6.124   4.761   5.685  0.7786 -0.4582  0.9507
10323TIP3   OH230921   2.391   1.093   6.194  0.0448  0.5027  0.0536
10323TIP3    H130922   2.404   1.177   6.150 -0.3372  0.2053 -0.6474
10323TIP3    H230923   2.324   1.110   6.260 -2.3820  0.0470 -2.2130
10324TIP3   OH230924   2.008   3.730   5.919 -0.3170 -0.5657 -0.2845
10324TIP3    H130925   2.080   3.680   5.880 -0.8767 -1.0742 -0.6756
10324TIP3    H230926   2.039   3.753   6.007  0.0081 -1.4669 -0.1627
10325TIP3   OH230927   5.869   6.266   5.991 -0.3135  0.3026  0.1869
10325TIP3    H130928   5.954   6.224   5.994 -0.6047 -0.4592 -1.6761
10325TIP3    H230929   5.871   6.320   5.912 -1.4521  0.5040  0.2828
10326TIP3   OH230930   0.683   3.362   6.249  0.3226 -0.3252 -0.4258
10326TIP3    H130931   0.656   3.270   6.256  0.8242 -0.4739 -0.3863
10326TIP3    H230932   0.601   3.411   6.245 -0.0423 -0.3689  4.5046
10327TIP3   OH230933   0.867   7.199   0.064  0.2698 -0.1288 -0.2099
10327TIP3    H130934   0.960   7.180   0.078  0.2813 -0.2148 -0.4034
10327TIP3    H230935   0.866   7.256  -0.013  0.3481  1.7797  1.1728
10328TIP3   OH230936   5.961   4.633   5.912 -0.3460 -0.3338  0.0637
10328TIP3    H130937   5.931   4.564   5.971  0.3094 -0.9363 -0.2974
10328TIP3    H230938   6.011   4.693   5.967  0.5479 -1.0738  0.0575
10329TIP3   OH230939   0.521   3.700   6.411 -0.4577  0.1351 -0.8753
10329TIP3    H130940   0.517   3.616   6.364 -1.8569 -0.4048  0.1756
10329TIP3    H230941   0.430   3.719   6.433  0.1620  0.4456  1.5036
10330TIP3   OH230942   1.217   7.117   0.771  0.2070  0.2005  0.1520
10330TIP3    H130943   1.248   7.161   0.691 -0.3676  0.0626 -0.1462
10330TIP3    H230944   1.185   7.032   0.740 -0.2828  0.2641  0.4955
10331TIP3   OH230945   2.922   4.983   0.298 -0.5603 -0.6336 -0.2123
10331TIP3    H130946   3.010   4.960   0.329  0.0557  1.8925 -0.0426
10331TIP3    H230947   2.865   4.963   0.372  0.2897  0.8074  0.8429
10332TIP3   OH230948   0.123   3.692   5.992  0.1898  0.4663 -0.3645
10332TIP3    H130949   0.054   3.707   6.057  0.2981  0.4980 -0.2564
10332TIP3    H230950   0.120   3.769   5.935  0.2818  0.5712 -0.2276
10333TIP3   OH230951   7.483   5.279   4.199  0.1111  0.1963  0.1131
10333TIP3    H130952   7.436   5.212   4.248 -0.3630 -0.6453 -1.4440
10333TIP3    H230953   7.525   5.232   4.127  0.2948  1.4731 -0.6379
10334TIP3   OH230954   6.909   5.137   5.298 -0.6738  0.5488 -0.1411
10334TIP3    H130955   6.908   5.129   5.393 -0.9811  0.8429 -0.1192
10334TIP3    H230956   6.824   5.177   5.276 -0.6675  0.3409 -0.5493
10335TIP3   OH230957   7.908   0.292   5.026  0.2662  0.1593 -0.1691
10335TIP3    H130958   7.839   0.255   4.972 -0.3017  0.1167  0.5820
10335TIP3    H230959   7.867   0.366   5.070  0.6366 -0.0014  0.4522
10336TIP3   OH230960   5.965   5.411   4.940  0.3043 -0.1039  0.6540
10336TIP3    H130961   5.949   5.329   4.986 -4.0401 -0.2750 -0.9325
10336TIP3    H230962   5.960   5.388   4.847 -0.2780  1.8338  0.1707
10337TIP3   OH230963   5.706   5.583   3.518 -0.1682 -0.2735 -0.0687
10337TIP3    H130964   5.784   5.577   3.574 -0.4350  1.2921  0.5142
10337TIP3    H230965   5.633   5.589   3.579 -0.5238  0.7188 -0.5710
10338TIP3   OH230966   7.548   5.563   4.155 -0.5105 -0.1657 -0.0906
10338TIP3    H130967   7.526   5.471   4.139 -1.9273 -0.3933  2.7392
10338TIP3    H230968   7.480   5.593   4.217  0.0590  2.7168 -0.7812
10339TIP3   OH230969   1.483   1.521   2.898  0.0180  0.0770 -0.1538
10339TIP3    H130970   1.411   1.578   2.870  0.8871  0.3413 -1.9171
10339TIP3    H230971   1.475   1.443   2.843  0.6452 -0.1975  0.1430
10340TIP3   OH230972   0.555   4.989   3.595 -0.1001  0.0146  0.6281
10340TIP3    H130973   0.514   5.019   3.514  1.8494 -1.6451 -1.0081
10340TIP3    H230974   0.482   4.957   3.648 -1.5673  2.4253  0.1565
10341TIP3   OH230975   7.056   6.161   4.915  0.0515  0.2082  0.0590
10341TIP3    H130976   6.992   6.198   4.854 -1.0513 -1.5930  0.1152
10341TIP3    H230977   7.141   6.175   4.872 -0.4636  1.5369 -0.5530
10342TIP3   OH230978   6.731   5.612   4.977  0.2778  0.2382  0.5276
10342TIP3    H130979   6.725   5.560   4.897  0.2302  0.5851  0.3068
10342TIP3    H230980   6.718   5.548   5.048  0.8145 -0.1440  0.2790
10343TIP3   OH230981   7.419   5.911   5.009 -0.3854 -0.0776  0.0779
10343TIP3    H130982   7.419   6.006   4.998 -0.2640 -0.2604 -1.7518
10343TIP3    H230983   7.333   5.890   5.044 -1.1590  0.5200 -1.4385
10344TIP3   OH230984   4.961   5.163   5.042 -0.0957 -0.2231 -0.0913
10344TIP3    H130985   4.926   5.238   5.090 -1.8051 -0.5173 -0.8390
10344TIP3    H230986   4.980   5.197   4.954 -0.8167 -0.6443 -0.4139
10345TIP3   OH230987   3.542   4.488   5.685  0.0228  0.1447 -0.0738
10345TIP3    H130988   3.506   4.419   5.741  1.3082  0.4046  1.1052
10345TIP3    H230989   3.610   4.443   5.634  0.1318  0.3029 -0.0671
10346TIP3   OH230990   1.832   1.523   0.313  0.0624  0.1105 -0.1277
10346TIP3    H130991   1.916   1.545   0.355 -1.0764  0.0621  2.2559
10346TIP3    H230992   1.800   1.448   0.362 -0.5339 -1.0355 -2.2263
10347TIP3   OH230993   3.761   0.391   0.988 -0.2100  0.1454  0.2769
10347TIP3    H130994   3.702   0.348   1.050 -0.3136  1.4547  1.1023
10347TIP3    H230995   3.716   0.472   0.964  0.6447  0.5097 -0.1187
10348TIP3   OH230996   0.718   1.919   4.668 -0.1550 -0.2940 -0.0715
10348TIP3    H130997   0.808   1.886   4.664  0.9638  2.6061 -0.0217
10348TIP3    H230998   0.685   1.886   4.751  2.2461  1.8212  1.8082
10349TIP3   OH230999   0.994   5.024   3.611  0.4883  0.0470  0.1977
10349TIP3    H131000   0.956   4.952   3.562 -1.8015  1.4526 -0.1647
10349TIP3    H231001   1.061   5.060   3.553  1.0032 -1.2109  0.0141
10350TIP3   OH231002   5.246   1.144   0.081 -0.2875  0.0372 -0.2469
10350TIP3    H131003   5.224   1.149  -0.012 -0.9362  0.6275 -0.0658
10350TIP3    H231004   5.166   1.169   0.127  0.3905  1.0205  0.4421
10351TIP3   OH231005   3.847   1.245   0.967  0.0462  0.4989  0.5303
10351TIP3    H131006   3.847   1.154   0.937 -0.1107  0.9262 -0.8104
10351TIP3    H231007   3.933   1.279   0.943 -0.0659  0.8372  0.6016
10352TIP3   OH231008   7.608   4.990   5.422 -0.1113  0.0945 -0.0814
10352TIP3    H131009   7.625   5.054   5.491  0.5134  0.3790 -0.4911
10352TIP3    H231010   7.627   5.037   5.341 -0.6297 -0.3030 -0.4321
10353TIP3   OH231011   3.516   1.623   1.871  0.1640  0.0378  0.4735
10353TIP3    H131012   3.450   1.687   1.845 -0.5652 -0.5605  0.8511
10353TIP3    H231013   3.500   1.547   1.815 -0.2769 -0.5863  1.4433
10354TIP3   OH231014   2.446   0.672   2.300 -0.3222  0.4286  0.1621
10354TIP3    H131015   2.378   0.731   2.332 -1.4602 -1.1518  0.7423
10354TIP3    H231016   2.520   0.686   2.360 -0.4339  1.5482  0.0407
10355TIP3   OH231017   6.428   2.975   5.459 -0.0030  0.6907  0.1584
10355TIP3    H131018   6.356   3.032   5.486  0.0921  0.7743  0.2363
10355TIP3    H231019   6.501   3.034   5.446 -0.0533  0.6548 -0.3045
10356TIP3   OH231020   5.430   6.027   5.281  0.1267  0.4585 -0.4490
10356TIP3    H131021   5.435   6.094   5.214  0.4639 -0.8813 -1.7916
10356TIP3    H231022   5.417   5.945   5.233  0.6411 -0.5677  1.0939
10357TIP3   OH231023   6.183   5.748   6.318  0.3542 -0.3718  0.3285
10357TIP3    H131024   6.105   5.747   6.372  0.2106 -1.1891  0.1108
10357TIP3    H231025   6.253   5.719   6.376  0.4980  0.3707  0.5272
10358TIP3   OH231026   4.649   0.276   1.975  0.2082  0.3889 -0.1287
10358TIP3    H131027   4.630   0.348   1.915  0.0708  0.5623  0.1209
10358TIP3    H231028   4.566   0.228   1.982  0.2826  0.2433 -0.2474
10359TIP3   OH231029   5.582   5.412   5.975 -0.1699  1.0591  0.0968
10359TIP3    H131030   5.588   5.499   6.014 -3.0917  0.8166  1.1478
10359TIP3    H231031   5.530   5.361   6.037 -0.0779 -0.9217 -1.4026
10360TIP3   OH231032   1.345   7.242   1.648  0.0860  0.2750  0.3905
10360TIP3    H131033   1.361   7.328   1.609 -0.7923  0.5651  0.6471
10360TIP3    H231034   1.271   7.257   1.708  0.7324 -0.3851  1.3740
10361TIP3   OH231035   5.003   5.540   5.131 -0.1556  0.0718 -0.1209
10361TIP3    H131036   5.062   5.531   5.055 -1.2754 -1.4083 -0.8427
10361TIP3    H231037   4.986   5.634   5.136  0.3635  0.2529 -1.3880
10362TIP3   OH231038   5.524   6.817   5.363 -0.0015  0.4456  0.3836
10362TIP3    H131039   5.536   6.826   5.268 -0.6183  0.2475  0.2835
10362TIP3    H231040   5.591   6.754   5.390 -1.1522 -1.0635 -0.2479
10363TIP3   OH231041   4.317   2.247   1.919 -0.2128  0.0250 -0.2848
10363TIP3    H131042   4.354   2.290   1.841 -1.3759 -2.9755 -2.5469
10363TIP3    H231043   4.386   2.187   1.948 -0.1421  0.4821  0.5443
10364TIP3   OH231044   5.962   6.379   5.078 -0.3926  0.0981 -0.1141
10364TIP3    H131045   5.890   6.371   5.141  0.1482 -0.4159  0.4559
10364TIP3    H231046   6.021   6.444   5.117 -0.0476 -0.2363 -0.0728
10365TIP3   OH231047   5.286   5.288   3.507  0.0379  0.3522 -0.4696
10365TIP3    H131048   5.288   5.378   3.476  1.3157  0.8134  0.9035
10365TIP3    H231049   5.374   5.255   3.489 -0.5008 -0.7114 -1.2055
10366TIP3   OH231050   0.651   5.309   4.749 -0.2344 -0.2945 -0.3216
10366TIP3    H131051   0.712   5.261   4.804 -0.6944 -0.4632  0.0486
10366TIP3    H231052   0.567   5.304   4.796 -0.2804  0.9099 -0.2452
10367TIP3   OH231053   6.303   6.398   4.748 -0.2400 -0.3117  0.8142
10367TIP3    H131054   6.304   6.356   4.662  0.4945  0.3970  0.4660
10367TIP3    H231055   6.390   6.380   4.784  0.8386  2.5998 -0.1865
10368TIP3   OH231056   6.181   5.737   4.839 -0.0778 -0.4656 -0.3957
10368TIP3    H131057   6.201   5.667   4.901 -0.9683  1.1307  1.7593
10368TIP3    H231058   6.090   5.760   4.858  0.3925  1.6799 -0.6147
10369TIP3   OH231059   5.763   6.451   4.575 -0.3438  0.1685  0.6407
10369TIP3    H131060   5.721   6.459   4.661 -2.1501 -0.1485 -0.1939
10369TIP3    H231061   5.729   6.525   4.525  0.7736  0.3990  0.2001
10370TIP3   OH231062   7.783   2.683   5.747 -0.1828  0.1605 -0.0461
10370TIP3    H131063   7.833   2.673   5.828 -1.6713  1.2799  1.0395
10370TIP3    H231064   7.744   2.596   5.732  1.5143 -0.5338 -0.5518
10371TIP3   OH231065   1.242   7.271   1.004  0.2177  0.1182  0.2532
10371TIP3    H131066   1.329   7.230   1.005 -0.1167 -0.5731  1.2300
10371TIP3    H231067   1.197   7.228   0.931  0.5185  0.1117  0.0682
10372TIP3   OH231068   7.118   3.212   4.247  0.2083 -0.3714  0.0474
10372TIP3    H131069   7.031   3.252   4.247  0.1676 -0.4087 -1.7628
10372TIP3    H231070   7.102   3.119   4.229  0.6674 -0.2285 -1.1511
10373TIP3   OH231071   5.403   5.377   5.062 -0.0418 -0.3146  0.0459
10373TIP3    H131072   5.466   5.438   5.100 -1.6998  2.3918 -1.3931
10373TIP3    H231073   5.436   5.362   4.973  0.0125 -1.0218  0.1824
10374TIP3   OH231074   5.514   3.878   5.010 -0.5342  0.6835  0.0162
10374TIP3    H131075   5.461   3.816   4.958  0.3444  0.1494 -0.2562
10374TIP3    H231076   5.468   3.883   5.094 -0.3286 -0.7673  0.2372
10375TIP3   OH231077   7.337   3.337   3.942 -0.6577 -0.4070 -0.0399
10375TIP3    H131078   7.331   3.264   4.004 -1.3562 -1.1425 -0.9730
10375TIP3    H231079   7.421   3.325   3.898  0.6249  1.0615  1.9244
10376TIP3   OH231080   4.815   5.284   6.180 -0.6377 -0.1726  0.1121
10376TIP3    H131081   4.720   5.284   6.191 -0.8887  1.1141 -1.7619
10376TIP3    H231082   4.831   5.340   6.103  1.7030  0.4846  1.0130
10377TIP3   OH231083   6.383   2.398   4.743 -0.7416 -0.5396 -0.0257
10377TIP3    H131084   6.363   2.338   4.672 -0.4764 -0.0753 -0.4957
10377TIP3    H231085   6.479   2.397   4.748 -0.7111  0.2498 -0.3890
10378TIP3   OH231086   4.879   4.406   5.786  0.1661  0.2180 -0.1171
10378TIP3    H131087   4.787   4.380   5.779  0.5803 -1.1048 -0.7505
10378TIP3    H231088   4.893   4.422   5.879 -0.7768  0.6825 -0.0540
10379TIP3   OH231089   7.642   4.634   6.129 -0.6346  0.1603 -0.6306
10379TIP3    H131090   7.716   4.686   6.161 -0.3791  0.6397 -1.9630
10379TIP3    H231091   7.681   4.548   6.110 -0.6855  0.0252 -0.1293
10380TIP3   OH231092   7.734   2.856   5.449 -0.0415  0.2002  0.3425
10380TIP3    H131093   7.730   2.916   5.375  0.5785 -0.4141 -0.1992
10380TIP3    H231094   7.647   2.861   5.489 -0.3094  0.6956 -0.2962
10381TIP3   OH231095   5.702   5.109   6.158  0.0157 -0.5335 -0.2840
10381TIP3    H131096   5.659   5.194   6.161 -0.2409 -0.7273  2.4707
10381TIP3    H231097   5.630   5.046   6.148  0.0511 -0.5483 -0.4494
10382TIP3   OH231098   5.073   6.856   3.356  0.5161  0.3783 -0.3164
10382TIP3    H131099   5.141   6.818   3.300  1.0280  0.2018  0.4143
10382TIP3    H231100   5.025   6.915   3.298  1.2850  0.4934 -0.8453
10383TIP3   OH231101   2.098   5.969   0.145  0.4933 -0.0694  0.3793
10383TIP3    H131102   2.134   5.901   0.202 -0.7493 -0.9386  0.1453
10383TIP3    H231103   2.149   5.963   0.064  0.6723 -0.4432  0.5226
10384TIP3   OH231104   3.811   2.753   5.779  0.2663 -0.1640 -0.4301
10384TIP3    H131105   3.780   2.820   5.840 -1.2642 -1.8155  0.6303
10384TIP3    H231106   3.757   2.764   5.701 -0.8902 -1.0125  0.2435
10385TIP3   OH231107   6.905   5.183   4.909  0.2648  0.3808 -0.2214
10385TIP3    H131108   6.887   5.266   4.865 -1.2326  1.0432  1.5632
10385TIP3    H231109   6.998   5.186   4.932  0.6017  0.8317 -1.6176
10386TIP3   OH231110   6.629   7.177   4.524 -0.7013  0.3651 -0.0220
10386TIP3    H131111   6.552   7.235   4.517 -0.6690  0.5430  1.0720
10386TIP3    H231112   6.609   7.120   4.598 -0.6184 -0.8688 -0.9450
10387TIP3   OH231113   0.672   3.822   3.522  0.6665 -0.2562  0.3170
10387TIP3    H131114   0.701   3.911   3.544  1.7795 -0.7494  0.8432
10387TIP3    H231115   0.733   3.793   3.454 -0.8212  0.0614 -1.1898
10388TIP3   OH231116   0.215   5.087   4.174  0.6980 -0.2763  0.2283
10388TIP3    H131117   0.196   5.016   4.113  1.8278 -0.3770 -0.0211
10388TIP3    H231118   0.287   5.054   4.228  1.3041  0.7231  0.0383
10389TIP3   OH231119   7.530   4.838   3.776 -0.2093  0.6306  0.2538
10389TIP3    H131120   7.455   4.856   3.832  1.5400  2.1415  2.2236
10389TIP3    H231121   7.560   4.751   3.804 -1.1862  0.0318 -0.5273
10390TIP3   OH231122   6.123   0.742   0.091  0.2035  0.2639 -0.0434
10390TIP3    H131123   6.167   0.822   0.120 -1.6179  0.8594  1.2215
10390TIP3    H231124   6.074   0.713   0.168 -1.3371 -0.5460 -1.2984
10391TIP3   OH231125   1.080   5.691   4.797 -0.0826 -0.1877  0.3878
10391TIP3    H131126   1.060   5.702   4.704 -0.7831  1.3236  0.7003
10391TIP3    H231127   1.067   5.778   4.835 -1.5651 -1.1723  2.2242
10392TIP3   OH231128   1.276   6.307   6.172 -0.1499 -0.8064  0.3614
10392TIP3    H131129   1.271   6.326   6.078  0.6589 -0.8142  0.3065
10392TIP3    H231130   1.244   6.218   6.180 -0.6583 -0.6443  0.1520
10393TIP3   OH231131   0.079   5.710   1.967  0.1452  0.1610  0.0246
10393TIP3    H131132   0.084   5.697   1.872  0.0579 -1.7295  0.2743
10393TIP3    H231133  -0.012   5.689   1.990  0.2263  0.3890  0.5757
10394TIP3   OH231134   6.719   3.657   4.674  0.3455  0.5964  0.2406
10394TIP3    H131135   6.712   3.565   4.700 -1.3129  1.0119  1.3763
10394TIP3    H231136   6.632   3.679   4.640  0.3170  2.0875  1.2137
10395TIP3   OH231137   0.931   6.500   0.277  0.1962  0.2214  0.3291
10395TIP3    H131138   0.939   6.407   0.258 -1.3078  0.3134 -0.8634
10395TIP3    H231139   0.987   6.543   0.213 -0.4091  0.2242 -0.1985
10396TIP3   OH231140   7.400   3.311   6.399 -0.0388  0.1105 -0.1388
10396TIP3    H131141   7.407   3.401   6.430 -2.9839  0.2984  0.1621
10396TIP3    H231142   7.346   3.317   6.319 -1.4780 -1.4985  0.6725
10397TIP3   OH231143   0.411   4.169   4.066  0.1150  0.0442  0.8468
10397TIP3    H131144   0.333   4.114   4.065  0.8352 -1.0116  0.1415
10397TIP3    H231145   0.425   4.190   4.158  1.0713 -2.8658  1.4462
10398TIP3   OH231146   5.906   1.853   0.838 -0.4318  0.5334 -0.1041
10398TIP3    H131147   5.942   1.922   0.782 -0.9826 -0.5820 -1.8580
10398TIP3    H231148   5.952   1.774   0.811 -0.5864 -0.0085  1.1588
10399TIP3   OH231149   4.945   5.551   6.059  0.1242  0.2892 -0.1154
10399TIP3    H131150   5.024   5.539   6.112 -1.6647 -1.5695  2.2022
10399TIP3    H231151   4.892   5.614   6.109 -1.4317 -1.2145  0.1654
10400TIP3   OH231152   1.129   5.527   5.770  0.5346  0.2209  0.0378
10400TIP3    H131153   1.100   5.616   5.753  1.1422  0.3602 -0.2777
10400TIP3    H231154   1.049   5.474   5.764  0.3097  0.6282 -0.5968
10401TIP3   OH231155   6.916   5.710   5.651 -0.2022 -0.0138  0.2099
10401TIP3    H131156   6.891   5.772   5.583  0.1463 -1.3665 -1.1861
10401TIP3    H231157   6.833   5.673   5.682 -0.3612  0.5912  0.4996
10402TIP3   OH231158   1.237   3.897   6.250 -0.0757 -0.4210  0.7371
10402TIP3    H131159   1.206   3.809   6.228 -2.0975  0.9170 -2.1842
10402TIP3    H231160   1.165   3.936   6.299 -0.1955  0.3789 -0.0524
10403TIP3   OH231161   7.390   6.187   3.753 -0.4231  0.1880 -0.0075
10403TIP3    H131162   7.483   6.170   3.769 -0.1577 -0.0956 -1.6983
10403TIP3    H231163   7.390   6.254   3.684 -1.4811  1.3758  1.1406
10404TIP3   OH231164   5.758   7.108   5.396 -0.4005 -0.1967  0.3022
10404TIP3    H131165   5.735   7.099   5.489 -1.8581  0.5240  0.0246
10404TIP3    H231166   5.783   7.020   5.369 -1.3114 -0.6960  1.0429
10405TIP3   OH231167   1.152   2.971   2.937  1.1754  0.0062 -0.3880
10405TIP3    H131168   1.101   2.892   2.953 -0.1542  0.4897 -2.1581
10405TIP3    H231169   1.120   3.034   3.002  1.0050 -0.3609 -0.1198
10406TIP3   OH231170   2.164   4.900   5.379 -0.0515 -0.1790 -0.6566
10406TIP3    H131171   2.077   4.935   5.398  0.1943  0.4944 -0.7556
10406TIP3    H231172   2.148   4.815   5.340 -0.6180 -0.8089  0.9112
10407TIP3   OH231173   3.419   0.380   3.965  0.2137  0.0592 -0.5212
10407TIP3    H131174   3.347   0.444   3.971  0.4117  0.4454 -1.9332
10407TIP3    H231175   3.460   0.382   4.051 -0.4567  1.0494 -0.2094
10408TIP3   OH231176   7.489   4.465   4.868  0.2225 -0.1908  0.3575
10408TIP3    H131177   7.502   4.464   4.963  1.3142 -0.0552  0.2076
10408TIP3    H231178   7.575   4.446   4.831  0.1010  1.0804 -0.6359
10409TIP3   OH231179   4.651   0.866   1.252  0.5838  0.0452 -0.5075
10409TIP3    H131180   4.622   0.941   1.303  1.1342 -0.8052  1.0782
10409TIP3    H231181   4.598   0.793   1.284  1.6274 -0.6984 -0.4452
10410TIP3   OH231182   0.965   2.099   2.159 -0.3658 -0.1876  0.6658
10410TIP3    H131183   0.968   2.078   2.066  1.3087  0.8272  0.4789
10410TIP3    H231184   0.999   2.021   2.203 -2.4412 -1.2025  0.5456
10411TIP3   OH231185   7.012   3.207   6.210  0.5690  0.0526  0.1571
10411TIP3    H131186   7.053   3.168   6.287  1.2792  0.6624  0.0921
10411TIP3    H231187   7.005   3.135   6.147  1.6737 -0.0332  0.1179
10412TIP3   OH231188   7.389   5.462   3.945 -0.0442  0.1850 -0.4211
10412TIP3    H131189   7.389   5.542   3.999  1.0109  1.0653 -1.6946
10412TIP3    H231190   7.308   5.418   3.968 -0.0124  0.9749  1.2721
10413TIP3   OH231191   0.290   3.961   4.926  0.2030  0.0727  0.3094
10413TIP3    H131192   0.306   4.045   4.970  2.2891 -0.0761 -0.0786
10413TIP3    H231193   0.265   3.901   4.996 -2.2382  1.2370  0.4563
10414TIP3   OH231194   1.534   2.271   5.422  0.9571  0.8763  0.2683
10414TIP3    H131195   1.464   2.274   5.357 -0.2792 -1.0463  1.4594
10414TIP3    H231196   1.499   2.319   5.497  0.4059 -1.1307  1.3162
10415TIP3   OH231197   5.379   5.804   5.127 -0.3060  0.1792  0.1082
10415TIP3    H131198   5.394   5.820   5.034 -1.6004 -0.2394 -0.1762
10415TIP3    H231199   5.431   5.727   5.147 -0.8959 -0.3849 -0.5262
10416TIP3   OH231200   7.161   5.696   1.758  0.1173  0.1084 -0.0072
10416TIP3    H131201   7.185   5.787   1.741  2.0150 -0.2853  0.4352
10416TIP3    H231202   7.150   5.658   1.671  1.3086  0.2602 -0.2270
10417TIP3   OH231203   2.227   5.724   4.142 -0.1302  0.2088  0.3720
10417TIP3    H131204   2.298   5.788   4.150 -1.4798  2.0627 -2.1406
10417TIP3    H231205   2.273   5.640   4.135  1.8470  1.4009 -1.4551
10418TIP3   OH231206   6.816   3.823   3.270 -0.3910  0.2985  0.5656
10418TIP3    H131207   6.894   3.877   3.273 -0.6315  0.6017  1.5258
10418TIP3    H231208   6.785   3.831   3.180  0.0765  1.0371  0.4640
10419TIP3   OH231209   0.002   2.827   3.466  0.1971  0.7148 -0.5332
10419TIP3    H131210  -0.021   2.871   3.548 -0.5432 -3.8348  1.8467
10419TIP3    H231211   0.096   2.809   3.474 -0.0866 -0.6867 -0.1290
10420TIP3   OH231212   7.774   5.719   4.114 -0.3042  0.2008 -0.1074
10420TIP3    H131213   7.698   5.662   4.100 -0.0399  0.2660 -2.0541
10420TIP3    H231214   7.821   5.680   4.187 -0.5708 -1.6248 -0.8829
10421TIP3   OH231215   0.338   5.625   1.629  0.6963  0.4132  0.0211
10421TIP3    H131216   0.371   5.654   1.714  0.1235 -0.4084  0.5409
10421TIP3    H231217   0.280   5.551   1.650 -2.4115  2.5293 -0.7048
10422TIP3   OH231218   1.039   4.878   5.641  0.1378  0.6480  0.3067
10422TIP3    H131219   1.121   4.899   5.596  0.4274  0.7890  0.8964
10422TIP3    H231220   1.004   4.803   5.593  0.0119  1.3300 -0.6841
10423TIP3   OH231221   6.729   7.445   2.442 -0.0575 -0.0208  0.5074
10423TIP3    H131222   6.658   7.410   2.496 -0.5732  1.6507  0.9240
10423TIP3    H231223   6.798   7.378   2.447 -1.4268 -1.4664  0.4208
10424TIP3   OH231224   7.206   3.799   6.057  0.0429 -0.2661 -0.0921
10424TIP3    H131225   7.171   3.717   6.094 -2.8300  1.9525  2.3017
10424TIP3    H231226   7.162   3.807   5.973 -0.3625 -0.7201  0.0693
10425TIP3   OH231227   0.190   6.876   5.105 -0.7036  0.3767  1.0670
10425TIP3    H131228   0.148   6.848   5.023  0.3550 -0.3011  0.7535
10425TIP3    H231229   0.212   6.795   5.150 -1.3431  0.7494  2.0699
10426TIP3   OH231230   1.257   4.821   3.745  0.3030  0.3678  0.2235
10426TIP3    H131231   1.203   4.745   3.722  0.6764  0.1926 -0.0641
10426TIP3    H231232   1.300   4.846   3.664  0.6705  0.5008  0.4593
10427TIP3   OH231233   7.618   5.669   4.414  0.4440  0.6430 -0.3451
10427TIP3    H131234   7.584   5.751   4.378 -0.6804 -0.8050 -2.7756
10427TIP3    H231235   7.603   5.605   4.344  2.9194 -1.2655  0.8148
10428TIP3   OH231236   0.388   3.700   6.007  0.6224  0.6556  0.3390
10428TIP3    H131237   0.294   3.707   6.027 -0.0032 -1.7472 -1.5783
10428TIP3    H231238   0.402   3.759   5.933  0.3120 -0.0930 -0.3200
10429TIP3   OH231239   0.353   4.882   3.805  0.2274  0.1304 -0.0988
10429TIP3    H131240   0.277   4.875   3.862 -0.0901  1.3408 -0.3608
10429TIP3    H231241   0.396   4.796   3.811 -1.1520 -0.5601  0.0385
10430TIP3   OH231242   3.379   4.992   3.523  0.6671 -0.7845  0.2291
10430TIP3    H131243   3.464   4.951   3.508  0.8437 -0.3802  0.1148
10430TIP3    H231244   3.351   4.959   3.609  0.7036 -1.3131  0.0413
10431TIP3   OH231245   7.594   6.130   2.594 -0.2284  0.1327  0.1894
10431TIP3    H131246   7.513   6.081   2.610 -1.0736  0.7650 -1.9918
10431TIP3    H231247   7.581   6.212   2.641 -1.7591  1.0748 -1.7969
10432TIP3   OH231248   7.427   1.669   0.268  0.2709  0.1767  0.2049
10432TIP3    H131249   7.414   1.592   0.325  0.5391  0.1608  0.2443
10432TIP3    H231250   7.367   1.734   0.303 -0.0453 -0.0560  0.0981
10433TIP3   OH231251   0.894   4.814   3.448  0.3596  0.0736 -0.6202
10433TIP3    H131252   0.856   4.824   3.361 -0.9473  0.8316  0.0231
10433TIP3    H231253   0.960   4.746   3.437  0.4924  0.4405 -2.2862
10434TIP3   OH231254   0.544   4.753   4.324  0.6401 -0.5850 -0.1178
10434TIP3    H131255   0.528   4.667   4.361 -1.5852 -0.9621 -1.8181
10434TIP3    H231256   0.524   4.743   4.231  4.2727  0.7852 -1.1296
10435TIP3   OH231257   7.124   5.107   3.533  0.0287 -0.0381  0.3275
10435TIP3    H131258   7.108   5.104   3.439  1.0389  1.2652  0.1041
10435TIP3    H231259   7.210   5.148   3.541 -0.2323  0.2293  1.8443
10436TIP3   OH231260   7.167   5.564   4.601 -0.2610 -0.3173 -0.2429
10436TIP3    H131261   7.257   5.539   4.619  0.0321 -0.5565 -1.9462
10436TIP3    H231262   7.151   5.640   4.658  0.7026 -0.8470  0.7375
10437TIP3   OH231263   6.501   2.725   4.598  0.0463 -0.3246  0.4081
10437TIP3    H131264   6.451   2.740   4.678  0.6991 -0.2565  0.8016
10437TIP3    H231265   6.450   2.659   4.550 -1.5198  1.2830 -0.1674
10438TIP3   OH231266   7.808   5.868   2.896  0.0692 -0.0067 -0.9890
10438TIP3    H131267   7.886   5.821   2.869  0.1798 -0.2268 -0.2878
10438TIP3    H231268   7.739   5.836   2.839  0.3268 -0.3782 -1.0888
10439TIP3   OH231269   7.769   4.131   3.648 -0.1927 -0.1473 -0.3635
10439TIP3    H131270   7.789   4.162   3.737 -0.1564 -1.9027  0.2677
10439TIP3    H231271   7.821   4.050   3.639  0.7342  0.6414 -2.4334
10440TIP3   OH231272   7.533   7.025   5.590  0.3631 -0.9615 -0.4199
10440TIP3    H131273   7.537   6.932   5.610 -3.6096 -1.1024  0.2479
10440TIP3    H231274   7.476   7.031   5.513 -0.2854  0.9346  0.1634
10441TIP3   OH231275   0.381   6.598   4.793  0.3301  0.0607  0.1085
10441TIP3    H131276   0.411   6.508   4.805  0.7623  0.2411  0.4095
10441TIP3    H231277   0.392   6.638   4.879 -1.8339 -0.1726  0.5092
10442TIP3   OH231278   7.847   3.408   4.893 -0.8396  0.1752  0.3255
10442TIP3    H131279   7.868   3.412   4.986  0.5723  0.4758  0.0077
10442TIP3    H231280   7.757   3.440   4.887 -0.6522  0.9458  1.4849
10443TIP3   OH231281   6.460   6.027   1.541  0.4994 -0.2427 -0.2457
10443TIP3    H131282   6.430   6.030   1.632 -0.4493  1.8443 -0.5740
10443TIP3    H231283   6.428   5.943   1.508 -2.6586  0.6732  0.2567
10444TIP3   OH231284   1.465   4.232   4.334  0.5618 -0.3943  0.4109
10444TIP3    H131285   1.420   4.170   4.276  0.2865  2.2878 -2.3707
10444TIP3    H231286   1.554   4.239   4.297  0.6536  0.6730  0.8248
10445TIP3   OH231287   5.774   1.768   0.193 -0.5676  0.0853  0.4247
10445TIP3    H131288   5.784   1.841   0.253 -0.5000  0.3836  0.0554
10445TIP3    H231289   5.766   1.691   0.249  0.8316  0.2028  0.7803
10446TIP3   OH231290   0.115   6.484   4.095  0.5440  0.0119  0.4927
10446TIP3    H131291   0.178   6.479   4.167 -0.2272  2.2947  1.3710
10446TIP3    H231292   0.029   6.480   4.138  0.0866  0.5571 -0.3514
10447TIP3   OH231293   0.280   4.479   5.571 -0.4890 -0.5104 -0.3914
10447TIP3    H131294   0.319   4.405   5.524  0.7568  0.2529 -0.5788
10447TIP3    H231295   0.317   4.557   5.529 -1.2490  0.2212  0.2649
10448TIP3   OH231296   6.387   4.525   5.057 -0.2079  0.0832 -0.4035
10448TIP3    H131297   6.472   4.559   5.027 -1.2854  3.1171 -0.1647
10448TIP3    H231298   6.332   4.527   4.978 -0.5103 -0.4235 -0.2062
10449TIP3   OH231299   3.066   0.093   4.250 -0.2452 -0.6189  0.4481
10449TIP3    H131300   3.024   0.121   4.168  0.4679 -0.6201  0.0833
10449TIP3    H231301   2.994   0.088   4.313 -0.7635 -0.4033 -0.1237
10450TIP3   OH231302   7.241   4.577   4.635  0.2448  0.5192  0.7422
10450TIP3    H131303   7.173   4.537   4.690  0.1638  0.2318  0.4288
10450TIP3    H231304   7.315   4.517   4.640  0.0210  0.1778  0.0387
10451TIP3   OH231305   0.167   2.444   6.218  0.6268  0.1347 -0.4808
10451TIP3    H131306   0.205   2.442   6.130 -0.1801 -0.2501 -0.8274
10451TIP3    H231307   0.079   2.479   6.206  0.7733  0.7750  0.2806
10452TIP3   OH231308   1.540   3.124   4.954 -0.0418 -0.0562  0.4334
10452TIP3    H131309   1.495   3.164   4.879 -0.3315  2.9410  2.1233
10452TIP3    H231310   1.632   3.145   4.940 -0.3219  2.2934  1.9094
10453TIP3   OH231311   6.675   3.140   4.061  0.0042 -0.2295  0.6661
10453TIP3    H131312   6.644   3.080   4.129  0.5699 -0.8827  0.3527
10453TIP3    H231313   6.725   3.084   4.001 -0.2840  0.3880 -0.1507
10454TIP3   OH231314   2.106   6.657   0.443  0.6125  0.1447 -0.3199
10454TIP3    H131315   2.034   6.629   0.387  0.5898  0.8020 -0.6240
10454TIP3    H231316   2.184   6.621   0.401  0.6333  0.9412 -0.9941
10455TIP3   OH231317   0.390   7.055   0.646  0.3891 -0.3636  0.4274
10455TIP3    H131318   0.447   7.064   0.570  0.6021 -0.7943  0.5342
10455TIP3    H231319   0.338   6.976   0.629 -0.6529  0.3935  0.0254
10456TIP3   OH231320   3.934   0.454   2.433  0.2556 -0.6268  0.9349
10456TIP3    H131321   3.984   0.402   2.370  1.0868  3.0669 -1.6269
10456TIP3    H231322   3.848   0.464   2.392  0.5463  1.1444  0.7328
10457TIP3   OH231323   6.276   4.455   6.133 -0.2361  0.0871 -0.0761
10457TIP3    H131324   6.295   4.362   6.119  1.0899  0.5518 -1.5820
10457TIP3    H231325   6.316   4.475   6.218 -0.5271 -0.7120  0.2547
10458TIP3   OH231326   1.226   2.771   5.468 -0.0997 -0.7304  0.0224
10458TIP3    H131327   1.278   2.791   5.547 -1.6214 -0.0918  0.8817
10458TIP3    H231328   1.135   2.776   5.497 -0.7338  0.9645 -2.1185
10459TIP3   OH231329   7.489   5.880   4.309  0.0407  0.1485 -0.1811
10459TIP3    H131330   7.406   5.873   4.356 -0.4027 -0.6692 -1.0592
10459TIP3    H231331   7.464   5.887   4.217  0.9557 -1.3943 -0.5819
10460TIP3   OH231332   0.410   3.090   5.056 -0.5919  0.3935 -0.0181
10460TIP3    H131333   0.434   3.132   5.139  0.7347 -0.8001  0.2173
10460TIP3    H231334   0.393   3.163   4.997  1.4920  1.3104  0.4475
10461TIP3   OH231335   7.731   2.616   4.373  0.3434 -0.3582 -0.1249
10461TIP3    H131336   7.824   2.633   4.357  0.2593 -1.3485 -1.7403
10461TIP3    H231337   7.693   2.702   4.387  1.5241  0.0448  0.6912
10462TIP3   OH231338   0.098   6.915   4.400  0.3250  0.2354 -0.1829
10462TIP3    H131339   0.158   6.849   4.368 -0.7891 -1.2195  0.6801
10462TIP3    H231340   0.062   6.878   4.480 -2.3199  0.7035 -1.0958
10463TIP3   OH231341   0.791   4.838   5.275 -0.6905  0.0651 -0.4121
10463TIP3    H131342   0.848   4.914   5.268 -1.3295  0.7111  1.1040
10463TIP3    H231343   0.747   4.849   5.359 -0.1566 -2.4233  0.2497
10464TIP3   OH231344   4.489   4.985   5.091 -0.1758 -0.0637 -0.0064
10464TIP3    H131345   4.545   5.058   5.118 -0.1112 -0.3661  0.7130
10464TIP3    H231346   4.450   5.013   5.009  0.1783  0.6071  0.0503
10465TIP3   OH231347   7.762   5.096   4.731 -0.3210 -0.1350  0.1670
10465TIP3    H131348   7.720   5.170   4.688  0.3113  0.1404  0.0152
10465TIP3    H231349   7.778   5.033   4.661  0.1854  0.0697  0.0986
10466TIP3   OH231350   5.455   2.903   0.679  0.2772 -0.0027 -0.3419
10466TIP3    H131351   5.524   2.952   0.633  0.1866 -0.5867 -1.0996
10466TIP3    H231352   5.496   2.877   0.762  0.3920  1.1756 -0.0188
10467TIP3   OH231353   0.241   4.293   0.203  0.2728 -0.0635  0.2576
10467TIP3    H131354   0.224   4.199   0.209 -1.6425  0.2190 -0.2268
10467TIP3    H231355   0.286   4.316   0.284 -2.1647 -0.8360  1.9012
10468TIP3   OH231356   7.347   3.676   0.887  0.1936 -0.0840 -0.4925
10468TIP3    H131357   7.441   3.669   0.873  0.4620  0.8208  0.8442
10468TIP3    H231358   7.321   3.590   0.922  0.9327  0.4556  1.4332
10469TIP3   OH231359   0.100   4.690   6.175  0.5399  0.1199 -0.1720
10469TIP3    H131360   0.068   4.701   6.086  0.9368  1.7061 -0.1287
10469TIP3    H231361   0.048   4.752   6.227 -0.6635 -1.7845  0.9369
10470TIP3   OH231362   1.255   5.861   6.352 -0.0609  0.6119  0.1485
10470TIP3    H131363   1.222   5.885   6.439 -0.6721 -1.4197  0.5080
10470TIP3    H231364   1.177   5.852   6.298  0.1353 -0.7560  0.0850
10471TIP3   OH231365   0.865   5.426   5.747  0.2343 -0.5602  0.4425
10471TIP3    H131366   0.879   5.424   5.652 -2.3458  0.2514  0.0052
10471TIP3    H231367   0.774   5.456   5.757  0.0022 -2.0497  3.1382
10472TIP3   OH231368   5.623   4.889   1.387 -0.0315  0.2844  0.1521
10472TIP3    H131369   5.595   4.930   1.305 -0.2365  0.0323  0.0941
10472TIP3    H231370   5.542   4.878   1.437 -0.2247 -1.6127 -0.5451
10473TIP3   OH231371   7.895   0.773   0.549 -0.3491 -0.4159  0.0354
10473TIP3    H131372   7.929   0.694   0.508 -2.3494 -0.0628 -2.4164
10473TIP3    H231373   7.833   0.741   0.615 -0.2380 -0.9023 -0.0974
10474TIP3   OH231374   7.480   3.542   0.330  0.6359 -0.1795  0.0272
10474TIP3    H131375   7.431   3.606   0.381  0.5964 -0.9571  0.9787
10474TIP3    H231376   7.523   3.594   0.262 -0.5640  0.6533 -0.1021
10475TIP3   OH231377   1.013   5.332   6.340 -0.0466 -0.0710 -0.1450
10475TIP3    H131378   0.995   5.414   6.386 -0.8521 -0.0576 -0.4904
10475TIP3    H231379   1.080   5.356   6.275  0.4503  0.0933  0.4157
10476TIP3   OH231380   4.140   1.416   0.377 -0.0422  0.3008  0.8577
10476TIP3    H131381   4.069   1.365   0.416 -0.0457  1.5093  2.4935
10476TIP3    H231382   4.096   1.481   0.323 -0.0746 -0.7419 -0.3812
10477TIP3   OH231383   7.168   5.876   4.897 -0.0926 -0.1533  0.2810
10477TIP3    H131384   7.254   5.886   4.856 -1.1194 -1.1760 -2.2210
10477TIP3    H231385   7.112   5.939   4.852 -1.0952 -0.8389  0.5413
10478TIP3   OH231386   4.710   2.242   3.998  0.2263 -0.8445 -0.1694
10478TIP3    H131387   4.779   2.250   3.932 -0.7688 -0.3164 -1.1651
10478TIP3    H231388   4.629   2.257   3.949 -0.5056 -0.2187  1.2214
10479TIP3   OH231389   7.016   4.404   0.098  0.2419 -0.6438  0.1855
10479TIP3    H131390   7.004   4.357   0.016  0.6354  0.9942 -0.8246
10479TIP3    H231391   7.024   4.496   0.073 -2.1657  0.2059  2.2562
10480TIP3   OH231392   5.229   6.430   5.982 -0.4428 -0.2529  0.4114
10480TIP3    H131393   5.133   6.421   5.982 -0.2982 -2.1139  1.3861
10480TIP3    H231394   5.255   6.417   5.891 -1.2733  2.2917 -0.2120
10481TIP3   OH231395   6.864   5.144   6.230 -0.1383 -0.2072 -0.1481
10481TIP3    H131396   6.795   5.210   6.223 -0.0988 -0.1069  0.3964
10481TIP3    H231397   6.925   5.165   6.158  0.4427  1.0221  0.6902
10482TIP3   OH231398   6.310   1.613   0.686  0.5724  0.2087  0.1383
10482TIP3    H131399   6.366   1.536   0.698  1.0301  0.3278 -1.0983
10482TIP3    H231400   6.346   1.656   0.608 -2.5675 -0.8950 -2.0108
10483TIP3   OH231401   7.898   5.907   3.393 -0.3543  0.1286  0.2113
10483TIP3    H131402   7.809   5.883   3.367  0.6865 -1.7682 -1.8281
10483TIP3    H231403   7.950   5.896   3.313  1.9949 -0.3948  1.7564
10484TIP3   OH231404   7.776   3.044   0.420  0.4267  0.0300 -0.0020
10484TIP3    H131405   7.734   3.106   0.361 -0.5921 -0.1371  0.5291
10484TIP3    H231406   7.792   3.093   0.500  0.8378 -0.0298 -0.0462
10485TIP3   OH231407   2.210   4.811   5.957 -0.0687  0.1621 -0.3603
10485TIP3    H131408   2.225   4.722   5.987  0.4162  0.6097  0.7927
10485TIP3    H231409   2.198   4.804   5.863 -0.1892 -1.1347 -0.2481
10486TIP3   OH231410   1.822   5.528   4.397 -0.4538 -0.4262  0.3540
10486TIP3    H131411   1.738   5.504   4.435  0.2977 -0.4645  2.0223
10486TIP3    H231412   1.831   5.471   4.320 -1.6780 -0.8158  0.4897
10487TIP3   OH231413   1.856   5.754   3.264  0.0950 -0.1114  0.3536
10487TIP3    H131414   1.842   5.670   3.308 -2.2931  0.6400  1.1732
10487TIP3    H231415   1.817   5.743   3.177 -0.7725  0.2866  0.6743
10488TIP3   OH231416   0.994   7.038   4.834  0.5180  0.2626 -0.2165
10488TIP3    H131417   0.906   7.014   4.806  0.0871  2.8814 -1.1996
10488TIP3    H231418   1.036   6.954   4.853 -3.1061 -0.9149  3.3291
10489TIP3   OH231419   4.710   0.139   5.432  0.1139  0.1668 -0.1950
10489TIP3    H131420   4.803   0.159   5.425  0.1646  0.8797  2.0799
10489TIP3    H231421   4.676   0.204   5.494 -1.7199 -0.6717 -0.2808
10490TIP3   OH231422   5.429   1.213   6.417 -0.5784  0.0197  0.4920
10490TIP3    H131423   5.519   1.189   6.442 -0.7192 -0.3255  0.6788
10490TIP3    H231424   5.425   1.308   6.429 -0.3403 -0.0100  0.8187
10491TIP3   OH231425   4.903   2.046   0.115  0.1606  0.3087  0.6977
10491TIP3    H131426   4.882   1.981   0.048  3.9951  0.8544 -1.2347
10491TIP3    H231427   4.854   2.124   0.089  0.1324 -0.0700 -0.4188
10492TIP3   OH231428   6.699   1.160   0.724 -0.4583 -1.2867  0.0156
10492TIP3    H131429   6.794   1.170   0.720 -0.6401 -0.2413 -2.3939
10492TIP3    H231430   6.679   1.158   0.817  1.8017 -0.2521  0.5455
10493TIP3   OH231431   6.821   0.603   0.023  0.4553  0.0552 -0.5680
10493TIP3    H131432   6.786   0.606  -0.067  0.0169 -1.3092 -0.4577
10493TIP3    H231433   6.766   0.664   0.072 -0.1275 -0.1459 -0.9623
10494TIP3   OH231434   7.540   4.339   4.490  0.3817  0.3715  0.3700
10494TIP3    H131435   7.469   4.290   4.448 -0.6931  2.3455 -0.1732
10494TIP3    H231436   7.604   4.272   4.516 -1.9289 -1.5133  1.3965
10495TIP3   OH231437   0.257   5.792   6.262 -0.6237 -0.6521 -0.1729
10495TIP3    H131438   0.276   5.885   6.270 -1.1922 -0.5491 -0.0268
10495TIP3    H231439   0.162   5.787   6.251 -0.4051 -1.0989 -1.9391
10496TIP3   OH231440   3.953   2.544   0.400  1.0228 -0.3496  0.5486
10496TIP3    H131441   3.952   2.639   0.396 -1.3434 -0.3880 -0.9374
10496TIP3    H231442   4.018   2.517   0.335 -1.4570  0.2111 -2.2812
10497TIP3   OH231443   0.229   2.420   1.386 -0.8095  0.7790  0.2848
10497TIP3    H131444   0.255   2.335   1.349  0.2422  1.0886  0.3028
10497TIP3    H231445   0.272   2.423   1.471  0.2077  1.8564 -0.2374
10498TIP3   OH231446   0.174   5.512   4.813 -0.3963 -0.1850 -0.4431
10498TIP3    H131447   0.082   5.540   4.820 -0.3889 -0.5004  1.0625
10498TIP3    H231448   0.223   5.594   4.804 -0.9732 -0.1013 -3.3771
10499TIP3   OH231449   6.408   0.861   1.872 -0.3648 -0.1493 -0.7864
10499TIP3    H131450   6.377   0.877   1.783 -1.8697  1.2633 -0.0365
10499TIP3    H231451   6.491   0.908   1.877  0.1743 -0.9877 -1.7202
10500TIP3   OH231452   2.421   4.535   4.218  0.3689 -0.2941 -0.6146
10500TIP3    H131453   2.359   4.462   4.217 -0.0425  0.0396  0.4145
10500TIP3    H231454   2.388   4.593   4.286  0.4361  1.0812 -1.7397
10501TIP3   OH231455   5.455   2.227   0.165  0.1395 -0.1639  0.1174
10501TIP3    H131456   5.458   2.291   0.093  0.6581  0.4879  0.7090
10501TIP3    H231457   5.485   2.145   0.125 -0.9819 -0.1585 -0.7666
10502TIP3   OH231458   5.056   3.852   2.087  0.3686  0.0946  0.5556
10502TIP3    H131459   5.147   3.853   2.060 -0.4067 -0.5359 -2.2542
10502TIP3    H231460   5.029   3.760   2.079 -0.2379  0.0737  2.4345
10503TIP3   OH231461   0.091   4.470   5.097 -0.3492  0.2382  0.2218
10503TIP3    H131462   0.175   4.485   5.054 -0.5862 -1.6786 -0.9919
10503TIP3    H231463   0.102   4.387   5.143 -0.9422  0.9880  1.7711
10504TIP3   OH231464   7.875   5.155   4.304  0.1363 -0.0583  0.3080
10504TIP3    H131465   7.824   5.135   4.225  1.2368 -0.5835 -0.2850
10504TIP3    H231466   7.962   5.178   4.271  1.0362 -1.7480  1.4417
10505TIP3   OH231467   7.394   3.289   0.304 -0.2147  0.2537  0.7372
10505TIP3    H131468   7.343   3.303   0.224 -1.2250 -0.4269  1.2510
10505TIP3    H231469   7.410   3.377   0.338  1.2256  0.6264 -0.8214
10506TIP3   OH231470   7.718   3.449   2.544 -0.2090 -0.2281 -0.8553
10506TIP3    H131471   7.724   3.491   2.458 -0.1553  0.7740 -0.3642
10506TIP3    H231472   7.649   3.498   2.590  1.2327  0.6339  0.4416
10507TIP3   OH231473   7.632   6.218   3.977  0.0406 -0.5286  0.5499
10507TIP3    H131474   7.678   6.134   3.969 -0.0128 -0.3639 -1.5025
10507TIP3    H231475   7.670   6.273   3.910 -3.9797 -0.7813 -2.0825
10508TIP3   OH231476   7.000   1.947   0.041  0.4412 -0.3799 -0.2841
10508TIP3    H131477   6.956   2.003   0.106  1.4267 -0.3462  0.3679
10508TIP3    H231478   6.951   1.961  -0.040  0.1047  0.7238  0.1028
10509TIP3   OH231479   7.630   4.781   1.895  0.3863  0.1896  0.1958
10509TIP3    H131480   7.713   4.818   1.926  0.6565  0.3633 -0.7232
10509TIP3    H231481   7.583   4.856   1.858 -0.3812  0.1783  1.1256
10510TIP3   OH231482   2.134   6.458   4.155 -0.2235 -0.1621 -0.0479
10510TIP3    H131483   2.135   6.422   4.067 -0.5433  0.5776 -0.3599
10510TIP3    H231484   2.197   6.405   4.204 -1.1884 -1.5520 -0.3229
10511TIP3   OH231485   0.580   5.353   5.310 -0.0940 -0.1194  0.6056
10511TIP3    H131486   0.608   5.285   5.372  2.6187 -0.0895 -0.5144
10511TIP3    H231487   0.595   5.315   5.224  2.0142  2.0363 -0.0540
10512TIP3   OH231488   0.176   5.400   6.156 -0.3523 -0.0757 -0.0035
10512TIP3    H131489   0.198   5.406   6.249  1.2379  0.8130 -0.4293
10512TIP3    H231490   0.081   5.384   6.155 -0.5834  1.0592  1.7352
10513TIP3   OH231491   7.885   5.813   6.277  0.1174  0.1098 -0.0288
10513TIP3    H131492   7.888   5.774   6.365  2.2087 -1.1264 -0.6204
10513TIP3    H231493   7.797   5.849   6.270 -0.2699 -0.2832  2.3651
10514TIP3   OH231494   1.438   5.341   6.079  0.0342 -0.1008  0.0349
10514TIP3    H131495   1.489   5.279   6.130 -0.3899 -1.1910 -0.8261
10514TIP3    H231496   1.502   5.404   6.046  0.7081 -0.9972 -0.3850
10515TIP3   OH231497   0.399   5.223   5.723  0.1744 -0.4944  0.2071
10515TIP3    H131498   0.373   5.232   5.815  1.0846  0.6636  0.3597
10515TIP3    H231499   0.388   5.310   5.686  0.3387 -0.8318 -0.6512
10516TIP3   OH231500   1.672   5.117   6.000  0.1011  0.3058  0.1487
10516TIP3    H131501   1.666   5.168   6.081  0.1650  1.4634 -0.5585
10516TIP3    H231502   1.701   5.031   6.027 -0.8126  0.4036  1.4697
10517TIP3   OH231503   0.916   4.074   4.837  0.1607  0.2728 -0.4536
10517TIP3    H131504   0.955   4.029   4.913  0.2066  1.2355  0.0910
10517TIP3    H231505   0.878   4.154   4.873 -0.5820  0.3083 -1.3151
10518TIP3   OH231506   3.257   7.242   0.945  0.4028 -0.4037  0.2271
10518TIP3    H131507   3.224   7.287   0.867  0.1464 -1.7291 -0.4535
10518TIP3    H231508   3.240   7.302   1.017 -1.2531 -0.0350 -0.4628
10519TIP3   OH231509   0.452   4.781   5.936  0.9512 -0.0699 -0.4967
10519TIP3    H131510   0.400   4.801   5.859 -0.5862 -2.6905 -0.1780
10519TIP3    H231511   0.542   4.803   5.911 -0.0313  2.9688 -1.5917
10520TIP3   OH231512   6.590   2.773   2.987  0.0359  0.3456  0.2644
10520TIP3    H131513   6.662   2.785   2.925  1.0510 -0.8404  1.1992
10520TIP3    H231514   6.540   2.699   2.952 -0.1489  0.5177  0.1626
10521TIP3   OH231515   0.568   4.724   4.869 -0.3712 -0.2352  0.2279
10521TIP3    H131516   0.482   4.766   4.857 -0.1709 -0.0114 -0.4583
10521TIP3    H231517   0.576   4.665   4.794 -0.0797 -0.5306  0.4918
10522TIP3   OH231518   7.031   0.503   0.473  0.3014 -0.2465 -0.7168
10522TIP3    H131519   7.109   0.469   0.518  0.7054  1.6336  0.0509
10522TIP3    H231520   6.972   0.427   0.467  1.6261 -1.3515 -0.0541
10523TIP3   OH231521   1.284   6.272   5.424 -0.4420 -0.0400 -0.0936
10523TIP3    H131522   1.357   6.247   5.368 -0.9224 -0.0044 -0.7501
10523TIP3    H231523   1.315   6.348   5.473  0.0855 -0.2548 -0.0958
10524TIP3   OH231524   6.181   3.067   0.764  0.4919  0.5035 -0.1951
10524TIP3    H131525   6.210   2.979   0.738  1.1851  0.5649  0.3462
10524TIP3    H231526   6.262   3.111   0.793  0.5890  2.1651 -2.8325
10525TIP3   OH231527   5.983   2.067   0.279 -0.5110  0.2587 -0.6337
10525TIP3    H131528   5.890   2.082   0.291 -0.6975 -1.3867  0.0898
10525TIP3    H231529   6.023   2.091   0.362 -0.3628  0.4321 -0.7553
10526TIP3   OH231530   5.728   0.700   1.718 -0.2788 -0.3887  0.3999
10526TIP3    H131531   5.671   0.694   1.795  0.5185  0.1117  1.0410
10526TIP3    H231532   5.812   0.730   1.753 -0.0518  0.3290 -0.7271
10527TIP3   OH231533   6.536   0.659   0.810 -0.2094 -0.2321  0.2861
10527TIP3    H131534   6.452   0.675   0.767  0.8565 -1.4347 -2.3343
10527TIP3    H231535   6.582   0.743   0.802 -0.0392 -0.4266 -0.9121
10528TIP3   OH231536   6.193   1.761   0.121 -0.1441 -0.3709  0.1181
10528TIP3    H131537   6.285   1.748   0.140  0.2799  2.5099  0.2461
10528TIP3    H231538   6.150   1.760   0.206 -0.1717 -1.1820  0.0992
10529TIP3   OH231539   5.305   2.734   3.261 -0.2372 -0.0329 -0.1951
10529TIP3    H131540   5.239   2.784   3.309  0.1750  2.0309 -1.7152
10529TIP3    H231541   5.255   2.674   3.206 -0.7282 -1.5993  1.9097
10530TIP3   OH231542   7.879   2.255   0.402 -0.4152  0.2689  0.2158
10530TIP3    H131543   7.808   2.310   0.370 -0.1331  0.5955  0.1484
10530TIP3    H231544   7.959   2.304   0.381 -0.2132  0.3309  1.1066
10531TIP3   OH231545   7.723   2.395   0.640 -0.4586 -0.0027 -0.1697
10531TIP3    H131546   7.638   2.355   0.658  0.2657 -1.2072  0.6366
10531TIP3    H231547   7.756   2.347   0.565  0.8184 -1.5843  1.3662
10532TIP3   OH231548   2.151   5.330   4.425  0.2790 -0.1600  0.3803
10532TIP3    H131549   2.070   5.289   4.395  0.5897  0.6911 -1.7063
10532TIP3    H231550   2.129   5.422   4.437  0.8081 -0.0228  0.3124
10533TIP3   OH231551   4.269   1.995   0.311  0.3157 -0.3322 -0.0546
10533TIP3    H131552   4.338   2.015   0.248  0.8570 -0.0305  0.6277
10533TIP3    H231553   4.217   1.926   0.269  0.8195 -0.3106 -0.7195
10534TIP3   OH231554   6.001   2.853   1.218  0.1314  0.0230  0.2689
10534TIP3    H131555   5.995   2.945   1.243  1.4611  0.4007 -0.7488
10534TIP3    H231556   6.032   2.808   1.296 -3.5697 -0.0919  1.7866
10535TIP3   OH231557   7.131   2.297   0.192 -0.1786  0.2725  0.1887
10535TIP3    H131558   7.176   2.213   0.177 -0.5409 -0.3178  2.2952
10535TIP3    H231559   7.082   2.312   0.112  0.0012 -1.4641 -0.2725
10536TIP3   OH231560   0.484   5.566   5.176 -0.4768  0.3716 -0.1363
10536TIP3    H131561   0.556   5.625   5.198 -0.5585 -0.3480  2.1626
10536TIP3    H231562   0.512   5.480   5.209 -1.2978 -0.4532 -1.5165
10537TIP3   OH231563   1.780   4.864   6.063  0.1211 -0.0216 -0.1906
10537TIP3    H131564   1.715   4.816   6.013  0.3674  1.6731 -2.2040
10537TIP3    H231565   1.787   4.817   6.146 -0.9932 -2.3235 -1.3764
10538TIP3   OH231566   3.340   6.803   5.980  0.5550  0.5152  0.1028
10538TIP3    H131567   3.282   6.835   5.911  0.0261  0.5249  0.5447
10538TIP3    H231568   3.397   6.877   6.000 -1.1060  1.4424  1.5939
10539TIP3   OH231569   6.411   1.928   1.135 -0.2910  0.0874  0.4487
10539TIP3    H131570   6.335   1.915   1.078 -0.5500  1.3610  0.4918
10539TIP3    H231571   6.487   1.915   1.077 -0.5272 -1.9690  0.5838
10540TIP3   OH231572   0.484   2.401   2.573  0.0204  0.0768  0.2237
10540TIP3    H131573   0.567   2.442   2.595 -0.3692  1.7698 -1.3062
10540TIP3    H231574   0.462   2.347   2.649  3.0200 -1.2551  0.1927
10541TIP3   OH231575   0.850   0.461   3.361  0.2540  0.0384 -0.2097
10541TIP3    H131576   0.816   0.439   3.448 -0.9468  1.8861 -0.2038
10541TIP3    H231577   0.946   0.456   3.371  0.1198  0.1038  1.1654
10542TIP3   OH231578   1.223   5.688   5.435  0.3955  0.2897 -0.4665
10542TIP3    H131579   1.272   5.769   5.450 -2.2124  2.0791 -1.2268
10542TIP3    H231580   1.165   5.681   5.510 -0.0917 -0.3536 -0.9030
10543TIP3   OH231581   7.436   4.757   4.912 -0.0862 -0.0089 -0.2476
10543TIP3    H131582   7.517   4.807   4.917  1.1323 -2.0565  1.5072
10543TIP3    H231583   7.462   4.667   4.929 -2.8127 -0.6044  1.1344
10544TIP3   OH231584   6.575   2.376   0.575  0.1320 -0.1110 -0.2724
10544TIP3    H131585   6.614   2.364   0.661 -0.6428 -0.2562  0.0610
10544TIP3    H231586   6.650   2.378   0.515  0.7172  0.7456  0.4787
10545TIP3   OH231587   6.248   3.868  -0.005  0.0440 -0.9313 -0.4411
10545TIP3    H131588   6.311   3.800   0.021  1.6143 -0.0907 -1.9659
10545TIP3    H231589   6.225   3.912   0.077  1.5491 -1.1552  0.1166
10546TIP3   OH231590   5.133   2.198   2.919 -0.0303 -0.5542 -0.4133
10546TIP3    H131591   5.056   2.171   2.869  0.0269 -0.7311 -0.4047
10546TIP3    H231592   5.147   2.128   2.983  0.1960 -0.5705 -0.4785
10547TIP3   OH231593   4.174   0.694   0.029 -0.1831 -0.0729 -0.2370
10547TIP3    H131594   4.259   0.684   0.071  0.1207  1.5387 -0.4587
10547TIP3    H231595   4.194   0.695  -0.065 -0.5175 -0.3189 -0.3124
10548TIP3   OH231596   6.806   5.975   4.818 -0.3826  0.6972 -0.3369
10548TIP3    H131597   6.809   5.964   4.913  1.9301 -0.0514 -0.4732
10548TIP3    H231598   6.713   5.974   4.797 -0.8922  0.0494  1.8226
10549TIP3   OH231599   5.850   3.923   5.386 -0.3146 -0.0375  0.2381
10549TIP3    H131600   5.782   3.857   5.395 -0.2920  0.1353  1.7929
10549TIP3    H231601   5.840   3.979   5.463  0.2406  1.2432 -0.6007
10550TIP3   OH231602   1.321   5.155   4.422  0.0221  0.5082 -0.0510
10550TIP3    H131603   1.295   5.133   4.512 -1.3477  2.0685 -0.0450
10550TIP3    H231604   1.358   5.244   4.429 -1.2244  1.1409 -1.2066
10551TIP3   OH231605   3.203   0.823   5.914  0.0339 -0.2287 -0.3795
10551TIP3    H131606   3.149   0.777   5.978 -1.1824  2.7325  0.7933
10551TIP3    H231607   3.283   0.770   5.908 -1.0245 -2.0965  1.4234
10552TIP3   OH231608   2.907   6.231   1.333  0.4829 -0.5675 -0.4793
10552TIP3    H131609   2.989   6.237   1.283  0.7608  1.3965  0.1220
10552TIP3    H231610   2.935   6.240   1.425 -0.2180 -1.8896 -0.1353
10553TIP3   OH231611   2.934   4.119   5.674 -0.5622 -0.1818 -0.1244
10553TIP3    H131612   2.863   4.156   5.725 -0.5805  1.0118 -0.9964
10553TIP3    H231613   2.986   4.194   5.646  0.0638 -0.9022 -0.9431
10554TIP3   OH231614   5.233   0.036   4.292  0.4301  0.1937 -0.1900
10554TIP3    H131615   5.172  -0.038   4.301  0.1934  0.3533 -0.4594
10554TIP3    H231616   5.218   0.068   4.203  0.4953  0.6008 -0.0535
10555TIP3   OH231617   2.567   0.320   4.691  0.2981 -0.2845  0.0730
10555TIP3    H131618   2.589   0.285   4.605 -0.1606 -1.0663  0.2742
10555TIP3    H231619   2.568   0.415   4.678  1.1792 -0.3718 -0.5537
10556TIP3   OH231620   5.684   2.037   5.513 -0.6197  0.1595  0.2621
10556TIP3    H131621   5.646   2.094   5.446 -0.1128 -0.0556 -0.2070
10556TIP3    H231622   5.758   2.086   5.547 -0.1052 -0.2658 -0.2319
10557TIP3   OH231623   3.250   0.672   5.288 -0.2035  0.3632 -0.4614
10557TIP3    H131624   3.254   0.765   5.311  2.3241  0.7634 -2.2811
10557TIP3    H231625   3.274   0.669   5.195  1.7391 -2.2547  0.0475
10558TIP3   OH231626   6.720   2.324   0.136  0.2077 -0.2210  0.0145
10558TIP3    H131627   6.786   2.352   0.073 -0.9185  0.6506 -0.7900
10558TIP3    H231628   6.639   2.366   0.107 -0.3661  0.0333  1.9286
10559TIP3   OH231629   3.686   3.052   0.752  0.5015  0.3741  0.4440
10559TIP3    H131630   3.666   3.091   0.837  2.4100 -0.6766  1.4250
10559TIP3    H231631   3.707   2.961   0.772 -0.1793 -0.1990 -1.3263
10560TIP3   OH231632   3.902   0.332   6.093  0.3106 -0.1457  0.5451
10560TIP3    H131633   3.911   0.302   6.183 -1.1516 -1.5959  0.2237
10560TIP3    H231634   3.808   0.345   6.081  0.4079 -0.7432 -1.0073
10561TIP3   OH231635   2.452   5.512   4.583  0.0806  0.0472  0.3711
10561TIP3    H131636   2.422   5.454   4.653  0.2665  0.1834  0.5643
10561TIP3    H231637   2.411   5.596   4.603  0.5759  0.2284  0.6246
10562TIP3   OH231638   2.900   6.010   6.137 -0.3203 -0.4176 -0.2222
10562TIP3    H131639   2.923   6.038   6.048  1.2966  2.7583  1.1210
10562TIP3    H231640   2.982   5.978   6.174 -0.2530  1.2410  1.1343
10563TIP3   OH231641   6.839   2.356   0.411  0.1303  0.5209 -0.1075
10563TIP3    H131642   6.918   2.409   0.398 -0.6894  1.6832 -0.3772
10563TIP3    H231643   6.791   2.364   0.329  1.3411 -2.9815 -1.2766
10564TIP3   OH231644   0.987   1.031   1.707 -0.2759  0.2261  0.0769
10564TIP3    H131645   0.971   1.056   1.798  1.6815 -2.2495  1.1595
10564TIP3    H231646   0.915   0.972   1.685 -1.5082  1.8683 -0.5007
10565TIP3   OH231647   1.417   2.277   1.000  0.3551 -0.3579 -0.2228
10565TIP3    H131648   1.498   2.229   1.019 -0.1056 -1.8248 -1.7634
10565TIP3    H231649   1.417   2.286   0.904 -1.4614 -0.6943 -0.2822
10566TIP3   OH231650   2.775   7.059   4.382 -0.5839  0.1273  0.1695
10566TIP3    H131651   2.857   7.056   4.431 -1.5260  2.7558  2.0076
10566TIP3    H231652   2.714   7.005   4.433 -0.8531  0.7352  0.4926
10567TIP3   OH231653   3.954   6.868   6.355 -0.1409  0.0913 -0.3451
10567TIP3    H131654   3.934   6.774   6.349  0.5215 -0.0204 -0.9878
10567TIP3    H231655   4.015   6.883   6.282 -0.8094  1.1743 -0.6764
10568TIP3   OH231656   4.189   7.021   5.106  0.4156 -0.0854 -0.5340
10568TIP3    H131657   4.211   7.020   5.200 -1.6155 -1.0667 -0.0325
10568TIP3    H231658   4.095   7.041   5.104  0.6570  0.9666 -2.4302
10569TIP3   OH231659   6.312   0.739   0.662  0.4332  0.1533  0.5661
10569TIP3    H131660   6.261   0.671   0.618  0.8026 -0.5647  1.2213
10569TIP3    H231661   6.248   0.805   0.686  0.4433  1.2671 -2.3353
10570TIP3   OH231662   3.550   6.755   5.587 -0.0825  0.2818 -0.4102
10570TIP3    H131663   3.579   6.828   5.533  0.7538  0.2245 -0.0336
10570TIP3    H231664   3.455   6.751   5.572 -0.0226  0.9717 -1.0022
10571TIP3   OH231665   1.925   5.494   6.450  0.3039 -0.0413 -0.3763
10571TIP3    H131666   1.899   5.430   6.384  1.1132 -0.5855 -0.1780
10571TIP3    H231667   1.854   5.557   6.451 -0.2347 -0.6223 -0.9915
10572TIP3   OH231668   7.531   0.287   0.098  0.0919 -0.2889 -0.0850
10572TIP3    H131669   7.450   0.252   0.133 -0.1654 -0.0188 -0.4144
10572TIP3    H231670   7.525   0.274   0.003 -0.7165  2.0666 -0.3971
10573TIP3   OH231671   7.091   4.050   2.129 -0.5610  0.0174 -0.0067
10573TIP3    H131672   7.016   4.108   2.115 -0.7290  0.4449  2.3543
10573TIP3    H231673   7.161   4.108   2.158  0.6863 -0.3959 -2.1000
10574TIP3   OH231674   7.400   4.506   0.286  0.4145 -0.1651 -0.1880
10574TIP3    H131675   7.319   4.480   0.331 -0.2224  1.5795 -0.2936
10574TIP3    H231676   7.442   4.423   0.263 -1.6903 -1.0992 -0.7723
10575TIP3   OH231677   1.905   3.902   1.767  0.1088 -0.3611  0.6133
10575TIP3    H131678   1.982   3.902   1.710  1.1718 -1.2998  2.0173
10575TIP3    H231679   1.941   3.900   1.856 -1.5308  0.9980  1.3257
10576TIP3   OH231680   6.439   3.371   0.250 -0.4048 -0.0989 -0.2369
10576TIP3    H131681   6.476   3.336   0.331  1.2407 -1.1783 -1.4368
10576TIP3    H231682   6.498   3.340   0.181 -1.1938  1.6848 -1.7434
10577TIP3   OH231683   1.560   3.209   0.962 -0.0583 -0.0881 -0.0229
10577TIP3    H131684   1.491   3.164   0.913  0.4958 -0.1798 -0.7373
10577TIP3    H231685   1.525   3.296   0.979 -0.5287 -0.2834  0.0233
10578TIP3   OH231686   5.247   2.713   0.518  0.1300  0.4540  0.4118
10578TIP3    H131687   5.263   2.704   0.424  0.8650 -3.2275  0.8247
10578TIP3    H231688   5.323   2.762   0.550  1.1948 -0.5626 -0.5107
10579TIP3   OH231689   0.691   7.274   5.852  0.2452 -1.1361  0.0575
10579TIP3    H131690   0.693   7.332   5.776  3.4379 -0.4951  0.5702
10579TIP3    H231691   0.682   7.186   5.816  0.1595 -0.7128 -0.9557
10580TIP3   OH231692   5.185   6.431   5.330 -0.1309 -0.1793 -0.0540
10580TIP3    H131693   5.202   6.512   5.282 -1.5116 -0.7211 -1.4799
10580TIP3    H231694   5.090   6.421   5.327  0.0262 -1.8057  0.2094
10581TIP3   OH231695   6.015   0.265   6.264 -0.0924 -0.0032  0.0466
10581TIP3    H131696   5.959   0.189   6.250 -1.7536  1.6165 -2.3832
10581TIP3    H231697   6.060   0.278   6.180 -0.7980  2.4506  0.0127
10582TIP3   OH231698   0.207   1.221   0.071  0.1555  0.2853 -0.1782
10582TIP3    H131699   0.201   1.148   0.132 -0.5003 -1.1480 -1.8822
10582TIP3    H231700   0.272   1.280   0.108  0.0882 -0.7717  1.6443
10583TIP3   OH231701   2.827   4.556   4.594  0.2704  0.3274 -0.3776
10583TIP3    H131702   2.740   4.516   4.591 -0.1737  1.2992 -0.5548
10583TIP3    H231703   2.811   4.649   4.606  1.2684  0.5883 -0.9422
10584TIP3   OH231704   2.977   4.777   4.230 -0.1024  0.3422  0.3628
10584TIP3    H131705   3.069   4.801   4.241 -0.1803  0.7691  0.1176
10584TIP3    H231706   2.934   4.810   4.309 -0.0681  0.2734  0.4093
10585TIP3   OH231707   4.029   5.056   4.890  0.0532  0.5321  0.1471
10585TIP3    H131708   4.071   5.096   4.966 -1.8406  4.3761 -0.6887
10585TIP3    H231709   3.936   5.076   4.900 -0.5188 -0.7685 -2.0872
10586TIP3   OH231710   4.108   6.914   5.819 -0.4231  0.4303 -0.0517
10586TIP3    H131711   4.057   6.978   5.869 -0.6100 -0.0326  0.3513
10586TIP3    H231712   4.197   6.950   5.819 -0.1369 -0.2142  1.7503
10587TIP3   OH231713   1.068   3.314   2.830 -0.2699 -0.1172 -0.1812
10587TIP3    H131714   0.982   3.287   2.796 -1.1022  1.7480  0.3577
10587TIP3    H231715   1.049   3.344   2.919  1.0889 -0.4148  0.2119
10588TIP3   OH231716   0.847   7.400   5.029 -0.1565 -0.1923 -0.5178
10588TIP3    H131717   0.765   7.433   5.066  0.3733  0.2268  0.2964
10588TIP3    H231718   0.906   7.476   5.029  0.4724 -0.6747 -0.3851
10589TIP3   OH231719   5.400   0.095   5.995  0.6335  0.0624  0.2364
10589TIP3    H131720   5.310   0.089   6.027  0.8153 -0.6112  0.6594
10589TIP3    H231721   5.392   0.098   5.900  0.1568  0.1158  0.2765
10590TIP3   OH231722   7.585   6.150   6.250 -0.3950  0.3058  0.7753
10590TIP3    H131723   7.669   6.185   6.281 -0.0892  1.0904 -0.8731
10590TIP3    H231724   7.519   6.205   6.292  0.0173  1.3952  0.0333
10591TIP3   OH231725   7.627   4.379   1.449  0.5371  0.2223 -0.0042
10591TIP3    H131726   7.609   4.367   1.355  0.6496 -0.1983  0.0230
10591TIP3    H231727   7.722   4.366   1.456  0.5021  0.0738  0.1930
10592TIP3   OH231728   0.753   7.447   4.407 -0.1329 -0.0358  0.5404
10592TIP3    H131729   0.788   7.402   4.330  0.6875 -0.0562  0.9286
10592TIP3    H231730   0.675   7.397   4.431  0.1040 -0.5425  0.2474
10593TIP3   OH231731   6.797   1.597   0.307  0.0380  0.4443 -0.4982
10593TIP3    H131732   6.834   1.509   0.309  0.7611  0.5282 -4.9227
10593TIP3    H231733   6.870   1.654   0.281 -1.4659  1.6133 -2.3754
10594TIP3   OH231734   4.219   0.754   5.317  0.3274  0.2394 -0.3258
10594TIP3    H131735   4.130   0.757   5.353  0.4155  0.6106 -0.1339
10594TIP3    H231736   4.209   0.784   5.226 -0.1011 -2.0105 -1.0386
10595TIP3   OH231737   3.074   5.031   5.850  0.0820  0.3641  0.3136
10595TIP3    H131738   3.001   5.078   5.811  0.6520  1.2616  0.3380
10595TIP3    H231739   3.031   4.967   5.908 -0.7251 -0.3257 -1.0223
10596TIP3   OH231740   2.324   7.167   5.462 -0.4717 -0.2065  0.6875
10596TIP3    H131741   2.407   7.120   5.458  0.1222  1.0251 -2.7357
10596TIP3    H231742   2.292   7.169   5.372 -3.3334  0.9415  1.6436
10597TIP3   OH231743   3.497   7.067   4.731 -0.1958 -0.0381 -0.3858
10597TIP3    H131744   3.569   7.008   4.709  0.7049  0.9783 -0.2238
10597TIP3    H231745   3.442   7.068   4.652  0.1355 -0.5817 -0.6260
10598TIP3   OH231746   7.381   2.641   1.320  0.3105 -0.5275 -0.1808
10598TIP3    H131747   7.473   2.669   1.326  0.4006 -1.3184  2.8347
10598TIP3    H231748   7.343   2.666   1.404 -1.8815 -1.5200 -0.8486
10599TIP3   OH231749   5.934   3.509   1.140 -1.0830 -0.1436 -0.0969
10599TIP3    H131750   5.984   3.515   1.222 -0.3877 -0.2695 -0.5057
10599TIP3    H231751   5.926   3.600   1.111 -1.3560 -0.0959  0.1229
10600TIP3   OH231752   2.198   4.385   0.869  0.3053 -0.6955  0.0278
10600TIP3    H131753   2.131   4.444   0.835  0.0334 -1.2178 -0.3464
10600TIP3    H231754   2.268   4.389   0.803 -0.0580 -1.4098 -0.4082
10601TIP3   OH231755   7.251   3.419   1.226  0.4316  0.3231 -0.2005
10601TIP3    H131756   7.267   3.418   1.132  1.0314 -0.1727 -0.0979
10601TIP3    H231757   7.309   3.352   1.261 -1.1527 -0.8000  0.3132
10602TIP3   OH231758   5.149   1.488   5.083  0.7286  0.0375  0.0620
10602TIP3    H131759   5.217   1.522   5.141  0.4929 -1.1127  1.0405
10602TIP3    H231760   5.122   1.406   5.124  0.9775 -1.0924 -2.0098
10603TIP3   OH231761   7.031   2.161   0.460 -0.0916 -0.4076 -0.0914
10603TIP3    H131762   6.967   2.230   0.444  0.2090 -0.1392 -0.1536
10603TIP3    H231763   7.077   2.189   0.540  1.3303  0.4441 -1.1813
10604TIP3   OH231764   5.271   0.480   4.764 -0.4518  0.2227  0.8101
10604TIP3    H131765   5.317   0.547   4.714 -0.5690  0.7163  1.3604
10604TIP3    H231766   5.215   0.436   4.699  0.4051 -0.0429  0.2462
10605TIP3   OH231767   3.634   0.333   6.157 -0.1066  0.0546  0.3009
10605TIP3    H131768   3.543   0.363   6.159  0.1015  0.7243 -0.2465
10605TIP3    H231769   3.627   0.238   6.149 -0.7607  0.1814 -0.7939
10606TIP3   OH231770   7.630   4.474   1.827 -0.6170 -0.0292 -0.5574
10606TIP3    H131771   7.640   4.567   1.851 -2.0150 -0.3102  1.2544
10606TIP3    H231772   7.538   4.466   1.802 -0.1914 -0.6735 -1.9705
10607TIP3   OH231773   6.887   6.348   4.814 -0.5740  0.0818 -0.6546
10607TIP3    H131774   6.882   6.391   4.899 -2.8755  0.3548 -0.9119
10607TIP3    H231775   6.885   6.420   4.750  2.3543 -0.0379 -0.9571
10608TIP3   OH231776   5.929   2.643   1.491 -0.0453 -0.1945 -0.2764
10608TIP3    H131777   5.862   2.639   1.560 -0.0003 -2.3735 -0.3097
10608TIP3    H231778   5.986   2.569   1.510 -0.2667 -1.0998 -2.8882
10609TIP3   OH231779   0.605   1.151   0.715 -0.4513  0.6792 -0.6538
10609TIP3    H131780   0.603   1.061   0.683 -0.9503  1.3788 -2.6858
10609TIP3    H231781   0.696   1.179   0.702 -0.1771  0.3255  0.4411
10610TIP3   OH231782   0.594   2.785   0.009  0.3894 -0.1120  0.0236
10610TIP3    H131783   0.684   2.753   0.009  0.5716  0.3708  1.5684
10610TIP3    H231784   0.602   2.880   0.006 -0.0770 -0.0707  0.0804
10611TIP3   OH231785   7.038   3.466   0.195  0.4437  0.1304  0.4048
10611TIP3    H131786   6.957   3.447   0.148 -0.5588  2.8985  0.9492
10611TIP3    H231787   7.106   3.422   0.144 -1.1996 -0.9190 -0.9241
10612TIP3   OH231788   6.383   5.120   3.984 -0.2893  0.0739  0.2034
10612TIP3    H131789   6.459   5.103   3.928 -1.1285 -2.2883 -0.2572
10612TIP3    H231790   6.350   5.204   3.954  1.3540  0.4934 -0.4950
10613TIP3   OH231791   0.737   2.546   0.338 -0.8375 -0.0871 -0.2473
10613TIP3    H131792   0.655   2.507   0.307 -0.8827  0.0295 -0.2764
10613TIP3    H231793   0.775   2.480   0.396 -1.1592  0.0270  0.0980
10614TIP3   OH231794   6.222   3.155   0.050  0.0682 -0.2445  0.1094
10614TIP3    H131795   6.295   3.108   0.089 -1.1062 -2.0988  0.1103
10614TIP3    H231796   6.205   3.109  -0.032 -0.7057  0.5528 -0.1846
10615TIP3   OH231797   2.214   0.163   6.254 -0.3043 -0.3032 -0.3380
10615TIP3    H131798   2.204   0.243   6.202  0.9011 -0.1604 -0.3748
10615TIP3    H231799   2.211   0.193   6.345 -1.0550 -0.3778 -0.3349
10616TIP3   OH231800   2.240   6.202   6.420  0.4025 -0.2858  0.1189
10616TIP3    H131801   2.220   6.109   6.435  0.7625 -0.3073  0.4557
10616TIP3    H231802   2.165   6.248   6.458 -0.5747 -0.4989 -1.4833
10617TIP3   OH231803   1.955   6.693   6.020 -0.0028  0.0407 -0.0232
10617TIP3    H131804   1.961   6.766   5.958  0.6782 -0.2920 -0.3514
10617TIP3    H231805   1.864   6.694   6.049 -0.0985  0.7685 -0.3363
10618TIP3   OH231806   6.406   2.851   1.625  0.0705  0.1804  0.0055
10618TIP3    H131807   6.483   2.888   1.582 -0.0735 -1.3070 -1.5860
10618TIP3    H231808   6.406   2.890   1.712  1.4980  1.7316 -0.6594
10619TIP3   OH231809   2.598   6.905   4.498 -0.5773 -0.3225 -0.1248
10619TIP3    H131810   2.521   6.957   4.475 -0.7526  0.0433  1.2196
10619TIP3    H231811   2.569   6.851   4.572  0.8935  0.9229  1.3991
10620TIP3   OH231812   7.830   1.138   3.151 -0.5677  0.3843  0.0807
10620TIP3    H131813   7.741   1.139   3.115 -0.7859  1.3659  0.6169
10620TIP3    H231814   7.833   1.216   3.207  0.8445  0.7251 -0.4534
10621TIP3   OH231815   3.145   4.029   0.344 -0.1344  0.6232  0.3268
10621TIP3    H131816   3.098   4.094   0.290 -1.7126 -1.5137 -0.9581
10621TIP3    H231817   3.080   4.000   0.408  0.5933  0.3728  0.9581
10622TIP3   OH231818   6.741   3.007   2.784 -0.1991  0.0126  0.0023
10622TIP3    H131819   6.758   3.028   2.692  0.4610  0.5656  0.2490
10622TIP3    H231820   6.673   3.068   2.811 -0.5752 -0.3196 -0.1891
10623TIP3   OH231821   0.789   3.255   1.983  0.6103 -0.0338 -1.0759
10623TIP3    H131822   0.776   3.349   1.970  0.8779 -0.3611 -4.1002
10623TIP3    H231823   0.870   3.248   2.034  0.0559  1.3900  0.0148
10624TIP3   OH231824   3.706   0.271   5.736  0.7184  0.6454 -0.1754
10624TIP3    H131825   3.628   0.322   5.756  0.6553  0.1683  0.8339
10624TIP3    H231826   3.701   0.255   5.641 -0.1539  1.0267 -0.1954
10625TIP3   OH231827   0.833   4.171   1.653 -0.4118  0.2548  0.3647
10625TIP3    H131828   0.810   4.192   1.744 -0.7844  0.9592  0.1073
10625TIP3    H231829   0.757   4.124   1.619  0.3057 -1.2925  0.8516
10626TIP3   OH231830   7.409   0.053   5.708 -0.0433  0.1638  0.3869
10626TIP3    H131831   7.354   0.023   5.781 -0.0258  1.5626  0.9967
10626TIP3    H231832   7.425   0.145   5.727  0.8083  0.2847 -0.8737
10627TIP3   OH231833   0.526   3.614   0.538  0.1305 -0.2775 -0.7182
10627TIP3    H131834   0.466   3.579   0.473  0.0941 -0.2255 -0.7132
10627TIP3    H231835   0.602   3.556   0.535  0.1104 -0.3012 -0.7756
10628TIP3   OH231836   6.454   1.348   5.489  0.0618  0.2281 -0.1408
10628TIP3    H131837   6.420   1.261   5.470  0.7673 -0.2026  0.5187
10628TIP3    H231838   6.416   1.404   5.422 -0.8716 -0.4783 -0.2178
10629TIP3   OH231839   5.701   2.921   1.767 -0.0831 -0.4195 -0.0710
10629TIP3    H131840   5.607   2.935   1.779  0.1447  2.1446 -1.0605
10629TIP3    H231841   5.735   2.913   1.857 -0.9877  0.3713  0.3478
10630TIP3   OH231842   0.777   3.649   0.790 -0.0849  0.0238 -0.5963
10630TIP3    H131843   0.690   3.676   0.821  1.2841  1.7504  1.9500
10630TIP3    H231844   0.788   3.561   0.825 -0.1153  0.4778  0.5696
10631TIP3   OH231845   1.767   1.930   3.687 -1.0373 -0.5552  0.2282
10631TIP3    H131846   1.847   1.880   3.671 -0.6766  0.4452 -1.1873
10631TIP3    H231847   1.707   1.866   3.725  0.0335 -1.6129  0.2008
10632TIP3   OH231848   4.673   0.524   6.371  0.3772  0.2304  0.3959
10632TIP3    H131849   4.724   0.442   6.376 -0.7611 -0.4935  0.4040
10632TIP3    H231850   4.734   0.592   6.399  1.5594 -0.5268 -0.3074
10633TIP3   OH231851   5.890   0.111   4.047  0.3227  0.5123  0.2195
10633TIP3    H131852   5.894   0.119   4.142  1.6766  0.0133  0.2040
10633TIP3    H231853   5.797   0.122   4.026 -0.0078  0.4013  1.6164
10634TIP3   OH231854   3.290   6.358   6.059 -0.0808  0.3218 -0.3579
10634TIP3    H131855   3.338   6.363   5.976  0.6274  0.7050  0.0667
10634TIP3    H231856   3.310   6.441   6.103 -1.1399  0.4803 -0.1726
10635TIP3   OH231857   2.949   4.859   6.020 -0.9716 -0.0066  0.2030
10635TIP3    H131858   2.964   4.881   6.112 -1.9810  3.2167 -0.3218
10635TIP3    H231859   2.910   4.772   6.022 -2.6841  0.7632  2.9860
10636TIP3   OH231860   1.037   2.889   1.264  0.1962  0.4199  1.1491
10636TIP3    H131861   1.057   2.806   1.306 -1.1330  0.7933  2.5682
10636TIP3    H231862   1.121   2.921   1.232  0.6263 -1.7759 -0.0449
10637TIP3   OH231863   4.303   0.561   6.313 -0.5261 -0.5773 -0.3357
10637TIP3    H131864   4.304   0.465   6.312 -0.8476 -0.5840 -0.0893
10637TIP3    H231865   4.232   0.585   6.253 -1.1956 -0.5130  0.4768
10638TIP3   OH231866   5.146   2.059   1.135  0.9780 -0.3438  0.3064
10638TIP3    H131867   5.168   2.112   1.211 -1.0707 -3.0617  2.9460
10638TIP3    H231868   5.088   2.114   1.083  1.5015  1.1617  1.2841
10639TIP3   OH231869   3.983   0.286   5.357  0.3853 -0.0853  0.5896
10639TIP3    H131870   4.070   0.323   5.373 -0.1890  1.7335 -0.4343
10639TIP3    H231871   3.999   0.214   5.296  0.9103  1.7210 -1.4407
10640TIP3   OH231872   5.709   1.705   1.337  0.2291  0.4918 -0.4004
10640TIP3    H131873   5.707   1.747   1.423 -0.6750  0.8506 -0.5824
10640TIP3    H231874   5.733   1.776   1.277 -2.2573  1.0222 -0.8343
10641TIP3   OH231875   5.771   0.797   5.065 -0.2481  0.1337  0.3823
10641TIP3    H131876   5.754   0.737   4.992 -0.2823  1.4698 -0.7192
10641TIP3    H231877   5.696   0.856   5.065 -0.5340 -0.2220  1.8777
10642TIP3   OH231878   6.864   2.719   0.695  0.1745  0.2520 -0.0830
10642TIP3    H131879   6.831   2.746   0.609  0.7691 -1.5376 -0.8907
10642TIP3    H231880   6.957   2.739   0.692  0.3858 -0.7389 -0.2362
10643TIP3   OH231881   2.701   6.564   5.889  0.5369  0.5151 -0.1922
10643TIP3    H131882   2.721   6.491   5.947 -0.6750  1.3606  1.3169
10643TIP3    H231883   2.764   6.556   5.817 -0.3030 -2.6426 -0.6306
10644TIP3   OH231884   5.018   0.732   4.820  0.2035 -0.1449 -0.1062
10644TIP3    H131885   5.111   0.715   4.804  0.2593  0.0272  0.0438
10644TIP3    H231886   4.991   0.790   4.749  0.3827  0.3851  0.2549
10645TIP3   OH231887   2.824   7.220   6.155  0.3146 -0.5697 -0.4383
10645TIP3    H131888   2.852   7.235   6.065  0.0086 -0.9349 -0.5954
10645TIP3    H231889   2.901   7.243   6.208 -0.7590  3.4617 -0.5006
10646TIP3   OH231890   0.244   3.714   1.219 -0.4589  0.0937 -0.1930
10646TIP3    H131891   0.289   3.637   1.253  0.6670  0.5061 -0.7233
10646TIP3    H231892   0.292   3.736   1.139 -0.8144  1.2942 -0.0867
10647TIP3   OH231893   4.419   0.415   5.829 -0.4099 -0.0717  0.1223
10647TIP3    H131894   4.334   0.406   5.785 -0.5003  2.0444 -0.1644
10647TIP3    H231895   4.408   0.367   5.911 -2.8603  2.5242  1.4151
10648TIP3   OH231896   2.946   4.846   4.952 -0.2471 -0.1607  0.3626
10648TIP3    H131897   2.895   4.832   4.872  2.4447 -0.5425 -1.3676
10648TIP3    H231898   2.934   4.766   5.002 -1.1340 -0.3449 -0.1223
10649TIP3   OH231899   4.698   0.842   4.001 -0.3333  0.7142 -0.7175
10649TIP3    H131900   4.621   0.885   4.037 -0.1598  0.0150  0.5248
10649TIP3    H231901   4.750   0.913   3.962 -2.5778  0.9458 -3.4784
10650TIP3   OH231902   2.718   0.710   5.264  0.4866  0.2283 -0.5089
10650TIP3    H131903   2.702   0.792   5.310  1.4332  1.1720 -1.8240
10650TIP3    H231904   2.799   0.675   5.303  1.3900  1.1187 -1.5623
10651TIP3   OH231905   2.538   6.246   6.341  0.2476 -0.1305 -0.0995
10651TIP3    H131906   2.444   6.239   6.326  0.2172  1.7753 -1.0823
10651TIP3    H231907   2.576   6.175   6.290 -0.6259 -0.4302 -0.3376
10652TIP3   OH231908   2.384   6.751   6.275  0.0403 -0.8299  0.5792
10652TIP3    H131909   2.352   6.769   6.364 -0.1331  0.1774  0.3145
10652TIP3    H231910   2.307   6.722   6.227  0.1188 -1.2962  0.7239
10653TIP3   OH231911   3.444   5.924   5.473 -0.3699 -0.8619  0.1018
10653TIP3    H131912   3.455   5.994   5.538  0.2960  1.3002 -2.2343
10653TIP3    H231913   3.512   5.860   5.495  1.0150  0.7046  0.4747
10654TIP3   OH231914   4.997   0.183   5.475  0.8706 -0.5240 -0.3370
10654TIP3    H131915   5.059   0.255   5.492  1.8130 -1.2278 -0.7923
10654TIP3    H231916   4.998   0.132   5.556  0.2723 -0.0913 -0.0478
10655TIP3   OH231917   5.949   0.633   5.214 -0.0455 -0.5683 -0.3076
10655TIP3    H131918   5.946   0.663   5.305  0.9865 -0.0602 -0.4287
10655TIP3    H231919   5.895   0.696   5.167 -0.8121 -0.9969 -0.0024
10656TIP3   OH231920   2.322   2.134   2.043  0.1013  0.0899  0.0168
10656TIP3    H131921   2.237   2.168   2.015  0.1675  0.3617  0.1477
10656TIP3    H231922   2.302   2.072   2.113  0.0255  0.2880  0.1698
10657TIP3   OH231923   6.977   1.844   1.997 -0.3710  0.1192 -0.0226
10657TIP3    H131924   6.959   1.865   1.906 -1.3621  0.7311  0.2984
10657TIP3    H231925   7.069   1.869   2.010 -0.4997  0.9261 -0.6046
10658TIP3   OH231926   6.362   2.677   0.927 -0.1366  0.7461 -0.8922
10658TIP3    H131927   6.423   2.652   0.997 -0.2661  0.6378 -0.8178
10658TIP3    H231928   6.416   2.722   0.863 -0.1833  1.7942 -0.2222
10659TIP3   OH231929   1.237   6.674   4.075  0.1151 -0.5328  0.4403
10659TIP3    H131930   1.253   6.587   4.038  1.4685 -0.4838  0.8717
10659TIP3    H231931   1.291   6.733   4.023  0.1091 -0.1135  0.9021
10660TIP3   OH231932   0.973   4.391   2.142  0.2407  0.2375 -0.0634
10660TIP3    H131933   0.976   4.414   2.049  0.7754  1.1347  0.1715
10660TIP3    H231934   1.026   4.458   2.185  1.5861 -1.2818  0.6695
10661TIP3   OH231935   0.611   7.044   5.710  0.0667 -0.1116  0.6349
10661TIP3    H131936   0.561   6.964   5.695 -1.1792  0.5997  0.8651
10661TIP3    H231937   0.585   7.102   5.639  2.4936 -0.5919 -0.6998
10662TIP3   OH231938   3.820   6.257   5.584 -0.4772 -0.0211  0.0470
10662TIP3    H131939   3.838   6.167   5.610 -1.6574 -0.7895 -1.6406
10662TIP3    H231940   3.782   6.249   5.496  2.0063  2.3101 -1.3312
10663TIP3   OH231941   5.964   2.617   0.759  0.2685 -0.3985  0.6259
10663TIP3    H131942   6.018   2.624   0.838  1.5173  0.4020 -0.2735
10663TIP3    H231943   5.987   2.694   0.707  0.5897 -1.6733 -1.1873
10664TIP3   OH231944   1.716   7.190   5.908 -0.2460 -0.0405 -0.3965
10664TIP3    H131945   1.716   7.165   5.815  0.0994 -0.2388 -0.3472
10664TIP3    H231946   1.675   7.276   5.910  0.3378  0.2544 -0.8175
10665TIP3   OH231947   0.647   7.067   6.037  0.2773 -0.1280 -0.1253
10665TIP3    H131948   0.681   6.990   5.991  1.1539  0.7336 -0.9265
10665TIP3    H231949   0.710   7.136   6.019 -1.3193  1.2116 -0.7064
10666TIP3   OH231950   2.153   6.791   5.459  0.1325 -0.4240 -0.3812
10666TIP3    H131951   2.083   6.804   5.523 -1.6218 -2.6302 -1.7457
10666TIP3    H231952   2.219   6.740   5.505 -0.0314  0.0321  0.3676
10667TIP3   OH231953   7.823   1.980   0.298 -0.2558  0.1794 -0.5712
10667TIP3    H131954   7.859   2.068   0.285  0.4532 -0.4095 -2.8078
10667TIP3    H231955   7.738   1.982   0.255 -0.1598 -0.2861 -0.7874
10668TIP3   OH231956   6.027   0.392   5.096  0.7600  0.2641  0.1431
10668TIP3    H131957   6.102   0.440   5.131  0.1260  2.5267 -1.5247
10668TIP3    H231958   5.955   0.454   5.099 -0.7689 -1.5034  0.5810
10669TIP3   OH231959   0.618   3.115   1.041  0.6367  0.2241 -0.2641
10669TIP3    H131960   0.651   3.044   0.986  0.7746  0.0461  0.0483
10669TIP3    H231961   0.667   3.108   1.123 -0.7625 -0.5864  0.5290
10670TIP3   OH231962   0.733   0.391   0.495 -0.2399 -0.3774  0.2564
10670TIP3    H131963   0.807   0.341   0.460 -1.3384  0.5706 -3.6917
10670TIP3    H231964   0.670   0.324   0.523  0.6872 -1.1828  0.4563
10671TIP3   OH231965   3.145   6.335   4.685 -0.0649  0.5056 -0.5843
10671TIP3    H131966   3.189   6.394   4.624  0.9048 -0.4431 -0.8159
10671TIP3    H231967   3.179   6.361   4.771  0.1817  0.4377 -0.6616
10672TIP3   OH231968   1.435   4.672   5.748 -0.2994  0.0092  0.4877
10672TIP3    H131969   1.416   4.625   5.829  0.5270  0.7319  1.1118
10672TIP3    H231970   1.462   4.759   5.777 -0.7176  0.5118 -0.6029
10673TIP3   OH231971   1.248   5.026   4.166  0.3484  0.6996  0.0303
10673TIP3    H131972   1.266   5.075   4.086  0.0629 -0.0967 -0.5207
10673TIP3    H231973   1.279   5.083   4.236  1.7536  0.8459 -0.7069
10674TIP3   OH231974   7.328   3.703   0.504 -0.1396  0.0306 -0.3781
10674TIP3    H131975   7.252   3.709   0.446 -1.3664  0.2122  1.2073
10674TIP3    H231976   7.328   3.786   0.552  1.8076  0.5548 -1.2300
10675TIP3   OH231977   1.228   6.389   5.895 -0.4007  0.0829 -0.5212
10675TIP3    H131978   1.272   6.465   5.857  0.8462 -1.8333 -3.0562
10675TIP3    H231979   1.138   6.394   5.862  0.1494 -0.4948 -2.0995
10676TIP3   OH231980   1.000   4.825   6.410 -0.4930  0.3306  0.5389
10676TIP3    H131981   0.940   4.867   6.349 -0.7102 -1.9464 -0.8764
10676TIP3    H231982   1.064   4.780   6.354  0.0102 -0.8128  1.9917
10677TIP3   OH231983   1.592   6.525   4.915 -0.4474 -0.6422 -0.5457
10677TIP3    H131984   1.569   6.447   4.966 -0.5777 -1.2727 -1.5514
10677TIP3    H231985   1.646   6.492   4.844 -0.1555  0.2495 -0.7371
10678TIP3   OH231986   0.538   3.818   3.265  0.1888  0.7767  0.7807
10678TIP3    H131987   0.568   3.835   3.355  1.2401  0.7773  0.4348
10678TIP3    H231988   0.588   3.880   3.211 -0.1984  0.5482  0.1584
10679TIP3   OH231989   4.487   0.697   4.232 -0.2812 -0.6902 -0.1929
10679TIP3    H131990   4.392   0.695   4.247 -0.6294  1.5447 -1.8566
10679TIP3    H231991   4.501   0.775   4.179  2.3979 -1.5414 -0.8018
10680TIP3   OH231992   0.344   3.400   1.057  0.1207 -0.1844 -0.0920
10680TIP3    H131993   0.320   3.431   1.144 -0.6656  0.7512 -0.6306
10680TIP3    H231994   0.332   3.305   1.061  3.3258 -0.5580  1.8120
10681TIP3   OH231995   4.336   1.260   0.188 -0.7947 -0.5791 -0.0570
10681TIP3    H131996   4.381   1.334   0.146 -0.4072  0.2692  1.8046
10681TIP3    H231997   4.282   1.300   0.256 -0.1065 -2.0551  1.3875
10682TIP3   OH231998   6.924   3.173   2.022  0.2536  0.4942  0.3086
10682TIP3    H131999   7.010   3.132   2.031 -0.1985 -0.4796  0.2709
10682TIP3    H232000   6.903   3.167   1.929  0.2392  0.9347  0.2797
10683TIP3   OH232001   0.280   7.236   4.610 -0.4961 -0.1932  0.3252
10683TIP3    H132002   0.367   7.276   4.608 -1.2362  1.5094  0.8608
10683TIP3    H232003   0.269   7.196   4.524  1.2107 -1.2878  0.6091
10684TIP3   OH232004   4.853   5.326   5.251  0.2544  0.7683  0.5667
10684TIP3    H132005   4.903   5.402   5.223 -0.7124  1.2349  0.0844
10684TIP3    H232006   4.848   5.335   5.347  2.5388 -0.2006  0.8229
10685TIP3   OH232007   6.765   4.378   1.145 -0.3322 -0.2699 -0.1730
10685TIP3    H132008   6.721   4.310   1.195  0.0392 -0.1552  0.3084
10685TIP3    H232009   6.766   4.454   1.203  0.3388 -0.2171 -0.2547
10686TIP3   OH232010   0.874   5.729   6.370 -0.1554  0.4788  0.0406
10686TIP3    H132011   0.962   5.720   6.332 -0.0454 -0.8945  0.5948
10686TIP3    H232012   0.881   5.805   6.429  0.1422  1.5266 -1.3090
10687TIP3   OH232013   0.465   2.635   2.016 -0.0363  0.2277 -0.3236
10687TIP3    H132014   0.428   2.689   1.946  0.3040 -1.2402 -1.6810
10687TIP3    H232015   0.549   2.605   1.981 -0.1306 -1.0209  0.4676
10688TIP3   OH232016   4.280   0.292   5.454 -0.1154  0.1211  0.6704
10688TIP3    H132017   4.305   0.319   5.366 -0.6177  3.1259  1.3896
10688TIP3    H232018   4.363   0.272   5.497  0.3993  1.4905  0.3675
10689TIP3   OH232019   5.892   2.092   0.707  0.5240  0.0623  0.0861
10689TIP3    H132020   5.918   2.184   0.706  1.0595 -0.0859 -1.0247
10689TIP3    H232021   5.796   2.094   0.699  0.5480  0.5255 -0.1066
10690TIP3   OH232022   1.847   7.063   5.612  0.4652  0.0479  0.3292
10690TIP3    H132023   1.802   7.058   5.528  1.5320 -0.8984 -0.2118
10690TIP3    H232024   1.888   7.149   5.612  0.1687  0.1921  0.0301
10691TIP3   OH232025   0.878   2.343   0.501  0.2541 -0.7994 -0.1253
10691TIP3    H132026   0.802   2.286   0.495  0.2356 -0.8779  0.8422
10691TIP3    H232027   0.862   2.397   0.578  1.0713 -0.6563 -0.0482
10692TIP3   OH232028   6.819   2.194   0.996  0.0857 -0.4485 -0.5214
10692TIP3    H132029   6.822   2.099   1.008 -0.3564 -0.3296  0.5186
10692TIP3    H232030   6.886   2.228   1.056 -0.6244 -0.0140  0.0266
10693TIP3   OH232031   1.620   7.027   4.669  0.3509  0.0743  0.3008
10693TIP3    H132032   1.600   6.949   4.721 -0.1554  0.6008  0.8985
10693TIP3    H232033   1.673   6.994   4.596  0.3911 -0.7846  0.7125
10694TIP3   OH232034   7.204   1.585   2.285  0.1290  0.3734 -0.1629
10694TIP3    H132035   7.221   1.675   2.258  1.2933 -0.1596 -1.2324
10694TIP3    H232036   7.179   1.540   2.204 -0.3957 -0.2810  0.3552
10695TIP3   OH232037   0.120   2.313   0.680  0.2138  0.0053  0.4000
10695TIP3    H132038   0.180   2.301   0.607 -0.8518 -2.7331 -0.0617
10695TIP3    H232039   0.045   2.359   0.642 -0.3306 -1.4011 -0.2605
10696TIP3   OH232040   6.755   1.952   2.113 -0.2656 -0.1339 -0.3169
10696TIP3    H132041   6.819   1.918   2.050  0.0122  2.7352 -1.6308
10696TIP3    H232042   6.808   1.982   2.187 -0.2968 -0.0976 -0.3096
10697TIP3   OH232043   7.871   2.103   1.427 -0.0074 -0.1176  0.1633
10697TIP3    H132044   7.863   2.019   1.472  2.6372 -1.4299 -1.7044
10697TIP3    H232045   7.896   2.164   1.496 -1.7338 -0.8700  1.5008
10698TIP3   OH232046   0.304   3.269   2.667 -0.1355  0.3263  0.0535
10698TIP3    H132047   0.293   3.362   2.649  0.9946  0.4295 -0.1311
10698TIP3    H232048   0.215   3.235   2.675 -0.6922  0.7640 -3.3364
10699TIP3   OH232049   7.245   1.923   1.924 -0.5151  0.1036  0.7655
10699TIP3    H132050   7.320   1.974   1.954 -0.0405 -1.2001  1.8066
10699TIP3    H232051   7.204   1.978   1.857  0.3632  1.5674  1.4127
10700TIP3   OH232052   1.072   1.488   1.579  0.4251 -0.1213 -0.0335
10700TIP3    H132053   1.019   1.411   1.601  0.2089  0.0208 -0.0520
10700TIP3    H232054   1.009   1.550   1.542  0.7584 -0.2826 -0.8768
10701TIP3   OH232055   1.014   4.401   6.279  0.4776 -0.4182  0.2038
10701TIP3    H132056   1.034   4.370   6.367 -0.0495 -1.1144  0.0816
10701TIP3    H232057   0.929   4.363   6.258  1.8628 -2.5868 -1.7034
10702TIP3   OH232058   6.392   1.106   0.724  0.5581  0.5491  0.0409
10702TIP3    H132059   6.447   1.056   0.664  1.5413  0.6516  0.8365
10702TIP3    H232060   6.425   1.083   0.811 -0.6332  0.6505  0.5316
10703TIP3   OH232061   0.224   4.765   1.360  0.0699 -0.2592  0.2754
10703TIP3    H132062   0.254   4.822   1.430 -1.1575 -1.3922  1.7703
10703TIP3    H232063   0.291   4.697   1.354  0.3410  0.0201  0.1152
10704TIP3   OH232064   1.097   6.092   5.741 -0.4117  0.1766  0.0277
10704TIP3    H132065   1.138   6.089   5.655  0.9490 -0.0059  0.6801
10704TIP3    H232066   1.168   6.112   5.802 -1.3325  0.1610  1.1319
10705TIP3   OH232067   1.021   6.390   5.525 -0.0341  0.1848 -0.2398
10705TIP3    H132068   1.020   6.441   5.444  0.8013 -0.3756 -0.6062
10705TIP3    H232069   1.114   6.376   5.543 -0.1961  0.7139  1.0748
10706TIP3   OH232070   5.171   4.861   1.290 -0.1263  0.1815  0.1217
10706TIP3    H132071   5.230   4.791   1.264 -0.1163 -0.3622  1.5920
10706TIP3    H232072   5.121   4.880   1.210  2.2281  0.8968 -1.2524
10707TIP3   OH232073   0.083   3.232   1.278 -0.4102  0.4467  0.0541
10707TIP3    H132074   0.145   3.160   1.281 -0.0156  0.7746 -0.2213
10707TIP3    H232075   0.007   3.196   1.233  0.3734  0.6396 -1.4547
10708TIP3   OH232076   3.443   6.389   5.200  0.6398 -0.0339 -0.6559
10708TIP3    H132077   3.428   6.483   5.202  1.1430  0.0927 -2.0476
10708TIP3    H232078   3.367   6.351   5.245  0.2735  1.0113 -0.3892
10709TIP3   OH232079   0.156   4.573   0.888  0.1649  0.7229 -0.2486
10709TIP3    H132080   0.174   4.481   0.904  1.0178  0.9575  0.1919
10709TIP3    H232081   0.091   4.598   0.953  2.6834  1.3618  2.1168
10710TIP3   OH232082   7.457   4.187   0.500 -0.0645  0.3704  0.0346
10710TIP3    H132083   7.516   4.246   0.454 -1.4911  1.1554 -0.8566
10710TIP3    H232084   7.505   4.160   0.578  1.4639  0.9541 -0.6878
10711TIP3   OH232085   6.222   1.852   4.206 -0.0207  0.7590  0.2002
10711TIP3    H132086   6.141   1.845   4.155  0.0959  1.7480 -0.1286
10711TIP3    H232087   6.222   1.942   4.239  0.7135  0.6190  0.5988
10712TIP3   OH232088   3.048   6.790   5.934  0.8487  0.8297  0.1384
10712TIP3    H132089   3.101   6.798   6.014 -0.9933 -1.4146  1.6605
10712TIP3    H232090   3.109   6.809   5.863  3.0131  1.0128  1.9686
10713TIP3   OH232091   4.744   5.909   4.154 -0.3337  0.5344  0.0763
10713TIP3    H132092   4.825   5.958   4.172  0.1312 -1.0363  2.3937
10713TIP3    H232093   4.674   5.967   4.184 -0.1818  2.2909 -2.7756
10714TIP3   OH232094   3.459   0.418   5.732  0.2592  0.3229 -0.7706
10714TIP3    H132095   3.382   0.371   5.762 -1.0042  2.7088 -0.1650
10714TIP3    H232096   3.440   0.439   5.640 -0.4016  2.0192 -0.2647
10715TIP3   OH232097   3.408   5.553   4.761 -0.1861 -0.8361 -1.1654
10715TIP3    H132098   3.337   5.502   4.721 -0.9482  0.3710 -1.3788
10715TIP3    H232099   3.379   5.568   4.851  1.3203 -3.1606 -0.2359
10716TIP3   OH232100   0.202   3.133   0.731 -0.2922  0.0965 -0.1189
10716TIP3    H132101   0.161   3.103   0.812 -0.9897  5.8465  1.8747
10716TIP3    H232102   0.296   3.137   0.752  0.3053 -3.6608 -1.5475
10717TIP3   OH232103   2.729   5.820   5.667  0.5516 -0.0515 -0.3319
10717TIP3    H132104   2.747   5.734   5.628 -0.4454 -0.8167  0.8561
10717TIP3    H232105   2.814   5.862   5.671  1.0377 -0.9403 -1.0465
10718TIP3   OH232106   3.603   1.313   5.611 -0.2502 -0.2332 -0.1338
10718TIP3    H132107   3.626   1.220   5.605  1.2840  0.0728  0.7624
10718TIP3    H232108   3.545   1.318   5.687  0.7393 -0.2625  0.6269
10719TIP3   OH232109   7.865   3.477   1.287  0.2845 -0.1349  0.1085
10719TIP3    H132110   7.899   3.387   1.293 -0.4902 -0.4940 -0.7429
10719TIP3    H232111   7.800   3.473   1.217 -0.5640  0.8496  0.8380
10720TIP3   OH232112   5.212   2.554   1.297 -0.4273 -0.1729  0.3378
10720TIP3    H132113   5.220   2.608   1.377 -1.4581  2.0595 -1.0111
10720TIP3    H232114   5.121   2.565   1.271 -0.2052 -1.2706 -0.9080
10721TIP3   OH232115   3.535   5.839   6.045  0.4088  0.0977 -0.4589
10721TIP3    H132116   3.483   5.908   6.085 -0.6086 -1.5944  1.1789
10721TIP3    H232117   3.489   5.758   6.066  2.9282 -1.3147 -0.1837
10722TIP3   OH232118   3.351   7.165   5.813  0.0505  0.3652 -0.5723
10722TIP3    H132119   3.334   7.228   5.882  1.1360 -0.3794  0.4012
10722TIP3    H232120   3.394   7.216   5.744 -3.1979  1.6066 -1.7512
10723TIP3   OH232121   5.542   1.356   6.144 -0.1546  0.8652 -0.1073
10723TIP3    H132122   5.615   1.303   6.176 -1.7314 -0.0676  2.0781
10723TIP3    H232123   5.571   1.447   6.155  0.5003  0.5086  1.1926
10724TIP3   OH232124   1.625   0.018   0.985  0.4058  0.0758  0.0851
10724TIP3    H132125   1.542   0.065   0.980 -0.3871 -1.2058  0.9554
10724TIP3    H232126   1.602  -0.073   0.963  1.7359 -0.1105 -0.5692
10725TIP3   OH232127   7.689   3.239   0.232  0.5717  0.1124  0.7985
10725TIP3    H132128   7.724   3.303   0.294  1.2857 -1.5407  2.1502
10725TIP3    H232129   7.594   3.247   0.240  0.6562  1.1297  0.8244
10726TIP3   OH232130   0.542   2.360   0.250 -0.3267 -0.3065 -0.1292
10726TIP3    H132131   0.538   2.339   0.343  0.0122 -0.5854 -0.1760
10726TIP3    H232132   0.470   2.421   0.236  0.4210  0.7654  0.5748
10727TIP3   OH232133   5.425   3.131   1.397 -0.7604  0.9638  0.4497
10727TIP3    H132134   5.470   3.184   1.331 -2.8095  0.7803 -1.1401
10727TIP3    H232135   5.420   3.188   1.474  2.1697  0.9719  0.6832
10728TIP3   OH232136   0.827   7.085   6.300 -0.1690  0.0171 -0.2577
10728TIP3    H132137   0.789   7.017   6.243 -0.6418  0.6727 -0.7277
10728TIP3    H232138   0.870   7.145   6.239  0.3608  0.0753  0.1719
10729TIP3   OH232139   7.233   1.243   0.246 -0.1147  0.4689  0.5205
10729TIP3    H132140   7.274   1.202   0.323 -0.4669  1.0697  1.0288
10729TIP3    H232141   7.302   1.243   0.180  0.5014  0.8571  1.1568
10730TIP3   OH232142   1.713   7.014   5.360 -0.4328  0.2196 -0.0480
10730TIP3    H132143   1.774   6.951   5.323 -1.3453 -0.6602 -0.0782
10730TIP3    H232144   1.653   7.035   5.288 -0.1640  1.0861 -0.0270
10731TIP3   OH232145   0.429   5.358   4.948 -0.0197  0.1535  0.1047
10731TIP3    H132146   0.415   5.450   4.923  0.2975  0.3307  0.5921
10731TIP3    H232147   0.342   5.328   4.976 -0.5367 -0.2335 -1.8095
10732TIP3   OH232148   5.111   0.043   5.982 -0.5214 -0.0197 -0.3885
10732TIP3    H132149   5.046   0.094   6.030  0.3195  0.6155  0.0886
10732TIP3    H232150   5.110  -0.042   6.026 -0.2683  0.3295  0.3096
10733TIP3   OH232151   5.740   4.259   0.309  0.0692 -0.2031 -0.0182
10733TIP3    H132152   5.790   4.220   0.381 -2.0334 -1.6627  0.7173
10733TIP3    H232153   5.755   4.200   0.235  0.1604 -0.1513 -0.0406
10734TIP3   OH232154   4.186   0.244   4.495  0.0573 -0.4518  0.1977
10734TIP3    H132155   4.230   0.324   4.524 -0.5885 -0.0805  0.1782
10734TIP3    H232156   4.096   0.254   4.527 -0.1124 -1.0230 -0.0920
10735TIP3   OH232157   7.814   3.179  -0.011  0.1737  0.0098  0.4811
10735TIP3    H132158   7.756   3.208   0.060 -1.7436  0.7514 -1.3441
10735TIP3    H232159   7.850   3.260  -0.047 -0.0874 -0.2585 -0.3950
10736TIP3   OH232160   4.460   6.346   0.708  0.1242 -0.1614 -0.2136
10736TIP3    H132161   4.520   6.391   0.768  1.5244 -0.9117 -1.0259
10736TIP3    H232162   4.402   6.295   0.766  1.5158 -0.9462  0.5302
10737TIP3   OH232163   6.416   4.339   1.391 -0.3039 -0.5229  0.2387
10737TIP3    H132164   6.330   4.310   1.358 -1.0016 -0.0404  1.6252
10737TIP3    H232165   6.473   4.264   1.376 -1.3718 -1.4815  0.8803
10738TIP3   OH232166   3.144   7.088   6.080  0.2741  0.5266 -0.2085
10738TIP3    H132167   3.158   7.106   5.987 -1.8014 -1.0004 -0.8500
10738TIP3    H232168   3.064   7.136   6.101  0.6719  0.7653  0.7784
10739TIP3   OH232169   0.948   2.113  -0.008 -0.1585 -0.1662 -0.4482
10739TIP3    H132170   0.874   2.086  -0.062 -1.9659 -0.7077  2.2213
10739TIP3    H232171   0.912   2.124   0.080  2.6168  1.0839  0.6166
10740TIP3   OH232172   6.178   1.036   1.304  0.3373 -0.1655  0.0816
10740TIP3    H132173   6.142   1.045   1.216 -0.0801 -0.9467  0.1682
10740TIP3    H232174   6.191   1.126   1.334 -1.8391  0.1604  0.1458
10741TIP3   OH232175   6.033   1.595   0.694  0.4954  0.3903  0.5672
10741TIP3    H132176   6.128   1.595   0.685  0.6322 -2.6018  1.4513
10741TIP3    H232177   6.000   1.611   0.606  1.7755  1.7343  0.3025
10742TIP3   OH232178   0.180   2.370   1.933  0.8877 -0.4912  0.2848
10742TIP3    H132179   0.198   2.407   2.019  0.2184 -1.2979  0.7799
10742TIP3    H232180   0.251   2.307   1.919  0.4598 -1.0645  0.6725
10743TIP3   OH232181   6.244   3.747   0.799 -0.2360  0.0216 -0.0510
10743TIP3    H132182   6.308   3.777   0.735  0.1474 -0.2580  0.1996
10743TIP3    H232183   6.172   3.711   0.746  0.4714 -1.0164 -0.3277
10744TIP3   OH232184   2.296   5.287   5.612 -0.4200 -0.2394  0.1439
10744TIP3    H132185   2.388   5.287   5.585 -0.6502  0.2945 -0.6421
10744TIP3    H232186   2.295   5.342   5.691  0.1174 -1.1822  0.8257
10745TIP3   OH232187   6.957   0.459   4.130  0.0242  0.7629  0.2842
10745TIP3    H132188   6.867   0.492   4.124  0.2928  1.0550 -2.5088
10745TIP3    H232189   6.947   0.365   4.145 -0.7859  0.4970 -1.7738
10746TIP3   OH232190   2.920   7.463   3.260  0.0734 -0.3250 -0.0910
10746TIP3    H132191   2.909   7.384   3.206 -0.3222  1.0016 -1.9990
10746TIP3    H232192   2.849   7.459   3.324 -0.8921 -0.7193 -1.1773
10747TIP3   OH232193   0.620   4.883   6.324  0.6039 -0.7029  0.2529
10747TIP3    H132194   0.684   4.927   6.381  0.9682 -0.4139 -0.3697
10747TIP3    H232195   0.641   4.790   6.332  1.5477 -0.5598 -0.4647
10748TIP3   OH232196   0.675   3.658   0.049 -0.0115 -0.0835  0.3934
10748TIP3    H132197   0.648   3.683   0.137 -2.4884  0.8695 -0.5861
10748TIP3    H232198   0.746   3.718   0.027  0.6670 -0.3789  1.7408
10749TIP3   OH232199   1.231   0.540   0.341 -0.5571  0.4015  0.1124
10749TIP3    H132200   1.291   0.488   0.288 -1.9361 -1.7374  0.5835
10749TIP3    H232201   1.258   0.524   0.431 -1.6740 -0.4032  0.3178
10750TIP3   OH232202   0.052   3.686   1.431  0.3974 -0.0471  0.2049
10750TIP3    H132203   0.005   3.608   1.402 -0.7000  0.2096  1.2460
10750TIP3    H232204   0.112   3.706   1.359 -1.8010  0.2305 -1.6301
10751TIP3   OH232205   2.655   7.295   5.817 -0.5171  0.2507  0.0079
10751TIP3    H132206   2.592   7.367   5.813 -1.5732 -0.6671 -0.0842
10751TIP3    H232207   2.601   7.216   5.826  0.6998 -0.3490  2.5699
10752TIP3   OH232208   0.262   2.983   1.355 -0.5978 -0.4861 -0.1414
10752TIP3    H132209   0.278   2.892   1.381  2.1562 -0.3118 -1.0695
10752TIP3    H232210   0.281   3.034   1.433  2.2026 -0.4136 -0.7971
10753TIP3   OH232211   0.385   3.230   0.030  0.2657 -0.4333  0.0648
10753TIP3    H132212   0.480   3.229   0.020  0.2941  1.7267  0.0211
10753TIP3    H232213   0.371   3.226   0.125  0.4150  0.1645  0.1117
10754TIP3   OH232214   5.607   0.016   3.682 -0.3316 -0.3787 -0.5137
10754TIP3    H132215   5.599   0.082   3.612  2.0905  0.7105  0.2017
10754TIP3    H232216   5.603  -0.068   3.635 -1.5995  0.2686 -1.6310
10755TIP3   OH232217   3.381   1.765   5.170  0.2665 -0.0911  0.0394
10755TIP3    H132218   3.419   1.760   5.083 -0.5380 -0.3048 -0.3090
10755TIP3    H232219   3.380   1.859   5.190  1.4165 -0.1215  0.2642
10756TIP3   OH232220   0.779   1.466   1.843  0.0188  0.2250 -0.4851
10756TIP3    H132221   0.860   1.509   1.872  0.0639 -0.0304 -0.2301
10756TIP3    H232222   0.733   1.534   1.793 -1.0075  1.3521  1.8968
10757TIP3   OH232223   7.752   4.276   1.716 -0.1846 -0.1071  0.5343
10757TIP3    H132224   7.695   4.289   1.641 -0.2025  1.6626  0.8283
10757TIP3    H232225   7.733   4.350   1.774  0.8710 -0.6522  1.6128
10758TIP3   OH232226   0.708   6.549   5.674  0.1973 -0.2978 -0.4749
10758TIP3    H132227   0.714   6.627   5.620 -3.1528  1.4465  1.5199
10758TIP3    H232228   0.723   6.476   5.614  1.0766  1.7407 -2.8015
10759TIP3   OH232229   1.123   0.605   2.331 -0.3126 -0.9894 -0.1305
10759TIP3    H132230   1.190   0.582   2.267  0.5462  1.4514 -0.1185
10759TIP3    H232231   1.054   0.646   2.279  0.4572  1.1454  0.5005
10760TIP3   OH232232   2.675   6.702   5.443  0.3540 -0.6551  0.1893
10760TIP3    H132233   2.765   6.733   5.443  0.0239  0.3997  2.6444
10760TIP3    H232234   2.681   6.608   5.426  1.7730 -0.3440 -1.1861
10761TIP3   OH232235   1.175   0.332   4.727 -0.3699 -0.0895 -0.5284
10761TIP3    H132236   1.216   0.285   4.799 -0.7463 -1.9009 -1.4645
10761TIP3    H232237   1.161   0.420   4.760 -0.2977 -0.8271  1.5181
10762TIP3   OH232238   3.996   6.327   5.067 -0.4672  0.5232  0.4189
10762TIP3    H132239   3.926   6.320   5.002  0.2888  1.2471 -0.4978
10762TIP3    H232240   3.980   6.412   5.110 -0.8568  0.1311  1.0545
10763TIP3   OH232241   1.043   3.865   0.579 -0.2725 -0.2440 -0.4461
10763TIP3    H132242   1.081   3.806   0.514 -0.2982 -1.2575  0.4382
10763TIP3    H232243   0.949   3.846   0.576 -0.2143 -0.6701  0.2374
10764TIP3   OH232244   5.404   6.637   4.188  0.3045  0.0246 -0.2222
10764TIP3    H132245   5.333   6.594   4.141  1.3629 -0.1269 -1.7008
10764TIP3    H232246   5.477   6.576   4.182  1.0061  0.8369  0.0055
10765TIP3   OH232247   7.217   0.025   2.714 -0.3163 -0.1822 -0.0383
10765TIP3    H132248   7.275   0.034   2.790 -0.2112  1.2174 -0.2681
10765TIP3    H232249   7.245  -0.055   2.672  0.4798 -0.2974  0.6877
10766TIP3   OH232250   4.018   5.745   6.125 -0.4768 -0.1141 -0.3350
10766TIP3    H132251   4.098   5.698   6.099  0.3073  0.5255  0.8801
10766TIP3    H232252   3.993   5.793   6.046  0.8399  0.3711 -0.4795
10767TIP3   OH232253   1.286   7.094   6.397 -0.0330 -0.1981  0.0085
10767TIP3    H132254   1.296   7.186   6.375  0.7752 -0.6764 -1.6935
10767TIP3    H232255   1.257   7.052   6.316  1.9959 -1.8307  0.0748
10768TIP3   OH232256   3.124   7.341   5.176  0.1500 -1.0493  0.2309
10768TIP3    H132257   3.107   7.259   5.130 -1.1868  0.0229 -1.2529
10768TIP3    H232258   3.065   7.338   5.252 -1.3183 -0.6462 -0.8595
10769TIP3   OH232259   7.589   1.680   5.401 -0.6368  0.5607  0.5838
10769TIP3    H132260   7.663   1.740   5.407  0.1591 -0.6163  2.7586
10769TIP3    H232261   7.555   1.693   5.312  2.0759  1.2175 -0.3991
10770TIP3   OH232262   0.800   1.161   5.737 -0.1387 -0.2062 -0.0110
10770TIP3    H132263   0.826   1.253   5.738 -0.0901 -0.2121 -0.7836
10770TIP3    H232264   0.792   1.138   5.830 -0.0282  0.5382  0.1885
10771TIP3   OH232265   3.261   5.013   4.573  0.2324 -0.0903  0.0921
10771TIP3    H132266   3.220   4.955   4.508 -0.4380 -0.6213  0.9840
10771TIP3    H232267   3.261   4.962   4.654  0.2030  0.9404  0.7374
10772TIP3   OH232268   1.370   4.438   5.369  0.3739 -0.3933  0.3101
10772TIP3    H132269   1.333   4.390   5.443  0.2548  0.6988  0.9635
10772TIP3    H232270   1.329   4.524   5.373  0.8573 -0.1130 -0.6429
10773TIP3   OH232271   5.621   7.088   3.926  0.0110 -0.2501 -0.5105
10773TIP3    H132272   5.713   7.080   3.902  0.4253  1.6075  0.3821
10773TIP3    H232273   5.620   7.146   4.002 -1.9844  0.7451 -1.2502
10774TIP3   OH232274   5.441   6.662   5.681  0.5681  0.6478 -0.3621
10774TIP3    H132275   5.370   6.644   5.620  0.4487 -0.2435  0.0405
10774TIP3    H232276   5.444   6.586   5.739  0.6008  1.5302  0.8259
10775TIP3   OH232277   3.715   7.449   4.745  0.0430 -0.7273  0.3910
10775TIP3    H132278   3.759   7.374   4.704 -1.0713 -0.8829 -0.5520
10775TIP3    H232279   3.727   7.520   4.682  0.6761 -0.2563  1.0573
10776TIP3   OH232280   3.950   6.565   6.414  0.3814 -0.5295 -0.1564
10776TIP3    H132281   4.012   6.492   6.413  0.2984 -0.6119  0.4397
10776TIP3    H232282   3.978   6.619   6.488  1.3469  0.8391 -1.4930
10777TIP3   OH232283   1.572   3.492   1.017 -1.0368  0.0728 -0.3009
10777TIP3    H132284   1.652   3.538   1.041 -0.1300 -2.4473  1.7664
10777TIP3    H232285   1.503   3.537   1.065 -0.7825  1.7646 -1.4719
10778TIP3   OH232286   4.728   5.909   5.865 -0.2045  0.2373 -0.2290
10778TIP3    H132287   4.665   5.935   5.933 -0.5096  1.8807 -1.0955
10778TIP3    H232288   4.674   5.866   5.799 -0.0450 -0.5093  0.1176
10779TIP3   OH232289   4.112   5.340   5.329 -0.1329 -0.2080 -0.1746
10779TIP3    H132290   4.158   5.317   5.410  0.5525  1.5416 -0.0643
10779TIP3    H232291   4.123   5.434   5.321 -0.4618 -0.3330 -2.1603
10780TIP3   OH232292   2.947   6.796   5.451  0.1026  0.7485  0.4403
10780TIP3    H132293   2.961   6.865   5.516 -0.8737  1.3058  0.0708
10780TIP3    H232294   3.032   6.754   5.441  0.7319  2.0004  0.5472
10781TIP3   OH232295   3.402   6.113   6.123  0.1255 -0.5750 -0.4921
10781TIP3    H132296   3.368   6.179   6.063  1.5072 -1.7361 -2.6144
10781TIP3    H232297   3.446   6.164   6.192 -1.5047  0.7665 -0.4128
10782TIP3   OH232298   7.421   4.204   0.918  0.0478 -0.6780 -0.1746
10782TIP3    H132299   7.381   4.133   0.967  0.1928 -0.4030  0.3461
10782TIP3    H232300   7.372   4.282   0.945  0.1912 -0.5139 -0.3897
10783TIP3   OH232301   6.306   0.250   5.435  0.6473  0.0965  0.0232
10783TIP3    H132302   6.257   0.169   5.447 -1.3462  1.0062 -1.7958
10783TIP3    H232303   6.255   0.316   5.481  1.1115  0.7243 -0.3558
10784TIP3   OH232304   6.727   4.123   0.737 -0.0092  0.1004 -0.0621
10784TIP3    H132305   6.795   4.056   0.731  0.7357  0.8865 -0.5209
10784TIP3    H232306   6.765   4.190   0.795 -0.4107  0.5124 -0.2738
10785TIP3   OH232307   7.356   6.035   6.069  0.0040 -0.6721 -0.1552
10785TIP3    H132308   7.332   6.127   6.055 -0.6846 -0.9485 -0.8237
10785TIP3    H232309   7.376   6.003   5.981 -1.2567 -1.5848 -0.1132
10786TIP3   OH232310   3.691   5.753   3.567  0.5805  0.4538 -0.7552
10786TIP3    H132311   3.711   5.815   3.638 -4.0108 -0.4595  1.5355
10786TIP3    H232312   3.639   5.804   3.505 -3.3350 -0.9420  1.2046
10787TIP3   OH232313   0.674   1.426   4.018 -0.5882  0.3499 -0.1436
10787TIP3    H132314   0.600   1.458   4.070 -0.3356  1.9220 -0.7056
10787TIP3    H232315   0.694   1.499   3.958 -0.1965 -1.0203 -1.7073
10788TIP3   OH232316   5.917   5.811   2.656  0.4196  0.1321 -0.2401
10788TIP3    H132317   5.823   5.812   2.640  0.2337  0.8400  0.8498
10788TIP3    H232318   5.938   5.719   2.672 -0.4356  0.2009  1.4200
10789TIP3   OH232319   6.147   6.236   5.955 -0.1242  0.1556 -0.3852
10789TIP3    H132320   6.233   6.276   5.966  0.3839 -0.8522 -0.6389
10789TIP3    H232321   6.129   6.241   5.862  0.7639 -1.8309 -0.6984
10790TIP3   OH232322   3.110   6.407   4.284 -0.3693  0.0643  0.4498
10790TIP3    H132323   3.025   6.368   4.267  1.6435 -3.2716 -2.8478
10790TIP3    H232324   3.163   6.336   4.321  2.0313  0.9258 -1.1771
10791TIP3   OH232325   3.812   5.329   4.130  0.3870 -0.2690 -0.3347
10791TIP3    H132326   3.893   5.332   4.079  0.9934  1.3771  0.6857
10791TIP3    H232327   3.808   5.413   4.175 -0.5358 -1.3566  1.7120
10792TIP3   OH232328   7.563   1.874   4.610  0.3967  0.2169  0.9226
10792TIP3    H132329   7.632   1.813   4.583  0.6470  0.4791  0.9655
10792TIP3    H232330   7.536   1.916   4.528  1.7469  1.6271  1.1840
10793TIP3   OH232331   4.611   6.989   4.310  0.1706 -0.0732  0.3619
10793TIP3    H132332   4.539   6.930   4.287  0.8479 -1.1648  1.0189
10793TIP3    H232333   4.608   7.057   4.242 -1.0163 -0.5007 -0.0365
10794TIP3   OH232334   5.863   5.509   4.628 -0.4142 -0.1711 -0.0555
10794TIP3    H132335   5.955   5.490   4.642 -0.2369  0.3045 -0.5557
10794TIP3    H232336   5.816   5.438   4.672  0.2027 -0.7724 -0.3710
10795TIP3   OH232337   4.707   5.320   3.334 -0.2751 -0.2722  0.0919
10795TIP3    H132338   4.774   5.346   3.397 -0.3319 -0.3550  0.1853
10795TIP3    H232339   4.739   5.353   3.250 -0.0196 -0.4891  0.1027
10796TIP3   OH232340   3.022   5.221   4.565  1.0302 -0.4511  0.5362
10796TIP3    H132341   2.986   5.144   4.610  0.9755 -0.5316  0.3566
10796TIP3    H232342   2.962   5.236   4.492  2.2933 -1.6226 -0.7670
10797TIP3   OH232343   4.981   6.884   2.660 -0.0121  0.2921  0.4455
10797TIP3    H132344   4.901   6.876   2.608 -0.0763 -0.4390  0.6483
10797TIP3    H232345   5.037   6.943   2.609 -0.1044 -0.3529 -0.4115
10798TIP3   OH232346   5.062   6.938   3.801 -0.3926  0.3636  0.1169
10798TIP3    H132347   5.142   6.888   3.785  0.7448  1.6340  1.6331
10798TIP3    H232348   5.048   6.931   3.895 -1.0578  1.6490  0.1189
10799TIP3   OH232349   0.124   2.132   0.109 -0.3058 -0.2005  0.1134
10799TIP3    H132350   0.218   2.121   0.090 -0.2074 -2.1841  1.4992
10799TIP3    H232351   0.080   2.080   0.042 -0.3045 -0.8255  0.5857
10800TIP3   OH232352   6.064   5.149   4.747  0.1240  0.3882 -0.0778
10800TIP3    H132353   6.127   5.129   4.816 -0.0952  0.8982  0.2742
10800TIP3    H232354   6.089   5.092   4.674  0.4296 -0.0710  0.3803
10801TIP3   OH232355   3.563   6.121   5.157 -0.0917 -0.3621 -0.5429
10801TIP3    H132356   3.497   6.137   5.224 -0.0802  0.2159 -0.6691
10801TIP3    H232357   3.522   6.147   5.075 -0.2040 -1.3410 -0.7992
10802TIP3   OH232358   7.767   1.356   5.201 -0.0910 -0.1527  0.1364
10802TIP3    H132359   7.850   1.312   5.182  0.2760  1.2997 -1.8698
10802TIP3    H232360   7.702   1.309   5.149 -0.3079 -0.5021  0.7217
10803TIP3   OH232361   4.748   5.415   4.897 -0.0064  0.3415  0.6423
10803TIP3    H132362   4.722   5.506   4.883  0.4639  0.5316  1.0143
10803TIP3    H232363   4.828   5.420   4.948  1.4730 -0.2037 -1.5396
10804TIP3   OH232364   4.221   5.401   4.420  0.2077 -0.1221 -0.7705
10804TIP3    H132365   4.220   5.388   4.515  2.2329  1.3826 -0.5081
10804TIP3    H232366   4.128   5.402   4.395 -0.3045 -1.7834  1.0010
10805TIP3   OH232367   4.463   6.819   3.940  0.1883  0.5631  0.4384
10805TIP3    H132368   4.540   6.802   3.995  0.4342  0.8184  0.1786
10805TIP3    H232369   4.489   6.893   3.885  0.7790 -1.1602 -1.6506
10806TIP3   OH232370   1.270   1.514   1.181  0.0226 -0.1697  0.6543
10806TIP3    H132371   1.244   1.601   1.150 -0.3210 -0.9952 -1.4665
10806TIP3    H232372   1.359   1.503   1.149 -1.0868 -1.8907 -1.9497
10807TIP3   OH232373   7.353   1.924   0.368 -0.1265  0.3082 -0.6237
10807TIP3    H132374   7.442   1.935   0.403 -0.0560 -0.4737 -0.5420
10807TIP3    H232375   7.296   1.930   0.444  0.0491 -1.7070 -0.2886
10808TIP3   OH232376   5.361   0.660   4.587  0.1654  0.6201 -0.5017
10808TIP3    H132377   5.362   0.754   4.569  0.5850  0.5505 -0.8632
10808TIP3    H232378   5.364   0.619   4.501  2.6971  0.2872 -0.2926
10809TIP3   OH232379   2.798   3.499   0.008  0.1351 -0.2477 -0.0994
10809TIP3    H132380   2.886   3.466   0.028  0.7754  0.1862 -2.0334
10809TIP3    H232381   2.749   3.488   0.089  1.6572 -1.5688  0.6803
10810TIP3   OH232382   7.435   7.367   5.445 -0.4957  0.2044 -0.3861
10810TIP3    H132383   7.490   7.387   5.521 -1.4987  0.2095  0.3609
10810TIP3    H232384   7.369   7.306   5.480 -0.3025 -0.6632 -1.5167
10811TIP3   OH232385   3.816   5.615   4.633  0.2195 -0.2377  0.3532
10811TIP3    H132386   3.811   5.528   4.673 -1.4898  0.0070  0.7263
10811TIP3    H232387   3.810   5.676   4.707  0.1784  0.2015 -0.0045
10812TIP3   OH232388   4.636   6.134   5.072 -0.6914  0.6538 -0.4040
10812TIP3    H132389   4.651   6.100   5.160 -1.8644  0.8557 -0.1263
10812TIP3    H232390   4.646   6.229   5.081  1.0392  0.5296 -0.8694
10813TIP3   OH232391   6.837   1.747   5.054 -0.6408  0.1044 -0.4349
10813TIP3    H132392   6.820   1.835   5.020 -1.1161  0.7524  1.4427
10813TIP3    H232393   6.759   1.727   5.106  0.1037 -0.8673  0.3017
10814TIP3   OH232394   6.900   2.250   4.099 -0.3571  0.2966  0.1785
10814TIP3    H132395   6.930   2.215   4.016 -3.1200 -0.7582 -0.4192
10814TIP3    H232396   6.938   2.338   4.103  2.1059 -0.6839 -0.8572
10815TIP3   OH232397   5.754   5.567   4.923 -0.2592 -0.1007 -0.5258
10815TIP3    H132398   5.803   5.485   4.925 -0.2678 -0.0859  2.3269
10815TIP3    H232399   5.821   5.635   4.919 -0.1602 -0.1747 -0.1311
10816TIP3   OH232400   6.273   0.611   5.650 -0.1102 -0.6992 -0.2093
10816TIP3    H132401   6.226   0.591   5.568  0.8318 -0.2922 -0.8639
10816TIP3    H232402   6.217   0.674   5.695 -0.5504 -0.7822 -0.6327
10817TIP3   OH232403   3.872   6.133   6.298  0.4286 -0.1193  0.0881
10817TIP3    H132404   3.843   6.053   6.341 -1.3526  0.4375  0.0047
10817TIP3    H232405   3.839   6.125   6.208  0.9400  0.3455 -0.1432
10818TIP3   OH232406   7.784   2.136   0.975  0.3026 -0.4538  0.3434
10818TIP3    H132407   7.780   2.221   0.930  0.7342 -0.8628 -0.4755
10818TIP3    H232408   7.693   2.118   1.000  0.3887  0.8520  1.6749
10819TIP3   OH232409   6.427   5.648   5.330  0.3410  0.3442 -0.4102
10819TIP3    H132410   6.499   5.603   5.375  1.3993  0.8659 -1.5552
10819TIP3    H232411   6.348   5.608   5.365  1.1253  1.1038  2.2996
10820TIP3   OH232412   6.311   4.862   3.957 -0.0710 -0.1851 -0.2520
10820TIP3    H132413   6.329   4.955   3.967 -0.0380 -0.3430  1.2242
10820TIP3    H232414   6.397   4.822   3.941  0.0664 -0.1158  0.3179
10821TIP3   OH232415   3.616   7.126   5.215 -0.2395  0.2826  0.7436
10821TIP3    H132416   3.632   7.201   5.272  1.2478  0.3052  0.3097
10821TIP3    H232417   3.575   7.164   5.137 -0.7941  0.4511  1.1085
10822TIP3   OH232418   6.425   0.617   6.116  0.5597 -0.1023  0.0662
10822TIP3    H132419   6.411   0.588   6.026  1.3241 -0.9211  0.1966
10822TIP3    H232420   6.472   0.700   6.107  1.1497 -0.4710 -0.2881
10823TIP3   OH232421   6.652   6.877   5.547  0.2294  0.0475  0.1064
10823TIP3    H132422   6.685   6.790   5.526  0.4377  0.3459 -0.8830
10823TIP3    H232423   6.730   6.932   5.554  0.0791  0.2478  0.2401
10824TIP3   OH232424   4.983   5.883   5.980 -0.4315 -0.2318 -0.0491
10824TIP3    H132425   4.967   5.967   6.024  1.5041 -0.7698  1.7571
10824TIP3    H232426   4.897   5.857   5.947 -1.3151  1.7987  0.5455
10825TIP3   OH232427   4.177   4.731   4.093 -0.0865 -0.2550  0.2295
10825TIP3    H132428   4.182   4.727   3.998 -0.7944 -0.8185  0.2084
10825TIP3    H232429   4.236   4.662   4.123 -0.9708 -1.0686  0.1562
10826TIP3   OH232430   2.608   1.679   0.453 -0.0449  0.0040  1.0253
10826TIP3    H132431   2.563   1.670   0.369  0.1983  2.1144  0.6445
10826TIP3    H232432   2.661   1.600   0.460  0.4235  0.1012 -1.1060
10827TIP3   OH232433   6.324   5.474   4.221  0.4628 -0.7018 -0.4156
10827TIP3    H132434   6.392   5.475   4.154  0.4059  2.2653 -0.4702
10827TIP3    H232435   6.241   5.477   4.173  0.4141  0.9718 -0.2567
10828TIP3   OH232436   7.435   1.676   1.576  0.2498 -0.2354  0.3102
10828TIP3    H132437   7.511   1.696   1.521 -0.1859 -0.9764 -0.5673
10828TIP3    H232438   7.471   1.629   1.651  0.6644 -0.4922 -0.0498
10829TIP3   OH232439   0.679   5.000   4.567  0.1622  0.2441  0.5519
10829TIP3    H132440   0.645   4.932   4.510  0.9188  1.3372 -1.2608
10829TIP3    H232441   0.610   5.013   4.633 -0.6358 -1.1781  0.0254
10830TIP3   OH232442   5.644   6.139   5.681 -0.0677  0.3289 -0.4186
10830TIP3    H132443   5.568   6.180   5.721 -0.1021 -0.4698  0.3241
10830TIP3    H232444   5.630   6.045   5.690  0.7113  0.1663 -0.8149
10831TIP3   OH232445   3.709   5.230   2.952  0.0303 -0.6070  0.2436
10831TIP3    H132446   3.679   5.243   2.862 -0.1052 -2.1169  0.0578
10831TIP3    H232447   3.775   5.160   2.945 -0.0704 -0.8106  1.3264
10832TIP3   OH232448   3.866   6.641   5.887  0.4070 -0.0523  0.0994
10832TIP3    H132449   3.892   6.565   5.940  1.1523 -0.1976 -0.4585
10832TIP3    H232450   3.792   6.610   5.835 -0.2487  0.0531  0.9509
10833TIP3   OH232451   5.604   5.690   6.042  0.5538 -0.2167  0.7152
10833TIP3    H132452   5.688   5.731   6.065  1.5170 -1.9976  0.4095
10833TIP3    H232453   5.539   5.754   6.071  1.9181  0.0712  3.3500
10834TIP3   OH232454   2.375   1.479   1.533 -0.1832  0.1289 -0.2357
10834TIP3    H132455   2.469   1.492   1.546 -0.0508 -1.3010  0.3999
10834TIP3    H232456   2.358   1.512   1.445  0.5163  2.3349  0.4329
10835TIP3   OH232457   4.611   5.493   4.549 -0.1326 -0.0363  0.5763
10835TIP3    H132458   4.562   5.510   4.469  1.9133 -1.0293 -0.9303
10835TIP3    H232459   4.556   5.529   4.619 -1.3021  2.0987 -1.3764
10836TIP3   OH232460   5.728   0.500   5.613  0.2740  0.3557  0.9349
10836TIP3    H132461   5.719   0.423   5.669 -2.8543 -0.8266 -1.0566
10836TIP3    H232462   5.638   0.526   5.593  1.2109  0.2079 -4.1268
10837TIP3   OH232463   6.693   6.868   4.950  0.4323 -0.2379 -0.4262
10837TIP3    H132464   6.759   6.882   5.018 -1.2404  0.3230  1.1226
10837TIP3    H232465   6.613   6.846   4.998 -0.5448 -0.7603 -2.2585
10838TIP3   OH232466   3.379   6.583   6.158 -0.7461  0.4373 -0.5632
10838TIP3    H132467   3.362   6.657   6.100  0.7897  1.9125  0.8007
10838TIP3    H232468   3.470   6.596   6.187 -1.3723 -0.4274  1.8945
10839TIP3   OH232469   3.026   2.741   0.553  0.0083 -0.4272 -0.1770
10839TIP3    H132470   2.986   2.777   0.633  0.0470 -2.1809  0.6464
10839TIP3    H232471   2.954   2.739   0.490 -0.1832  0.3487  0.0011
10840TIP3   OH232472   4.701   4.702   3.635 -0.0924  0.5650  0.1059
10840TIP3    H132473   4.767   4.769   3.617  0.6909 -0.4296 -0.8166
10840TIP3    H232474   4.722   4.670   3.722  0.4383  0.5093 -0.0379
10841TIP3   OH232475   0.121   1.001   6.332 -0.2162  0.0021 -0.2707
10841TIP3    H132476   0.105   0.909   6.313 -0.1563 -0.4795  1.9730
10841TIP3    H232477   0.117   1.044   6.246 -5.1234 -1.3414 -0.8595
10842TIP3   OH232478   3.185   4.903   4.825  0.1465  0.1911  0.0643
10842TIP3    H132479   3.099   4.919   4.863 -0.7081 -0.9676 -1.3504
10842TIP3    H232480   3.224   4.837   4.882 -0.4670 -0.3125 -0.0897
10843TIP3   OH232481   3.696   6.397   5.058  0.3060 -0.3466  0.3079
10843TIP3    H132482   3.637   6.361   5.124  0.2908  0.7843  0.9262
10843TIP3    H232483   3.706   6.489   5.083  1.3549 -0.2361 -0.5049
10844TIP3   OH232484   3.841   4.882   4.229  0.2596 -0.1905  0.6534
10844TIP3    H132485   3.863   4.833   4.150 -1.0927 -0.7553  0.6091
10844TIP3    H232486   3.752   4.853   4.251 -0.0029  1.1770  1.4457
10845TIP3   OH232487   2.932   5.676   5.899  0.0907 -0.1658  0.1898
10845TIP3    H132488   2.965   5.720   5.977  0.8232 -0.5808  0.1256
10845TIP3    H232489   2.956   5.734   5.827 -0.0832 -0.0501  0.2280
10846TIP3   OH232490   2.205   4.676   5.719  0.0627 -0.3641  0.2506
10846TIP3    H132491   2.250   4.623   5.785 -1.3668 -1.0742  0.6885
10846TIP3    H232492   2.112   4.655   5.731 -0.4167  1.2475 -0.4628
10847TIP3   OH232493   1.181   6.826   6.275 -0.2223  0.3488  0.6885
10847TIP3    H132494   1.090   6.827   6.244  0.0308  0.8078 -0.0509
10847TIP3    H232495   1.176   6.867   6.362 -0.7106  0.4537  0.6172
10848TIP3   OH232496   0.098   0.921   4.349 -0.1880  0.4426  0.0081
10848TIP3    H132497   0.011   0.891   4.324  0.5119  0.8199 -3.0639
10848TIP3    H232498   0.096   1.016   4.336  0.0594  0.7435  1.9697
10849TIP3   OH232499   5.837   6.024   4.410  0.1178 -0.8984  0.5888
10849TIP3    H132500   5.787   5.942   4.411 -2.3198  0.5608  1.0950
10849TIP3    H232501   5.883   6.025   4.494 -0.3033 -1.4673  0.8255
10850TIP3   OH232502   1.578   3.211   0.042  0.0747 -0.4804  0.2348
10850TIP3    H132503   1.636   3.174  -0.024 -0.0341  0.1412 -0.2187
10850TIP3    H232504   1.515   3.142   0.060  0.5277 -0.9023  0.2043
10851TIP3   OH232505   5.145   6.521   4.506  0.4661  0.0908 -0.0080
10851TIP3    H132506   5.062   6.504   4.462  1.2058 -0.6886 -1.1240
10851TIP3    H232507   5.128   6.501   4.598 -0.1363 -1.6213 -0.4867
10852TIP3   OH232508   4.899   0.393   6.158 -0.1042  0.0375 -0.3477
10852TIP3    H132509   4.880   0.445   6.236 -0.3459 -0.3601 -0.1389
10852TIP3    H232510   4.821   0.339   6.146  0.6498 -1.1698  0.1597
10853TIP3   OH232511   4.097   5.603   5.227 -0.4962 -0.0994 -0.2543
10853TIP3    H132512   4.055   5.590   5.142  0.0452  1.3101 -0.7460
10853TIP3    H232513   4.040   5.665   5.273 -0.4574 -0.3787  0.1749
10854TIP3   OH232514   1.802   5.445   5.422  0.0631 -0.1594  0.0446
10854TIP3    H132515   1.868   5.419   5.487  0.4518 -0.3028 -0.4021
10854TIP3    H232516   1.829   5.401   5.342 -0.6262 -0.2795 -0.1240
10855TIP3   OH232517   3.105   7.207   4.211 -0.3546 -0.2492  0.2814
10855TIP3    H132518   3.152   7.135   4.254 -2.7310 -1.8040  0.3826
10855TIP3    H232519   3.058   7.250   4.283  0.1660  0.7080  0.0493
10856TIP3   OH232520   3.791   1.699   4.956 -0.3445  0.2109  0.3283
10856TIP3    H132521   3.824   1.628   5.011  1.0084  0.8858  0.4051
10856TIP3    H232522   3.833   1.685   4.871 -0.9200  0.3082  0.0216
10857TIP3   OH232523   5.673   0.287   5.799  0.3398 -0.3808  0.3779
10857TIP3    H132524   5.660   0.193   5.796  0.4302 -0.3946  0.4083
10857TIP3    H232525   5.642   0.314   5.885  0.6782 -0.4392  0.5194
10858TIP3   OH232526   3.538   5.257   5.506  0.3739 -0.5290  0.3396
10858TIP3    H132527   3.473   5.236   5.439 -0.8780 -1.0335  1.6985
10858TIP3    H232528   3.576   5.173   5.529  0.7973 -0.3538  0.2812
10859TIP3   OH232529   3.956   6.085   4.079  0.5215  0.4886  0.5740
10859TIP3    H132530   3.905   6.140   4.138 -0.5606  0.0703  0.0347
10859TIP3    H232531   4.038   6.068   4.127  0.8085  2.4098  0.8098
10860TIP3   OH232532   6.138   0.895   5.030 -0.0670 -0.1634 -0.0147
10860TIP3    H132533   6.055   0.849   5.025  0.7039 -1.5984 -0.0720
10860TIP3    H232534   6.155   0.926   4.941 -1.1395  1.2471  0.2597
10861TIP3   OH232535   5.252   5.292   2.729  0.3778  0.4502 -0.4035
10861TIP3    H132536   5.189   5.241   2.780 -0.5850  0.0996 -1.9282
10861TIP3    H232537   5.247   5.380   2.766  1.4344 -0.3389  1.6849
10862TIP3   OH232538   0.395   2.053   0.714  0.4442  0.6347 -0.3361
10862TIP3    H132539   0.382   2.134   0.764  0.7501  0.5080 -0.0477
10862TIP3    H232540   0.363   1.984   0.772  0.6966  0.4962 -0.3638
10863TIP3   OH232541   4.954   6.164   5.414 -0.2895 -0.1272  0.0864
10863TIP3    H132542   4.945   6.074   5.383 -0.9198 -0.6677  1.7561
10863TIP3    H232543   5.007   6.157   5.494  0.5876  1.1202 -0.3630
10864TIP3   OH232544   5.849   0.428   6.406 -0.5884  0.2181 -0.3365
10864TIP3    H132545   5.904   0.500   6.437 -0.7060  0.3414 -0.4079
10864TIP3    H232546   5.910   0.357   6.387 -0.7340 -0.6747  2.3604
10865TIP3   OH232547   6.098   0.116   5.086 -0.6457 -0.0003  0.2359
10865TIP3    H132548   6.101   0.106   4.991  0.5277  0.4308  0.2081
10865TIP3    H232549   6.081   0.209   5.100 -2.9133 -0.4307  0.4623
10866TIP3   OH232550   7.283   1.769   5.069 -0.7415 -0.0028 -0.3016
10866TIP3    H132551   7.342   1.797   4.999  0.1520 -1.2564 -0.0606
10866TIP3    H232552   7.196   1.795   5.039 -0.3504 -0.4452 -1.8456
10867TIP3   OH232553   3.589   6.316   4.409 -0.1078  0.3470 -0.1136
10867TIP3    H132554   3.527   6.389   4.405 -0.5307 -0.0338 -0.8206
10867TIP3    H232555   3.585   6.285   4.499 -1.9119 -0.4763 -0.4507
10868TIP3   OH232556   5.264   6.159   5.462  0.2313 -0.2584  0.5642
10868TIP3    H132557   5.321   6.114   5.400  2.3498  1.0736  1.4847
10868TIP3    H232558   5.228   6.233   5.412 -1.4095 -1.5972 -0.2683
10869TIP3   OH232559   5.659   4.817   3.523 -0.5392 -0.2650 -0.3167
10869TIP3    H132560   5.638   4.811   3.616 -0.6952 -1.3842 -0.4288
10869TIP3    H232561   5.685   4.729   3.497  0.0396  0.1544 -1.2102
10870TIP3   OH232562   0.521   0.606   4.340 -0.5215 -0.0334 -0.7998
10870TIP3    H132563   0.568   0.668   4.396  0.8149 -2.0359  0.3410
10870TIP3    H232564   0.449   0.658   4.303  0.6164  2.2225  0.0188
10871TIP3   OH232565   0.345   3.005   0.497 -0.1142  0.2583 -0.2631
10871TIP3    H132566   0.265   2.955   0.478 -0.2524  0.9226 -1.4691
10871TIP3    H232567   0.334   3.033   0.588 -0.5658 -0.9133  0.0605
10872TIP3   OH232568   1.920   2.406   2.093  0.0675 -0.0778 -0.3970
10872TIP3    H132569   1.983   2.370   2.031 -0.2496  1.0923 -1.4196
10872TIP3    H232570   1.857   2.453   2.039 -1.3943 -0.7626  0.6509
10873TIP3   OH232571   5.915   6.060   5.191 -0.1105  0.4828  0.6804
10873TIP3    H132572   5.958   5.979   5.219 -0.0330  0.9341  1.9259
10873TIP3    H232573   5.850   6.033   5.127  0.3578 -0.4897  0.6193
10874TIP3   OH232574   4.238   5.919   3.938  0.1692  0.1738  0.5423
10874TIP3    H132575   4.277   5.982   3.998  0.3362 -0.5199  1.1630
10874TIP3    H232576   4.262   5.833   3.973  1.8016 -0.2499 -1.5158
10875TIP3   OH232577   3.286   7.403   5.952 -0.1662  0.8449  0.3117
10875TIP3    H132578   3.279   7.476   6.013 -1.1237  0.3100  0.8438
10875TIP3    H232579   3.307   7.445   5.868 -0.2131  1.6947  0.7177
10876TIP3   OH232580   1.736   2.556   1.959 -0.3761  0.1786  0.0754
10876TIP3    H132581   1.718   2.534   1.868 -1.5344 -1.0461  0.5819
10876TIP3    H232582   1.743   2.651   1.960  0.6159  0.1436 -1.4533
10877TIP3   OH232583   3.874   5.954   5.379  0.4998  0.3768  0.6300
10877TIP3    H132584   3.881   6.048   5.361 -0.9330  0.9192  2.7628
10877TIP3    H232585   3.866   5.948   5.474  0.5105 -1.9072  0.5086
10878TIP3   OH232586   1.009   3.214   0.453  0.0435 -0.8418 -0.2349
10878TIP3    H132587   0.962   3.275   0.396 -0.5101  1.0966  2.2428
10878TIP3    H232588   1.099   3.217   0.421 -0.2211  0.3341 -0.9077
10879TIP3   OH232589   0.494   1.226   0.434 -0.3171  0.6005 -0.5302
10879TIP3    H132590   0.448   1.255   0.513 -0.1690  0.7032 -0.4820
10879TIP3    H232591   0.586   1.245   0.452 -0.0542 -1.2214  0.0811
10880TIP3   OH232592   0.314   0.141   3.015  0.2677  0.5358  0.2980
10880TIP3    H132593   0.232   0.129   3.064 -0.0268 -1.3529 -0.6199
10880TIP3    H232594   0.288   0.138   2.923  1.0675  2.2940 -0.0095
10881TIP3   OH232595   5.795   2.193   4.175  0.5461  0.5434 -0.0596
10881TIP3    H132596   5.884   2.194   4.141  0.4197 -0.6921 -0.4508
10881TIP3    H232597   5.803   2.158   4.263  0.8698  3.7405  1.2446
10882TIP3   OH232598   1.528   7.415   5.856 -0.2706  0.5764  0.4880
10882TIP3    H132599   1.461   7.483   5.863 -0.3905  0.3846  1.3406
10882TIP3    H232600   1.557   7.418   5.765 -0.8228  1.2452  0.3325
10883TIP3   OH232601   2.272   3.442   0.951 -0.2120 -0.2675  0.0595
10883TIP3    H132602   2.285   3.397   0.868 -0.1875 -0.3780  0.1233
10883TIP3    H232603   2.359   3.445   0.991 -0.6489 -2.5458  1.2764
10884TIP3   OH232604   3.571   5.766   4.765  0.1771 -0.4407  0.2284
10884TIP3    H132605   3.528   5.682   4.756 -0.0698 -0.4850  1.7486
10884TIP3    H232606   3.635   5.753   4.835  0.7862  0.3797 -0.1638
10885TIP3   OH232607   3.293   5.693   6.129 -0.1578  0.2659  0.9611
10885TIP3    H132608   3.339   5.613   6.156 -0.0588 -0.1097 -0.2758
10885TIP3    H232609   3.203   5.665   6.115  0.1885  0.0281 -0.9227
10886TIP3   OH232610   3.584   6.216   6.336  0.6875  0.5962 -0.1042
10886TIP3    H132611   3.663   6.264   6.361 -0.5175  1.7680  1.5924
10886TIP3    H232612   3.528   6.220   6.414 -0.8026 -0.7217 -1.0755
10887TIP3   OH232613   6.329   0.347   6.056 -0.0834 -0.2680 -0.0215
10887TIP3    H132614   6.417   0.349   6.095  0.6226 -3.5793 -1.2701
10887TIP3    H232615   6.344   0.367   5.963 -0.6341 -0.7158 -0.2101
10888TIP3   OH232616   4.464   5.392   2.881 -0.2632  0.0417 -0.1284
10888TIP3    H132617   4.465   5.469   2.939  0.1732  0.6632 -0.9631
10888TIP3    H232618   4.526   5.331   2.921  1.4669  1.2338 -0.9717
10889TIP3   OH232619   3.209   6.916   5.740  1.4889  0.4090 -0.1300
10889TIP3    H132620   3.269   6.988   5.760  2.5039 -0.3490 -0.4727
10889TIP3    H232621   3.242   6.878   5.660  0.1978  0.3625 -0.6565
10890TIP3   OH232622   4.957   5.935   2.946 -0.2177  0.0357 -0.3938
10890TIP3    H132623   4.862   5.936   2.948 -0.2056  0.1744  0.9390
10890TIP3    H232624   4.983   6.021   2.979  0.3723  0.5223 -2.0806
10891TIP3   OH232625   5.994   6.547   4.792  0.4334  1.2886 -0.4141
10891TIP3    H132626   5.943   6.496   4.729  0.0887 -0.2321  1.0646
10891TIP3    H232627   6.029   6.483   4.854  2.0570  2.5872  0.0618
10892TIP3   OH232628   3.123   5.920   5.848  0.5129 -0.4111 -0.4512
10892TIP3    H132629   3.140   5.951   5.937 -1.1370  0.7083 -0.5005
10892TIP3    H232630   3.181   5.844   5.837  0.7264 -0.5564  1.5677
10893TIP3   OH232631   2.841   5.022   5.179 -0.1374  0.6666 -0.4829
10893TIP3    H132632   2.860   4.977   5.097 -0.0729 -1.3286  0.5718
10893TIP3    H232633   2.766   4.974   5.216 -1.2101  2.5623 -0.1530
10894TIP3   OH232634   4.582   0.272   4.457  0.1866 -0.2064  0.6859
10894TIP3    H132635   4.672   0.269   4.424 -1.1045 -1.5412 -2.9319
10894TIP3    H232636   4.557   0.364   4.450  1.4335  0.2752  2.2908
10895TIP3   OH232637   0.508   1.364   1.182 -0.0371  0.3980  0.1461
10895TIP3    H132638   0.514   1.274   1.213  2.9627  0.5925  0.2375
10895TIP3    H232639   0.465   1.358   1.097  2.0896 -1.3665 -0.8283
10896TIP3   OH232640   2.174   2.105   0.456  0.0943  0.1576  0.1893
10896TIP3    H132641   2.213   2.034   0.405 -1.6361 -0.7968  0.1752
10896TIP3    H232642   2.086   2.075   0.477  0.3497  1.0221  2.7545
10897TIP3   OH232643   2.702   3.564   5.633 -0.0206 -0.2697 -0.7294
10897TIP3    H132644   2.759   3.582   5.707  0.6555  0.9447 -1.5379
10897TIP3    H232645   2.615   3.590   5.662  0.0122 -1.0381  0.0912
10898TIP3   OH232646   7.650   0.612   5.512  0.2466  0.3963  0.6532
10898TIP3    H132647   7.661   0.558   5.590  1.7351  0.8713  0.7848
10898TIP3    H232648   7.594   0.684   5.541  0.5945  0.4450  1.2119
10899TIP3   OH232649   5.162   7.016   5.888 -0.2854 -0.5179  0.3236
10899TIP3    H132650   5.255   6.993   5.884 -0.1368  0.3028 -1.3936
10899TIP3    H232651   5.118   6.945   5.842 -0.3323  0.0191 -0.4558
10900TIP3   OH232652   6.217   6.265   5.689  0.1756  0.0527 -0.6024
10900TIP3    H132653   6.301   6.258   5.734  1.0478  0.7351 -2.0899
10900TIP3    H232654   6.233   6.228   5.602 -0.5700  1.8605 -1.5314
10901TIP3   OH232655   0.672   3.057   0.022 -0.4608 -0.2367  0.1468
10901TIP3    H132656   0.680   3.146  -0.011  2.6049 -1.2578 -2.0814
10901TIP3    H232657   0.739   3.051   0.090 -2.0449 -0.2682  1.7443
10902TIP3   OH232658   5.522   0.366   6.404  0.1739 -0.5655 -0.1136
10902TIP3    H132659   5.604   0.320   6.423 -0.0748 -0.3636  1.5162
10902TIP3    H232660   5.543   0.458   6.418 -0.7946 -0.6511  2.1520
10903TIP3   OH232661   3.447   7.301   5.574 -0.7179 -0.1992 -0.2893
10903TIP3    H132662   3.388   7.237   5.536  0.8621 -1.7838 -0.1232
10903TIP3    H232663   3.485   7.347   5.498 -0.9990 -0.2198 -0.4426
10904TIP3   OH232664   5.480   0.712   5.323 -0.4512  0.4913  0.1703
10904TIP3    H132665   5.471   0.788   5.380  1.8062  0.0106  1.1838
10904TIP3    H232666   5.477   0.637   5.381 -0.8268 -0.1368 -0.6425
10905TIP3   OH232667   2.135   2.711   2.421 -0.0606  0.2480 -0.0567
10905TIP3    H132668   2.062   2.772   2.429 -0.3996 -0.1877  0.2148
10905TIP3    H232669   2.121   2.648   2.492  0.4872  0.0688 -0.1087
10906TIP3   OH232670   0.724   2.780   1.234  0.1204 -0.0546  0.2882
10906TIP3    H132671   0.715   2.874   1.222 -1.9461 -0.4741 -1.7747
10906TIP3    H232672   0.646   2.754   1.283  0.8721 -0.6649  1.1939
10907TIP3   OH232673   7.145   1.303   6.210 -0.1454 -0.0459 -0.1118
10907TIP3    H132674   7.088   1.246   6.159  0.9091 -0.3021 -1.0159
10907TIP3    H232675   7.227   1.255   6.219  0.4728  0.9747 -0.1653
10908TIP3   OH232676   7.373   0.070   3.250  0.2693  0.0338  0.6876
10908TIP3    H132677   7.356   0.035   3.337 -0.1674 -0.1841  0.5213
10908TIP3    H232678   7.454   0.027   3.222  1.0814  1.0262  1.4638
10909TIP3   OH232679   2.733   0.492   5.917  0.0513  0.1769  0.3380
10909TIP3    H132680   2.726   0.476   5.823 -1.7296 -1.2138  0.6771
10909TIP3    H232681   2.643   0.484   5.949  0.4695  1.7379  2.0001
10910TIP3   OH232682   2.577   6.832   5.168 -0.3841 -0.3319 -0.1631
10910TIP3    H132683   2.629   6.808   5.245 -0.9641  0.4670  0.4822
10910TIP3    H232684   2.487   6.840   5.201 -1.1565 -2.8833 -1.4945
10911TIP3   OH232685   0.201   0.941   5.246  0.1224  0.4935  0.3035
10911TIP3    H132686   0.209   0.866   5.304  1.3604  0.1030 -0.3689
10911TIP3    H232687   0.263   1.005   5.280 -0.6100  1.0532  0.6104
10912TIP3   OH232688   5.619   7.428   3.983 -0.4580  0.2021  0.1914
10912TIP3    H132689   5.589   7.483   4.055  0.2655 -1.7083  2.0127
10912TIP3    H232690   5.552   7.360   3.976  0.3321 -0.5823  0.1821
10913TIP3   OH232691   7.529   1.026   3.486  0.5136 -0.0369 -0.2012
10913TIP3    H132692   7.623   1.032   3.467 -0.0603  2.4981 -2.6342
10913TIP3    H232693   7.514   1.092   3.553  0.4623 -0.3932  0.1367
10914TIP3   OH232694   3.310   6.024   3.988 -0.3810 -0.6603 -0.5411
10914TIP3    H132695   3.371   5.985   3.925  0.3910 -2.3826  1.2084
10914TIP3    H232696   3.366   6.057   4.059 -1.2744  0.7025 -0.4589
10915TIP3   OH232697   3.879   2.540   0.866  0.4065  0.2617  0.1372
10915TIP3    H132698   3.831   2.561   0.946  2.5018  1.5111  1.0903
10915TIP3    H232699   3.929   2.461   0.888  2.4023  1.6414  0.6989
10916TIP3   OH232700   7.163   0.418   5.012 -0.6316  0.5873 -0.2108
10916TIP3    H132701   7.238   0.360   5.032 -1.7198 -0.3018  1.4234
10916TIP3    H232702   7.136   0.392   4.924 -1.3182 -1.6923  0.6261
10917TIP3   OH232703   7.457   5.607   5.561 -0.0089 -0.1370 -0.4735
10917TIP3    H132704   7.536   5.627   5.511 -0.0699 -0.3391 -0.6510
10917TIP3    H232705   7.471   5.649   5.646  0.7475 -1.0547 -0.1392
10918TIP3   OH232706   4.827   5.422   3.066  0.3868  0.4574  0.0134
10918TIP3    H132707   4.850   5.374   2.986  2.0806  0.1984  0.6462
10918TIP3    H232708   4.823   5.514   3.037 -2.5729  0.0369 -1.1267
10919TIP3   OH232709   5.828   5.598   4.193 -0.5562  0.5582  0.0405
10919TIP3    H132710   5.833   5.651   4.273 -0.8010 -0.5776  0.8261
10919TIP3    H232711   5.795   5.513   4.223 -1.7242  0.4625 -1.4301
10920TIP3   OH232712   4.382   0.392   5.216 -0.5617  0.2295 -0.0065
10920TIP3    H132713   4.463   0.341   5.215  0.1016  1.2295  0.8871
10920TIP3    H232714   4.411   0.483   5.202 -1.6253  0.4858 -0.6117
10921TIP3   OH232715   4.624   5.642   5.152  0.0662 -0.6462 -0.0433
10921TIP3    H132716   4.584   5.578   5.211 -0.3794 -0.4434 -0.1228
10921TIP3    H232717   4.675   5.700   5.210 -0.2587 -0.5299  0.1287
10922TIP3   OH232718   0.920   3.473   0.313  0.2051  0.0459  0.2497
10922TIP3    H132719   0.830   3.451   0.288  1.4195 -1.3138 -3.2192
10922TIP3    H232720   0.937   3.557   0.269  0.6221  0.3333  0.9525
10923TIP3   OH232721   5.822   4.823   4.367 -0.0697  0.6536 -0.0175
10923TIP3    H132722   5.892   4.772   4.325 -0.7956 -0.6987  0.3890
10923TIP3    H232723   5.793   4.884   4.299  1.7936  1.5398 -0.0607
10924TIP3   OH232724   7.903   1.491   0.052 -0.4272 -0.0701  0.6013
10924TIP3    H132725   7.877   1.404   0.023  1.5291 -1.5130  2.9731
10924TIP3    H232726   7.823   1.530   0.087 -0.9905 -1.5179  0.9508
10925TIP3   OH232727   4.389   6.389   5.203  0.1198 -0.2964 -0.0714
10925TIP3    H132728   4.347   6.474   5.215 -0.2411 -0.1318 -2.3310
10925TIP3    H232729   4.482   6.406   5.214 -0.0856  0.0849  1.0776
10926TIP3   OH232730   3.917   5.419   4.421 -0.6015 -0.4818  0.3663
10926TIP3    H132731   3.830   5.397   4.388 -0.1718 -0.5374 -0.7754
10926TIP3    H232732   3.944   5.344   4.473 -0.8851 -0.8257  0.0135
10927TIP3   OH232733   6.869   2.104   0.224 -0.0859 -0.1251 -0.2370
10927TIP3    H132734   6.906   2.150   0.300  0.0293 -0.6481  0.0299
10927TIP3    H232735   6.800   2.162   0.192 -0.6644 -0.2619  0.7512
10928TIP3   OH232736   1.937   0.421   4.725 -0.0720  0.4116  0.8458
10928TIP3    H132737   2.021   0.422   4.771  0.3166  0.1468  0.1509
10928TIP3    H232738   1.882   0.361   4.777  0.3264  0.1982  1.0214
10929TIP3   OH232739   5.568   6.843   4.274 -0.6138  0.0137  0.3131
10929TIP3    H132740   5.534   6.782   4.210  0.9230  1.0304 -1.5317
10929TIP3    H232741   5.582   6.924   4.226  0.7213  0.7610  1.8725
10930TIP3   OH232742   5.820   0.538   6.145  0.1510 -0.0040  0.1233
10930TIP3    H132743   5.909   0.505   6.129 -0.1852 -1.9571  2.0945
10930TIP3    H232744   5.801   0.512   6.235 -1.7675  1.9660  0.3262
10931TIP3   OH232745   0.457   0.410   3.570  0.5716 -0.3396  0.0733
10931TIP3    H132746   0.466   0.505   3.576 -2.8188 -0.0679  2.1755
10931TIP3    H232747   0.499   0.377   3.649 -0.0821 -0.4119  0.3961
10932TIP3   OH232748   5.555   5.171   5.782  0.2615 -0.2807 -0.5221
10932TIP3    H132749   5.572   5.227   5.857 -1.6340 -0.9120  0.3978
10932TIP3    H232750   5.541   5.084   5.820  0.5223 -0.8607 -1.7216
10933TIP3   OH232751   6.068   0.055   4.803  0.2947 -0.0750 -0.5706
10933TIP3    H132752   6.072   0.150   4.792 -0.3166 -0.1092 -1.1093
10933TIP3    H232753   6.158   0.025   4.793  0.7735  0.6314  1.3183
10934TIP3   OH232754   1.444   0.215   5.731  0.4528 -0.3185  0.2525
10934TIP3    H132755   1.515   0.159   5.761  0.6895  0.5058  1.2680
10934TIP3    H232756   1.370   0.155   5.717  1.5146 -1.2574 -1.4320
10935TIP3   OH232757   0.686   3.294   0.314  0.2854  0.2616  0.5996
10935TIP3    H132758   0.742   3.231   0.269 -0.1203  0.1128  0.2959
10935TIP3    H232759   0.597   3.263   0.297  0.1178  0.3497  1.2915
10936TIP3   OH232760   4.354   5.453   4.931  0.4983 -0.4888  0.2473
10936TIP3    H132761   4.371   5.451   5.025 -2.0143  0.8893  0.7891
10936TIP3    H232762   4.395   5.534   4.901  1.2725 -0.9122  0.1661
10937TIP3   OH232763   5.837   0.181   5.298 -0.0494  0.4352 -0.5281
10937TIP3    H132764   5.929   0.202   5.282  0.8735 -2.1686  1.0734
10937TIP3    H232765   5.823   0.097   5.255 -0.4692 -1.3048  2.8511
10938TIP3   OH232766   7.124   0.286   5.513  0.3585 -0.1225 -0.6010
10938TIP3    H132767   7.131   0.379   5.491  0.6085  0.2845  1.0995
10938TIP3    H232768   7.092   0.286   5.603 -0.1966 -1.6982 -0.8024
10939TIP3   OH232769   4.543   3.790   0.405  0.2430  0.1259  0.7020
10939TIP3    H132770   4.495   3.829   0.479  1.2467 -0.9353  1.9238
10939TIP3    H232771   4.602   3.727   0.445  2.2195  0.9397 -0.8604
10940TIP3   OH232772   7.060   4.742   5.508 -0.0715 -0.1832 -0.3953
10940TIP3    H132773   7.120   4.667   5.505  0.4361  0.2022 -0.0019
10940TIP3    H232774   7.087   4.796   5.434  0.0957  0.0128 -0.1898
10941TIP3   OH232775   4.604   6.563   4.267 -0.3683  0.1190 -0.1336
10941TIP3    H132776   4.549   6.640   4.283 -0.3531  0.2375 -0.6264
10941TIP3    H232777   4.585   6.504   4.339  0.0902  0.8486  0.6048
10942TIP3   OH232778   5.908   1.028   5.220 -0.7595  0.2210 -0.3300
10942TIP3    H132779   5.850   0.981   5.280  0.4279 -0.0962  0.5842
10942TIP3    H232780   5.886   0.992   5.134 -0.5182 -1.3801  0.2523
10943TIP3   OH232781   0.801   0.395   4.342 -0.2099 -0.2775 -0.2736
10943TIP3    H132782   0.870   0.355   4.395 -0.9110 -1.4396 -0.2130
10943TIP3    H232783   0.729   0.409   4.404 -0.8484 -1.1756 -0.8033
10944TIP3   OH232784   4.632   6.928   5.182  0.1199 -0.0078  0.4971
10944TIP3    H132785   4.716   6.953   5.220  1.4992 -2.6215 -0.6277
10944TIP3    H232786   4.624   6.982   5.103  1.4660 -0.7328 -0.1591
10945TIP3   OH232787   7.265   0.573   2.991  0.4401 -0.5313 -0.2137
10945TIP3    H132788   7.356   0.543   2.993 -0.0260 -2.0621 -0.9767
10945TIP3    H232789   7.265   0.654   3.042  2.4824  0.1735 -1.2836
10946TIP3   OH232790   5.384   0.098   5.189 -0.3950 -0.2298 -0.2767
10946TIP3    H132791   5.475   0.116   5.164 -0.3839 -0.8305 -0.6883
10946TIP3    H232792   5.385   0.007   5.219 -0.7375 -0.0332  0.3210
10947TIP3   OH232793   7.657   3.910   0.586  0.4964  0.1234 -0.1841
10947TIP3    H132794   7.591   3.913   0.656  2.5612  0.8092  1.8077
10947TIP3    H232795   7.608   3.929   0.506 -1.3144  3.1880  1.5679
10948TIP3   OH232796   6.361   1.096   5.400 -0.2307 -0.4595  0.1275
10948TIP3    H132797   6.292   1.141   5.351 -0.5793 -1.3868 -0.2454
10948TIP3    H232798   6.333   1.004   5.402  0.3716 -0.6345  1.0445
10949TIP3   OH232799   3.216   6.284   5.731 -0.0429  0.3512 -0.4438
10949TIP3    H132800   3.258   6.306   5.647 -0.7208 -0.8828 -1.1183
10949TIP3    H232801   3.169   6.364   5.755  1.0057  1.0629 -0.7134
10950TIP3   OH232802   2.884   0.551   0.446  0.3664 -0.2899 -0.1454
10950TIP3    H132803   2.839   0.475   0.483 -0.4911 -0.6174 -1.8229
10950TIP3    H232804   2.932   0.588   0.520 -1.0943 -1.0846  1.2528
10951TIP3   OH232805   1.932   3.401   0.102 -0.1489 -0.0312 -0.3754
10951TIP3    H132806   1.976   3.317   0.111  1.1125  0.7393  0.8059
10951TIP3    H232807   1.867   3.403   0.172 -0.1010  0.0274 -0.3325
10952TIP3   OH232808   0.618   2.247   0.507 -0.7401  0.4486  0.3367
10952TIP3    H132809   0.633   2.152   0.512 -0.2449  0.3779 -1.8402
10952TIP3    H232810   0.524   2.256   0.495 -0.7144  0.1808 -0.0929
10953TIP3   OH232811   2.850   6.808   6.349 -0.3564  0.2232  0.4353
10953TIP3    H132812   2.903   6.735   6.320 -0.1810  1.1722 -1.7308
10953TIP3    H232813   2.913   6.871   6.385 -0.2087  0.5394 -0.3762
10954TIP3   OH232814   6.507   4.957   4.507  0.0376  0.3136  0.0085
10954TIP3    H132815   6.598   4.928   4.518  0.1886  0.5774 -0.5288
10954TIP3    H232816   6.455   4.880   4.528  0.3489  0.4968  1.5033
10955TIP3   OH232817   5.573   6.108   3.694  0.0947  0.1890  0.3701
10955TIP3    H132818   5.606   6.179   3.748 -1.1027  1.2914 -0.3380
10955TIP3    H232819   5.480   6.101   3.716  0.0857 -0.7927  0.0492
10956TIP3   OH232820   2.902   6.260   4.586 -0.2293 -0.3463 -0.0088
10956TIP3    H132821   2.991   6.280   4.616  0.0835 -1.1058 -0.4033
10956TIP3    H232822   2.849   6.333   4.618  0.7720  0.8296 -0.9389
10957TIP3   OH232823   7.071   4.752   3.668 -0.2777 -0.3655  0.3287
10957TIP3    H132824   7.016   4.675   3.650  0.2563 -1.1054  1.7782
10957TIP3    H232825   7.015   4.810   3.718  0.1790 -1.0316  1.6310
10958TIP3   OH232826   3.094   1.360   2.338 -0.2461 -0.0868 -0.2474
10958TIP3    H132827   3.075   1.319   2.423 -0.5467  0.8233  0.1380
10958TIP3    H232828   3.067   1.296   2.273  0.8174 -1.1629  0.3532
10959TIP3   OH232829   7.586   1.112   4.400  0.3081  0.1216 -0.1541
10959TIP3    H132830   7.640   1.082   4.474  1.0014  1.5675 -0.0516
10959TIP3    H232831   7.515   1.160   4.441 -0.2289 -0.4889 -0.3627
10960TIP3   OH232832   4.237   7.293   5.281  0.2891 -0.3789  0.0687
10960TIP3    H132833   4.322   7.322   5.249 -0.4582 -0.5920 -2.1905
10960TIP3    H232834   4.250   7.201   5.304  1.0649  0.0217  1.2374
10961TIP3   OH232835   0.705   2.117   0.985  0.1782 -0.6984  0.4798
10961TIP3    H132836   0.768   2.143   0.918 -1.2677 -0.8276 -0.9699
10961TIP3    H232837   0.663   2.199   1.012  1.6316 -0.4833  2.1638
10962TIP3   OH232838   2.863   3.226   5.503 -0.4405 -0.4424 -0.0013
10962TIP3    H132839   2.938   3.264   5.457 -0.4764  0.8343  0.9811
10962TIP3    H232840   2.791   3.286   5.484 -0.6020 -0.2487  1.2044
10963TIP3   OH232841   6.149   7.221   2.919 -0.3922  0.3675  0.1293
10963TIP3    H132842   6.128   7.182   2.834 -0.4774  2.5747 -0.8958
10963TIP3    H232843   6.155   7.146   2.978  1.8598 -1.4328 -2.2391
10964TIP3   OH232844   3.104   0.617   1.153 -0.0011  0.3331 -0.4733
10964TIP3    H132845   3.131   0.700   1.194  1.4239 -0.0201 -0.6546
10964TIP3    H232846   3.102   0.554   1.225 -1.8559  0.6796 -0.1971
10965TIP3   OH232847   7.454   1.059   5.744  0.0169  0.0510 -0.5323
10965TIP3    H132848   7.547   1.042   5.735  0.1856  0.1635  0.8603
10965TIP3    H232849   7.447   1.153   5.755 -0.2500  0.0301 -0.5042
10966TIP3   OH232850   2.111   0.788   3.884 -0.2572 -0.3275  0.0269
10966TIP3    H132851   2.031   0.807   3.931 -0.7286  0.3069 -1.0162
10966TIP3    H232852   2.143   0.873   3.853  1.9315 -0.3100  2.1612
10967TIP3   OH232853   1.278   0.162   5.486 -0.3283  0.1981  0.1612
10967TIP3    H132854   1.244   0.097   5.424  1.3062 -1.9156  1.3720
10967TIP3    H232855   1.247   0.132   5.571 -1.1149  2.1080  0.5703
10968TIP3   OH232856   4.855   6.957   4.431 -0.0756  0.5118  0.5523
10968TIP3    H132857   4.856   6.893   4.502  0.1343  0.2555  0.3201
10968TIP3    H232858   4.787   6.926   4.372 -0.7448  1.1161  0.9951
10969TIP3   OH232859   1.654   0.622   3.882 -0.2770  0.5673 -0.1966
10969TIP3    H132860   1.680   0.625   3.790  1.2134  1.8260  0.2403
10969TIP3    H232861   1.712   0.684   3.925 -0.8835 -0.0957  1.6193
10970TIP3   OH232862   1.685   0.244   3.706  0.1691 -0.1241  0.6842
10970TIP3    H132863   1.741   0.322   3.715 -0.3542  0.4727 -0.9281
10970TIP3    H232864   1.598   0.279   3.691  0.2238 -0.9540 -1.9298
10971TIP3   OH232865   0.329   1.152   5.358  0.0018 -0.6339  0.2993
10971TIP3    H132866   0.318   1.207   5.436  1.5595 -1.5082  1.1656
10971TIP3    H232867   0.376   1.208   5.296  0.4433 -0.5618  0.6971
10972TIP3   OH232868   1.130   0.416   5.501 -0.2727 -0.5384  0.3325
10972TIP3    H132869   1.206   0.463   5.537  1.4652 -2.6467 -0.4992
10972TIP3    H232870   1.152   0.324   5.510 -2.8142 -1.2015  0.1488
10973TIP3   OH232871   3.423   2.896   1.027 -0.2555 -0.3371  0.1380
10973TIP3    H132872   3.478   2.818   1.029 -1.2720 -1.0773 -0.6260
10973TIP3    H232873   3.387   2.902   1.115 -0.8386 -1.2000 -0.0395
10974TIP3   OH232874   0.694   1.152   6.355 -0.6564 -0.2998 -0.0299
10974TIP3    H132875   0.679   1.164   6.261  0.3253 -1.2426 -0.3323
10974TIP3    H232876   0.647   1.071   6.377 -0.7028 -0.2008  0.2378
10975TIP3   OH232877   6.193   4.778   3.365  0.2694  0.4723 -0.4907
10975TIP3    H132878   6.104   4.763   3.399  1.4175 -1.8914  1.5982
10975TIP3    H232879   6.214   4.867   3.393 -0.2482 -0.1028  1.8290
10976TIP3   OH232880   6.415   4.385   2.046  0.1350 -0.1838 -0.2610
10976TIP3    H132881   6.503   4.389   2.081  0.6068 -0.0838 -1.4360
10976TIP3    H232882   6.407   4.297   2.009  0.2184  0.2487 -1.3404
10977TIP3   OH232883   6.531   7.465   5.786 -0.1148 -0.0876  0.6517
10977TIP3    H132884   6.506   7.414   5.708 -0.9362  1.2598  0.0194
10977TIP3    H232885   6.501   7.411   5.859 -3.0278  0.4787 -0.0454
10978TIP3   OH232886   5.604   6.982   6.197 -0.0180  0.2121 -0.2075
10978TIP3    H132887   5.516   6.958   6.167  0.7544 -2.1041 -0.7251
10978TIP3    H232888   5.595   7.072   6.227 -2.9747 -0.5208  1.3303
10979TIP3   OH232889   6.414   5.979   5.464  0.0799  0.1674  0.7739
10979TIP3    H132890   6.468   5.964   5.387  0.7699 -1.5311  1.5802
10979TIP3    H232891   6.346   6.040   5.434  1.3215  0.8469 -0.7214
10980TIP3   OH232892   0.395   0.101   5.636 -0.7427  0.0852 -0.1953
10980TIP3    H132893   0.392   0.106   5.732  0.7483 -2.6346  0.0429
10980TIP3    H232894   0.313   0.058   5.612  0.8934 -3.5014  0.2880
10981TIP3   OH232895   1.783   5.072   4.506 -0.0915 -0.1519  0.2947
10981TIP3    H132896   1.770   5.072   4.601  1.5059 -0.8475  0.5320
10981TIP3    H232897   1.701   5.036   4.471 -0.5074 -0.3389  1.4259
10982TIP3   OH232898   5.607   4.767   6.208  0.9465  0.0015 -0.0860
10982TIP3    H132899   5.692   4.757   6.250  1.9712 -0.5527 -2.2217
10982TIP3    H232900   5.597   4.688   6.156 -0.3645  0.5959 -0.7546
10983TIP3   OH232901   4.919   6.510   4.255 -0.2616 -0.3132  0.1136
10983TIP3    H132902   4.880   6.546   4.334  0.7527  1.6736 -0.2443
10983TIP3    H232903   4.886   6.566   4.184  1.5615  0.1258 -0.4246
10984TIP3   OH232904   5.691   2.402   5.664  0.2118  0.1334  0.2090
10984TIP3    H132905   5.766   2.349   5.636 -1.6420 -1.6810 -1.4675
10984TIP3    H232906   5.658   2.357   5.742  0.8837  0.9846  1.0008
10985TIP3   OH232907   4.550   3.394   0.452 -0.1216 -0.0900  0.1631
10985TIP3    H132908   4.490   3.429   0.387 -1.4744 -0.5318  1.1630
10985TIP3    H232909   4.587   3.315   0.411  0.2932  0.5516 -0.7105
10986TIP3   OH232910   6.995   4.775   4.978 -0.0534  0.0444 -0.4492
10986TIP3    H132911   7.048   4.813   4.908 -0.6455  0.4105 -0.7003
10986TIP3    H232912   7.059   4.741   5.041  0.4832 -0.8298 -1.4560
10987TIP3   OH232913  -0.009   0.765   4.674  0.6217  0.1439  0.0341
10987TIP3    H132914   0.075   0.811   4.666  0.9343 -0.3876  0.2338
10987TIP3    H232915   0.015   0.673   4.684 -0.0071 -0.0650 -0.3932
10988TIP3   OH232916   5.272   7.342   4.984 -0.3707 -0.0933 -0.1283
10988TIP3    H132917   5.366   7.356   5.000 -0.1684 -1.7771  0.1803
10988TIP3    H232918   5.231   7.424   5.011  0.8785  0.1788  0.9822
10989TIP3   OH232919   1.158   0.791   3.328  0.0699 -0.5872 -0.1940
10989TIP3    H132920   1.084   0.833   3.284  1.0691  1.1411 -0.2988
10989TIP3    H232921   1.173   0.711   3.279 -1.3328 -0.6458 -0.5526
10990TIP3   OH232922   5.180   5.028   5.399  0.2510  1.1665  0.1709
10990TIP3    H132923   5.245   5.007   5.466  0.2408  1.8198  0.3940
10990TIP3    H232924   5.225   5.088   5.339  0.3929  0.2382 -0.6515
10991TIP3   OH232925   7.109   6.783   4.557 -0.7795 -0.3578  0.2349
10991TIP3    H132926   7.167   6.754   4.627  0.5070  1.9559  0.1519
10991TIP3    H232927   7.136   6.731   4.481  1.0309  0.5296  0.2597
10992TIP3   OH232928   7.160   0.996   4.861  0.1785 -0.1434  0.0257
10992TIP3    H132929   7.186   1.002   4.953 -2.5073  1.2384  0.7515
10992TIP3    H232930   7.091   0.930   4.859  0.4257 -0.3864 -1.0609
10993TIP3   OH232931   5.423   5.590   5.781  0.4234  0.3690  0.4455
10993TIP3    H132932   5.470   5.522   5.829  0.1338 -0.5953 -0.6190
10993TIP3    H232933   5.377   5.640   5.849  1.4112  0.1023  1.3156
10994TIP3   OH232934   6.225   5.747   4.325  0.2300  0.0671 -0.2322
10994TIP3    H132935   6.262   5.663   4.298 -1.2680 -0.6035 -0.2282
10994TIP3    H232936   6.192   5.731   4.414  0.1853  0.7431 -0.1231
10995TIP3   OH232937   0.327   0.833   3.489 -0.7035  0.2405  0.6775
10995TIP3    H132938   0.362   0.912   3.448  1.0883 -0.3392  1.0803
10995TIP3    H232939   0.279   0.789   3.419  0.1102  0.5823 -0.1061
10996TIP3   OH232940   6.695   0.176   5.640 -0.1268  0.0375  0.0319
10996TIP3    H132941   6.761   0.189   5.571 -0.1718  0.6000  0.0915
10996TIP3    H232942   6.719   0.093   5.681 -0.2957 -0.4665 -0.8826
10997TIP3   OH232943   5.946   6.338   5.740  0.1018  0.3352 -0.1525
10997TIP3    H132944   5.982   6.257   5.704  1.4616  1.4083 -1.2626
10997TIP3    H232945   6.022   6.396   5.751 -1.0890  2.1672 -1.2965
10998TIP3   OH232946   2.333   0.189   3.977 -0.2314 -0.0615 -0.3448
10998TIP3    H132947   2.403   0.135   4.014 -0.0145 -0.2323 -0.9899
10998TIP3    H232948   2.321   0.260   4.040  0.8643  0.2419 -0.4701
10999TIP3   OH232949   6.165   6.591   5.075  0.2572  0.1182  0.2674
10999TIP3    H132950   6.256   6.566   5.059  0.5065  0.8723  0.4985
10999TIP3    H232951   6.170   6.664   5.136 -0.5916 -1.1155  1.8360
11000TIP3   OH232952   6.093   6.699   3.879  0.0373  0.3093  0.4747
11000TIP3    H132953   6.133   6.625   3.924 -0.7413  0.3337  1.2112
11000TIP3    H232954   6.123   6.776   3.928  1.9805  0.6157 -1.1140
11001TIP3   OH232955   1.535   0.860   5.040 -0.7394  0.1972  0.1461
11001TIP3    H132956   1.463   0.797   5.043 -1.8588  1.4138 -0.4807
11001TIP3    H232957   1.569   0.855   4.951  1.6776 -2.2197  1.1441
11002TIP3   OH232958   4.950   7.063   6.153  0.6409  0.1472  0.3060
11002TIP3    H132959   4.950   7.036   6.061 -1.5532  3.4609 -0.7675
11002TIP3    H232960   4.886   7.005   6.194  0.0964  0.0042 -0.7164
11003TIP3   OH232961   0.674   1.604   5.878  0.1410  0.5758 -0.5148
11003TIP3    H132962   0.706   1.679   5.928  0.2019  0.5860 -0.5690
11003TIP3    H232963   0.579   1.607   5.889  0.1960  0.2562  0.0497
11004TIP3   OH232964   5.226   6.550   4.004  0.9044 -0.5949 -0.0646
11004TIP3    H132965   5.284   6.593   3.942  1.2381 -0.8809  0.0492
11004TIP3    H232966   5.138   6.582   3.981  1.1452  0.1070 -0.0085
11005TIP3   OH232967   3.238   5.114   0.706  0.3164 -0.0815  0.0735
11005TIP3    H132968   3.175   5.042   0.710  1.9551 -1.5509 -0.1445
11005TIP3    H232969   3.208   5.168   0.632 -0.7680 -0.6720  0.0694
11006TIP3   OH232970   6.711   0.765   4.072  0.8148 -0.0272 -0.2765
11006TIP3    H132971   6.729   0.826   4.143  2.7951 -0.2312 -0.5795
11006TIP3    H232972   6.706   0.679   4.113 -0.5670  0.1577 -0.0453
11007TIP3   OH232973   0.462   0.400   5.860  0.0839  0.0499 -0.6874
11007TIP3    H132974   0.555   0.378   5.855 -0.3158 -1.9369  0.1472
11007TIP3    H232975   0.419   0.318   5.885 -1.9464  0.8322 -1.4591
11008TIP3   OH232976   6.556   7.408   4.235  0.1473 -0.1629 -0.6591
11008TIP3    H132977   6.567   7.480   4.298  1.2944 -1.6823  0.9090
11008TIP3    H232978   6.645   7.375   4.221 -0.1887 -0.2951 -2.5679
11009TIP3   OH232979   3.158   1.859   0.444 -0.2205 -0.3857  0.2054
11009TIP3    H132980   3.068   1.849   0.411 -0.3516  0.8397  0.1434
11009TIP3    H232981   3.171   1.954   0.447  0.6919 -0.5412  1.2712
11010TIP3   OH232982   7.863   0.854   3.196 -0.0639  0.3930  0.3716
11010TIP3    H132983   7.822   0.939   3.179 -2.1615 -1.1758 -2.8976
11010TIP3    H232984   7.921   0.840   3.121 -0.4267 -1.4276  0.4070
11011TIP3   OH232985   6.324   6.979   4.856 -0.2093  0.1711 -0.3857
11011TIP3    H132986   6.270   6.906   4.828 -0.8890  0.8726 -0.9330
11011TIP3    H232987   6.319   6.978   4.952  0.6216 -1.1146 -0.3485
11012TIP3   OH232988   7.461   6.503   4.255  0.9838 -0.1885 -0.2607
11012TIP3    H132989   7.386   6.561   4.268  0.6948 -0.7260  0.5091
11012TIP3    H232990   7.423   6.421   4.225  1.3136 -0.2854 -0.4145
11013TIP3   OH232991   5.805   4.988   4.666  0.1683 -0.2040 -0.1658
11013TIP3    H132992   5.829   4.904   4.627 -0.0207  0.6359 -2.1640
11013TIP3    H232993   5.869   5.002   4.735  1.1343 -1.2782 -0.8246
11014TIP3   OH232994   0.374   0.483   5.347  0.5611 -0.0679 -0.0479
11014TIP3    H132995   0.353   0.440   5.264  0.5309 -1.3692  0.6209
11014TIP3    H232996   0.418   0.415   5.398  0.6757  0.7634  0.9607
11015TIP3   OH232997   5.826   6.759   3.759 -0.1697 -0.0126 -0.3620
11015TIP3    H132998   5.847   6.848   3.787  1.0162 -0.2518 -0.4825
11015TIP3    H232999   5.885   6.703   3.809 -1.5675 -0.8094  0.4262
11016TIP3   OH233000   7.522   0.319   5.250  0.0701 -0.1780 -0.0152
11016TIP3    H133001   7.582   0.263   5.299  0.8814 -1.1025 -2.0476
11016TIP3    H233002   7.439   0.271   5.250  0.6790 -1.2604 -1.4822
11017TIP3   OH233003   5.648   4.595   4.848 -0.4606  0.3601 -0.1006
11017TIP3    H133004   5.561   4.557   4.858 -0.5695  0.7803  0.5508
11017TIP3    H233005   5.642   4.681   4.890  0.7222 -0.2772  1.4172
11018TIP3   OH233006   2.262   0.006   5.202  0.7585  0.0214  0.2298
11018TIP3    H133007   2.250   0.101   5.191 -0.9255 -0.2948 -0.8267
11018TIP3    H233008   2.220  -0.013   5.286 -2.1959 -0.3366 -1.2716
11019TIP3   OH233009   1.690   0.527   5.671 -0.2442  0.5666 -0.0302
11019TIP3    H133010   1.629   0.523   5.744  1.2940 -0.4385  1.2394
11019TIP3    H233011   1.659   0.601   5.618 -2.1640  0.4692  0.9098
11020TIP3   OH233012   6.907   6.831   5.143 -0.3143  0.1968 -0.6176
11020TIP3    H133013   6.923   6.925   5.152  3.3177 -0.2943 -1.2793
11020TIP3    H233014   6.949   6.793   5.220  2.3465 -1.2248 -2.6841
11021TIP3   OH233015   5.482   5.762   5.420 -0.1779 -0.6572  0.4534
11021TIP3    H133016   5.484   5.841   5.365  1.9263 -0.4038  0.8378
11021TIP3    H233017   5.407   5.713   5.389 -1.2312  1.2702 -0.1379
11022TIP3   OH233018   6.921   6.070   4.541 -0.3884 -0.4856 -0.1020
11022TIP3    H133019   6.883   6.075   4.629 -0.0869 -0.8102  0.0460
11022TIP3    H233020   7.013   6.046   4.556 -0.5274 -1.3103 -0.5429
11023TIP3   OH233021   6.111   6.435   3.974 -0.3945  0.0745  0.4402
11023TIP3    H133022   6.141   6.439   4.065 -2.2185  0.2290  1.0433
11023TIP3    H233023   6.048   6.363   3.972 -0.2436 -0.0377 -0.7495
11024TIP3   OH233024   2.733   6.342   3.806  0.4746  0.2498  0.5845
11024TIP3    H133025   2.667   6.329   3.738  1.5829 -1.4312 -0.2094
11024TIP3    H233026   2.774   6.426   3.784  0.2279  0.1385 -0.3168
11025TIP3   OH233027   5.393   5.901   4.660 -0.1594  0.0132 -0.6166
11025TIP3    H133028   5.351   5.950   4.589  0.7746  0.9115 -0.5589
11025TIP3    H233029   5.473   5.949   4.678  0.0088 -0.6710  0.5061
11026TIP3   OH233030   2.483   2.679   0.347  0.1591  0.7173 -0.7516
11026TIP3    H133031   2.559   2.629   0.376  0.3453  2.2300  1.4835
11026TIP3    H233032   2.470   2.653   0.256  3.6857  0.8265 -1.3552
11027TIP3   OH233033   0.321   1.235   5.842  0.2016  0.0689 -0.0710
11027TIP3    H133034   0.320   1.143   5.867  1.9995  0.1092  0.1927
11027TIP3    H233035   0.409   1.251   5.809  0.0014  1.7563  0.1369
11028TIP3   OH233036   4.818   6.628   5.790 -0.3152  0.5312  0.2880
11028TIP3    H133037   4.760   6.701   5.766 -1.5454 -0.9669 -1.4353
11028TIP3    H233038   4.762   6.551   5.783  1.0413 -0.6165  1.8738
11029TIP3   OH233039   4.407   0.330   0.203  0.6826  0.1598  0.1057
11029TIP3    H133040   4.373   0.250   0.163 -1.5780  1.2636 -0.3061
11029TIP3    H233041   4.418   0.308   0.296 -0.9511 -0.3456  0.1987
11030TIP3   OH233042   7.282   0.198   5.204 -0.2329 -0.1332  0.3534
11030TIP3    H133043   7.308   0.144   5.280 -0.3559  1.1708  1.3280
11030TIP3    H233044   7.187   0.203   5.210 -0.2750 -0.3734 -0.1278
11031TIP3   OH233045   4.433   6.772   4.346 -0.0679 -0.0226 -0.0918
11031TIP3    H133046   4.391   6.792   4.429  0.9584 -1.7674  0.8722
11031TIP3    H233047   4.383   6.822   4.281 -1.1090  1.0579  1.5066
11032TIP3   OH233048   1.165   0.235   3.557 -0.0860  0.2812  0.4559
11032TIP3    H133049   1.111   0.169   3.601 -0.1462 -0.2154 -0.3633
11032TIP3    H233050   1.107   0.311   3.548 -0.5597 -0.1563 -0.1827
11033TIP3   OH233051   5.056   5.649   4.768 -0.4833  0.2360  0.4921
11033TIP3    H133052   5.082   5.736   4.799  0.6603  0.0956 -0.0600
11033TIP3    H233053   5.062   5.593   4.846  0.7836  0.2285  0.3998
11034TIP3   OH233054   2.028   1.343   4.288 -0.1312  0.8179 -0.2008
11034TIP3    H133055   2.012   1.399   4.364  0.7041  1.0812 -0.2138
11034TIP3    H233056   1.958   1.278   4.291  0.0622  0.6479  0.9694
11035TIP3   OH233057   0.825   1.588   4.607  0.3289  0.1207 -0.0818
11035TIP3    H133058   0.739   1.617   4.639  0.1034 -0.6815  0.0426
11035TIP3    H233059   0.858   1.530   4.675 -0.0452 -1.3880 -1.1616
11036TIP3   OH233060   7.241   3.210   3.273 -0.8675 -0.2747 -0.1712
11036TIP3    H133061   7.294   3.257   3.209 -0.0707 -0.7982  0.0984
11036TIP3    H233062   7.302   3.186   3.343 -2.4138  3.6466  2.7278
11037TIP3   OH233063   7.629   0.142   3.560 -0.2890 -0.1080  0.6184
11037TIP3    H133064   7.618   0.174   3.650  0.5873  0.3278  0.5822
11037TIP3    H233065   7.541   0.137   3.525 -0.5233  1.1666  1.0119
11038TIP3   OH233066   4.560   0.552   3.514 -0.2064 -0.0118 -0.2468
11038TIP3    H133067   4.511   0.527   3.592  1.2909  0.6494  0.9443
11038TIP3    H233068   4.635   0.601   3.548  0.3250  0.5156 -2.1232
11039TIP3   OH233069   6.072   7.257   4.837 -0.5189 -0.4149 -0.2354
11039TIP3    H133070   6.145   7.317   4.818 -0.3455 -0.3263  0.6750
11039TIP3    H233071   6.065   7.203   4.758 -1.7988  1.9117 -1.7857
11040TIP3   OH233072   7.177   6.987   2.288 -0.0454  0.0600  0.1884
11040TIP3    H133073   7.252   6.972   2.230 -1.3617  1.4569 -1.9299
11040TIP3    H233074   7.190   7.076   2.320 -0.3785  0.0029  0.4768
11041TIP3   OH233075   0.792   1.804   2.855  0.6009 -0.1169  0.2450
11041TIP3    H133076   0.735   1.727   2.847  0.3677  0.1045 -0.2142
11041TIP3    H233077   0.843   1.805   2.774  1.1397 -0.2175  0.5816
11042TIP3   OH233078   3.717   7.162   5.645  0.1858  0.0287  0.2401
11042TIP3    H133079   3.664   7.116   5.579 -0.2703  0.3279  0.3932
11042TIP3    H233080   3.730   7.097   5.713  0.4190 -0.1956 -0.0181
11043TIP3   OH233081   1.618   0.001   5.504  0.1662 -0.2372  0.5058
11043TIP3    H133082   1.668  -0.021   5.583 -0.5418 -1.8816  0.5139
11043TIP3    H233083   1.678   0.054   5.452  1.6168 -1.4493  0.8968
11044TIP3   OH233084   7.580   7.406   5.675  0.1665 -0.1063  0.7110
11044TIP3    H133085   7.503   7.388   5.728  0.9718 -0.7651  1.7007
11044TIP3    H233086   7.650   7.418   5.739  0.9766 -0.0235 -0.1802
11045TIP3   OH233087   5.180   7.052   3.094 -0.1009 -0.3145  0.2575
11045TIP3    H133088   5.095   7.032   3.055  0.7969 -0.6698 -1.5697
11045TIP3    H233089   5.171   7.141   3.128 -0.6517  0.3188 -1.5222
11046TIP3   OH233090   6.210   4.719   6.094  0.0722 -0.6605  0.3942
11046TIP3    H133091   6.206   4.628   6.066 -1.8227 -0.0493 -1.4705
11046TIP3    H233092   6.163   4.721   6.177 -0.3777 -1.2717  0.1550
11047TIP3   OH233093   2.195   1.564   4.960  0.0876  0.4423 -0.3458
11047TIP3    H133094   2.262   1.497   4.947  0.8890  0.9666  0.9217
11047TIP3    H233095   2.115   1.515   4.979  0.6769 -0.1753  0.5979
11048TIP3   OH233096   6.469   5.193   4.784  0.1115 -0.4207  0.0343
11048TIP3    H133097   6.442   5.173   4.694  0.1289 -2.2246  0.4184
11048TIP3    H233098   6.537   5.129   4.804  2.2918  1.8951  0.3036
11049TIP3   OH233099   7.766   3.043   5.237 -0.2532 -0.2277 -0.1080
11049TIP3    H133100   7.759   3.016   5.145 -1.1308 -1.0269  0.1894
11049TIP3    H233101   7.724   3.130   5.239 -1.2917 -0.7121 -0.2461
11050TIP3   OH233102   5.073   5.506   2.765 -0.3509 -0.5854  0.3816
11050TIP3    H133103   5.111   5.553   2.839  1.9298 -1.5504 -0.1145
11050TIP3    H233104   5.062   5.572   2.697 -0.1664 -0.1680  0.7543
11051TIP3   OH233105   4.260   6.290   4.501 -0.8020 -0.8330 -0.0349
11051TIP3    H133106   4.282   6.239   4.579 -0.4906  1.1706  1.2225
11051TIP3    H233107   4.337   6.345   4.486 -1.7629  0.4600 -0.3700
11052TIP3   OH233108   6.812   4.463   4.526 -0.1140  0.5620  0.2527
11052TIP3    H133109   6.771   4.481   4.442 -1.0105 -0.9832  0.3418
11052TIP3    H233110   6.898   4.426   4.503  0.2746  1.5745  0.0462
11053TIP3   OH233111   6.307   0.841   5.255 -0.2852  0.2656 -0.2374
11053TIP3    H133112   6.256   0.805   5.328  1.1780 -2.4795 -0.5261
11053TIP3    H233113   6.242   0.886   5.201 -1.8357 -0.1159  1.2349
11054TIP3   OH233114   4.949   4.948   4.124  0.3040  0.0587 -0.1954
11054TIP3    H133115   5.021   5.008   4.107  0.5136 -0.5638 -1.6077
11054TIP3    H233116   4.916   4.973   4.210 -0.7980  3.3741 -1.5178
11055TIP3   OH233117   6.226   6.444   4.230  0.1420 -0.4246 -0.2243
11055TIP3    H133118   6.310   6.430   4.274  0.1449 -0.8112 -0.3526
11055TIP3    H233119   6.198   6.531   4.259  1.9630  0.9409 -2.4448
11056TIP3   OH233120   7.710   1.094   3.756  0.5056  0.2458  0.7747
11056TIP3    H133121   7.793   1.047   3.744 -1.0697 -2.0211 -1.9543
11056TIP3    H233122   7.664   1.044   3.823  0.8601  0.8234  1.4521
11057TIP3   OH233123   0.078   0.732   1.183  0.0036  0.6698 -0.6125
11057TIP3    H133124   0.141   0.664   1.159 -0.2720 -0.5136  1.8157
11057TIP3    H233125  -0.003   0.705   1.140  0.3119  0.3704 -1.0082
11058TIP3   OH233126   6.021   6.738   4.524 -0.0022  0.3478  0.2604
11058TIP3    H133127   5.974   6.718   4.606  0.7144  0.6458  0.7504
11058TIP3    H233128   6.056   6.654   4.496 -0.0624  0.2828  0.3770
11059TIP3   OH233129   4.584   7.067   3.794  0.2805 -0.1730  0.0778
11059TIP3    H133130   4.676   7.041   3.799  1.0032  1.7354 -2.2874
11059TIP3    H233131   4.548   7.014   3.723 -0.7024 -1.5188  1.5395
11060TIP3   OH233132   2.876   1.544   6.084  0.0504 -0.1666  0.0590
11060TIP3    H133133   2.917   1.494   6.013 -0.6307 -0.3964 -0.1754
11060TIP3    H233134   2.945   1.551   6.150  0.8548  0.4832 -0.8283
11061TIP3   OH233135   3.966   5.549   3.540  0.9662  0.3681  0.1468
11061TIP3    H133136   3.884   5.598   3.531 -0.6030 -1.3851  3.6928
11061TIP3    H233137   3.938   5.460   3.563  3.8523 -0.7090 -0.3222
11062TIP3   OH233138   4.691   7.137   4.886 -0.1682 -0.1298 -0.5813
11062TIP3    H133139   4.673   7.084   4.809  0.8932 -0.1549 -0.8162
11062TIP3    H233140   4.605   7.152   4.925 -0.7481  0.1522 -1.9356
11063TIP3   OH233141   0.962   0.792   5.445 -0.3515 -0.3601 -0.0492
11063TIP3    H133142   1.005   0.716   5.406  0.3356 -1.0717  2.0219
11063TIP3    H233143   1.023   0.821   5.514 -0.1651  2.6268 -1.3834
11064TIP3   OH233144   3.967   5.930   3.782 -0.2504 -0.4417  0.0557
11064TIP3    H133145   3.983   5.889   3.697 -1.3109  0.5271 -0.6306
11064TIP3    H233146   4.053   5.962   3.810  0.1003 -0.7329 -0.6763
11065TIP3   OH233147   1.572   2.648   1.224 -0.0092  0.2222 -0.4335
11065TIP3    H133148   1.523   2.610   1.151  0.7340 -0.5566 -0.5468
11065TIP3    H233149   1.664   2.636   1.199  0.3760 -4.1543  2.6006
11066TIP3   OH233150   5.975   6.031   4.693 -0.0341  0.0021 -0.3093
11066TIP3    H133151   5.986   6.094   4.764  0.0279 -1.0912  0.6660
11066TIP3    H233152   6.045   6.053   4.631  1.5044 -0.6158  1.1619
11067TIP3   OH233153   6.240   6.279   4.488  0.2523  0.3225 -0.6460
11067TIP3    H133154   6.159   6.321   4.460 -0.6613  0.6934  2.3558
11067TIP3    H233155   6.215   6.188   4.505  0.6289  0.2645 -0.3981
11068TIP3   OH233156   4.238   6.387   4.952  0.3171 -0.0713  0.7850
11068TIP3    H133157   4.295   6.375   5.028  0.8176 -0.7024  0.3122
11068TIP3    H233158   4.149   6.379   4.987  0.5023  1.0580  1.5529
11069TIP3   OH233159   4.512   5.093   0.838  0.0833 -0.0130 -0.6754
11069TIP3    H133160   4.488   5.185   0.846  1.2972  0.1740  1.2144
11069TIP3    H233161   4.603   5.090   0.868  0.4462 -1.6526 -1.8526
11070TIP3   OH233162   6.508   5.466   4.818 -0.0264 -0.3696  0.0677
11070TIP3    H133163   6.485   5.374   4.803 -0.5215 -0.2359 -0.0051
11070TIP3    H233164   6.430   5.504   4.857 -0.2164  0.2689 -0.9053
11071TIP3   OH233165   4.740   6.132   5.671  0.5668  0.4660  0.3936
11071TIP3    H133166   4.678   6.075   5.625  0.7149  0.6058  0.0232
11071TIP3    H233167   4.756   6.088   5.754 -0.2325  0.5529  0.6051
11072TIP3   OH233168   4.581   6.717   6.104  0.0865 -0.3723  0.5299
11072TIP3    H133169   4.604   6.624   6.107  0.8791 -0.2286 -0.7801
11072TIP3    H233170   4.554   6.732   6.014  0.4480  0.7851  0.6132
11073TIP3   OH233171   3.356   2.856   0.243  0.4442  0.0389  0.5530
11073TIP3    H133172   3.261   2.849   0.249  0.3726  0.9049  0.4267
11073TIP3    H233173   3.373   2.947   0.220  1.2561 -0.4031 -0.6750
11074TIP3   OH233174   7.578   1.414   2.978  0.1872 -0.1407  0.7708
11074TIP3    H133175   7.548   1.346   2.919 -0.4090  0.6588  0.1431
11074TIP3    H233176   7.623   1.367   3.048  0.5811 -1.1084 -0.1311
11075TIP3   OH233177   4.642   6.031   3.519 -0.7096  0.3385 -0.1361
11075TIP3    H133178   4.648   6.056   3.611 -2.2141  0.8272 -0.1603
11075TIP3    H233179   4.725   6.060   3.481  0.2090 -0.4537  1.1806
11076TIP3   OH233180   6.131   0.826   5.470  0.0803  0.1203  0.3440
11076TIP3    H133181   6.115   0.871   5.553 -1.0148 -0.5051  0.4894
11076TIP3    H233182   6.072   0.751   5.472  2.5809 -1.8822  0.5096
11077TIP3   OH233183   2.025   3.133   0.139 -0.4054  0.4482  0.0111
11077TIP3    H133184   2.032   3.057   0.081 -2.2471 -0.3058  0.7397
11077TIP3    H233185   2.028   3.095   0.227 -2.1437  1.1487  0.3730
11078TIP3   OH233186   1.646   0.042   4.175 -0.2965  0.4977  0.1060
11078TIP3    H133187   1.664   0.015   4.265 -1.2173 -0.2292  0.0903
11078TIP3    H233188   1.666  -0.036   4.122 -2.3148  0.0393 -0.0224
11079TIP3   OH233189   7.712   0.501   3.590  0.3946  0.1428 -0.0878
11079TIP3    H133190   7.665   0.585   3.588  1.4139  0.8073  1.9676
11079TIP3    H233191   7.794   0.521   3.636  0.4374 -2.0807  0.8729
11080TIP3   OH233192   6.577   5.013   3.725  0.2231 -0.1084 -0.1964
11080TIP3    H133193   6.585   5.006   3.630 -0.6911 -0.8894 -0.2185
11080TIP3    H233194   6.590   4.924   3.758 -0.7005 -0.0628  0.3141
11081TIP3   OH233195   4.293   7.160   3.511 -0.5811  0.2309  0.1438
11081TIP3    H133196   4.368   7.116   3.550 -1.9914 -0.9898  1.5137
11081TIP3    H233197   4.325   7.249   3.493  0.6698  0.2318  2.2540
11082TIP3   OH233198   7.846   6.369   6.334 -0.6081  0.0338  0.1586
11082TIP3    H133199   7.913   6.317   6.378 -0.4928  0.4162  0.4414
11082TIP3    H233200   7.840   6.331   6.246 -1.2856 -1.1204  0.6979
11083TIP3   OH233201   1.412  -0.005   6.177  0.8498  0.3268 -0.4901
11083TIP3    H133202   1.490   0.031   6.220  1.8343  0.5489 -2.3976
11083TIP3    H233203   1.387   0.062   6.112 -2.7331  1.6289  2.0812
11084TIP3   OH233204   2.051   0.563   4.367 -0.8024  0.4204 -0.1826
11084TIP3    H133205   2.014   0.651   4.379 -0.4661  0.5126  0.1886
11084TIP3    H233206   2.032   0.542   4.275  0.0668  1.3361 -0.5830
11085TIP3   OH233207   0.472   0.671   3.169 -0.3299  0.2475 -0.4255
11085TIP3    H133208   0.386   0.678   3.128 -0.2940 -0.1936 -0.5758
11085TIP3    H233209   0.466   0.594   3.225  0.3234 -0.4574 -1.3057
11086TIP3   OH233210   5.791   7.056   4.770  0.9920 -0.0985  0.5219
11086TIP3    H133211   5.828   6.978   4.812  0.9781 -0.0365  0.6520
11086TIP3    H233212   5.715   7.024   4.723  2.1857 -0.5145 -1.1631
11087TIP3   OH233213   5.856   6.044   2.913 -0.9771  0.2005 -0.3500
11087TIP3    H133214   5.933   5.990   2.896 -1.3568 -0.4738  0.0225
11087TIP3    H233215   5.890   6.132   2.927 -0.3219 -0.0006 -0.6690
11088TIP3   OH233216   4.904   6.294   3.537  0.1727  0.7056  0.2970
11088TIP3    H133217   4.963   6.300   3.612 -1.1361 -0.3298  1.4469
11088TIP3    H233218   4.855   6.376   3.538  0.3439  0.8061  0.4151
11089TIP3   OH233219   2.961   5.445   5.304  0.4983 -0.6246  0.6236
11089TIP3    H133220   3.028   5.395   5.350  1.0787  0.3628  0.8783
11089TIP3    H233221   2.892   5.382   5.286  1.6738 -1.7595 -0.0300
11090TIP3   OH233222   0.549   0.072   4.235  0.0959 -0.3959 -0.0472
11090TIP3    H133223   0.589   0.074   4.323  0.0832  0.0866 -0.0468
11090TIP3    H233224   0.527   0.164   4.218 -0.2689 -0.5497 -0.3888
11091TIP3   OH233225   6.011   6.403   4.423  0.6911  0.2267  0.1934
11091TIP3    H133226   5.924   6.404   4.462  0.8961 -0.3370  0.6686
11091TIP3    H233227   5.999   6.441   4.336 -0.1663 -0.5834 -0.0391
11092TIP3   OH233228   0.508   6.626   4.182  0.3446 -0.3327  0.4932
11092TIP3    H133229   0.598   6.602   4.158  0.2177 -0.0388 -0.2825
11092TIP3    H233230   0.460   6.544   4.179  0.2880 -0.2717 -0.4576
11093TIP3   OH233231   2.137   0.110   5.925 -0.2259  0.3082 -0.0701
11093TIP3    H133232   2.129   0.204   5.940  1.4831  0.6199 -1.0318
11093TIP3    H233233   2.231   0.093   5.931 -0.3081 -0.9789 -2.0059
11094TIP3   OH233234   1.037   1.428   4.785 -0.6207  0.4413  0.2859
11094TIP3    H133235   1.105   1.495   4.790  1.0721 -1.1640 -0.4672
11094TIP3    H233236   1.001   1.423   4.873 -0.5458  2.1054  0.4194
11095TIP3   OH233237   3.408   3.107   0.180  0.3215  0.0117 -0.0711
11095TIP3    H133238   3.441   3.120   0.269 -0.1671  2.8416 -0.2362
11095TIP3    H233239   3.385   3.195   0.150 -1.9309 -1.1884 -2.0762
11096TIP3   OH233240   3.443   1.783   0.092 -0.2978 -0.0876  0.0167
11096TIP3    H133241   3.363   1.746   0.128  0.5074 -0.7038  1.2103
11096TIP3    H233242   3.479   1.837   0.163 -0.2995  1.2113 -0.9406
11097TIP3   OH233243   0.978   5.260   5.056  0.2442  0.0985 -0.0684
11097TIP3    H133244   0.951   5.257   5.148  0.7339 -2.6229  0.0145
11097TIP3    H233245   1.055   5.316   5.056  2.0994 -2.3714  1.6902
11098TIP3   OH233246   7.354   6.754   5.539 -0.3604 -0.4053 -0.4665
11098TIP3    H133247   7.446   6.730   5.549 -0.0189  0.2982 -1.8038
11098TIP3    H233248   7.320   6.758   5.628  1.0278 -0.1924  0.0637
11099TIP3   OH233249   4.862   4.965   5.769  0.5614  0.1815 -0.4197
11099TIP3    H133250   4.941   4.926   5.730  0.5445  0.2649 -0.5380
11099TIP3    H233251   4.802   4.891   5.780  1.4724 -0.2832  1.7281
11100TIP3   OH233252   4.209   5.797   4.535  0.0204  0.3265  0.7512
11100TIP3    H133253   4.165   5.848   4.603 -0.0849  3.1189 -1.2894
11100TIP3    H233254   4.138   5.763   4.481  0.1913  2.0281 -0.6007
11101TIP3   OH233255   6.888   5.722   3.940 -0.0507 -0.0167  0.0412
11101TIP3    H133256   6.806   5.714   3.989 -0.1802 -0.0179 -0.1785
11101TIP3    H233257   6.900   5.637   3.898 -0.5681  0.3756 -0.9226
11102TIP3   OH233258   5.783   4.918   5.860 -0.5238 -0.3916  0.4159
11102TIP3    H133259   5.834   4.938   5.938 -1.0867 -0.1699  0.7294
11102TIP3    H233260   5.820   4.975   5.792 -0.9241  0.3994  0.8563
11103TIP3   OH233261   0.047   6.269   4.700  0.3790 -0.4531  0.1208
11103TIP3    H133262  -0.022   6.332   4.675  0.4791 -0.4761 -0.2240
11103TIP3    H233263   0.126   6.304   4.658  0.3888 -0.9362 -0.2648
11104TIP3   OH233264   7.799   0.111   4.097  0.0842  0.0877 -0.1748
11104TIP3    H133265   7.810   0.199   4.063  1.7843  0.1002  0.3412
11104TIP3    H233266   7.755   0.123   4.181  3.1868  0.7366  1.4077
11105TIP3   OH233267   4.072   7.397   3.847 -0.3885  0.0461  0.1148
11105TIP3    H133268   4.140   7.465   3.851  0.9442 -1.2014 -0.6684
11105TIP3    H233269   4.111   7.322   3.892 -0.3330 -1.4196 -2.2623
11106TIP3   OH233270   7.016   6.153   4.171 -0.1595 -0.3295  0.5615
11106TIP3    H133271   7.029   6.246   4.153  2.2003 -0.6584  0.3805
11106TIP3    H233272   6.926   6.136   4.146 -0.2462  1.6380 -0.5733
11107TIP3   OH233273   3.245   3.863   0.142 -0.3301 -0.2142  0.0703
11107TIP3    H133274   3.243   3.923   0.217  0.9221  3.1769 -2.4428
11107TIP3    H233275   3.251   3.921   0.066  4.1368 -3.5670 -2.3747
11108TIP3   OH233276   6.657   5.243   3.849 -0.4023  0.4493  0.4624
11108TIP3    H133277   6.620   5.165   3.808 -2.6847  1.9096 -0.3315
11108TIP3    H233278   6.708   5.285   3.780 -0.8989  0.7777  0.2999
11109TIP3   OH233279   7.097   7.408   6.038  0.6398 -0.1839  0.0089
11109TIP3    H133280   7.193   7.403   6.038  0.5889 -1.1056  1.0275
11109TIP3    H233281   7.072   7.404   6.130 -0.5485 -2.9103 -0.3987
11110TIP3   OH233282   1.827   2.473   1.465  0.5614 -0.1181 -0.5523
11110TIP3    H133283   1.823   2.567   1.445  1.3551  0.1693  0.5975
11110TIP3    H233284   1.752   2.458   1.523  1.1176  0.0403  0.2055
11111TIP3   OH233285   0.964   0.975   6.176 -0.4126 -0.0479 -0.4885
11111TIP3    H133286   0.910   0.901   6.205 -2.8152  1.5860 -0.6073
11111TIP3    H233287   1.017   0.940   6.104 -1.4073 -1.6933 -0.4435
11112TIP3   OH233288   5.552   6.096   3.441  0.4866  0.1372 -0.6112
11112TIP3    H133289   5.458   6.113   3.448  0.6409  0.8294 -0.1804
11112TIP3    H233290   5.584   6.100   3.531  0.9098 -0.2462 -0.7398
11113TIP3   OH233291   1.050   7.242   4.624  0.1615 -0.4939  0.7928
11113TIP3    H133292   1.113   7.197   4.569  0.1244 -1.2587  1.3637
11113TIP3    H233293   1.006   7.172   4.673 -1.1015  0.0217  0.4385
11114TIP3   OH233294   7.550   0.287   2.414  0.4203 -0.7283 -0.4694
11114TIP3    H133295   7.576   0.251   2.329  0.3619  0.3441 -0.9468
11114TIP3    H233296   7.542   0.381   2.399 -1.6530 -0.7807  0.1946
11115TIP3   OH233297   0.684   5.797   4.169  0.2070 -0.2631 -0.0642
11115TIP3    H133298   0.592   5.782   4.191  0.4405  0.1076  1.2270
11115TIP3    H233299   0.733   5.757   4.242  1.0179  1.0090  0.0996
11116TIP3   OH233300   7.220   5.915   4.335  0.8808  0.3207  0.2869
11116TIP3    H133301   7.185   5.887   4.250  1.3605  0.3526  0.0795
11116TIP3    H233302   7.212   6.011   4.334 -0.1125  0.2491  0.7149
11117TIP3   OH233303   5.934   5.639   3.920 -0.1935 -0.2988 -0.4293
11117TIP3    H133304   5.945   5.731   3.895 -0.2594 -0.1159  0.2320
11117TIP3    H233305   5.894   5.641   4.006  0.1181 -0.9494 -0.2652
11118TIP3   OH233306   4.995   6.155   4.667  0.1123  0.2803 -0.4368
11118TIP3    H133307   5.058   6.227   4.659  1.5443 -1.0684 -1.5553
11118TIP3    H233308   5.017   6.096   4.595 -0.5121 -1.6930  0.9504
11119TIP3   OH233309   0.788   0.180   4.691 -0.1366  0.0124  0.1719
11119TIP3    H133310   0.856   0.119   4.719 -1.5660 -1.4970  0.4267
11119TIP3    H233311   0.727   0.126   4.641  1.0521  2.1266 -3.8508
11120TIP3   OH233312   6.121   5.729   3.059  0.0372 -0.1013 -0.1804
11120TIP3    H133313   6.100   5.792   2.989  0.0824  0.2390  0.1122
11120TIP3    H233314   6.155   5.783   3.130  1.9923 -0.6388 -0.6738
11121TIP3   OH233315   7.902   5.552   2.797 -0.1345 -0.2148  0.5304
11121TIP3    H133316   7.945   5.524   2.878 -0.2361 -1.2920  0.2087
11121TIP3    H233317   7.818   5.505   2.796  0.9477 -2.1832 -1.4615
11122TIP3   OH233318   0.622   4.938   5.452  0.2987 -0.2104 -0.2422
11122TIP3    H133319   0.536   4.928   5.491  0.4694 -0.7013  0.0154
11122TIP3    H233320   0.607   4.931   5.358  0.3542 -2.5939 -0.0908
11123TIP3   OH233321   4.341   1.165   3.578  0.1203 -0.2852 -0.0180
11123TIP3    H133322   4.388   1.243   3.547 -0.0255 -0.5131 -0.8384
11123TIP3    H233323   4.399   1.093   3.557 -0.5210 -0.5570 -0.9091
11124TIP3   OH233324   7.198   1.819   5.466 -1.5202  0.6985  0.1242
11124TIP3    H133325   7.185   1.903   5.422 -1.0259  0.9515  0.4666
11124TIP3    H233326   7.273   1.833   5.524 -0.0946 -0.5766 -1.3626
11125TIP3   OH233327   3.088   0.135   2.800 -0.2369 -0.6782 -0.1242
11125TIP3    H133328   3.095   0.207   2.863  0.4109 -0.2740 -0.6513
11125TIP3    H233329   3.050   0.175   2.722  1.8166 -0.4891 -1.0593
11126TIP3   OH233330   0.812   7.125   3.943  0.0579  0.8649 -0.3865
11126TIP3    H133331   0.745   7.065   3.974 -0.4187  1.9561  0.7345
11126TIP3    H233332   0.763   7.200   3.909  0.6030  0.2461 -2.6665
11127TIP3   OH233333   3.081   0.408   3.710  0.3495  0.2112 -0.4874
11127TIP3    H133334   3.030   0.330   3.686  0.8657 -0.1597 -0.4030
11127TIP3    H233335   3.068   0.469   3.638 -0.1979  0.1176 -0.4741
11128TIP3   OH233336   0.861   4.637   4.481  0.2333  0.1463  0.9366
11128TIP3    H133337   0.944   4.625   4.435 -0.8338 -1.5457 -0.6048
11128TIP3    H233338   0.856   4.731   4.497  2.2043  0.3305  0.5896
11129TIP3   OH233339   4.832   7.173   2.769  0.2213 -0.0335 -0.3982
11129TIP3    H133340   4.914   7.159   2.720  0.7647 -1.6590  0.9422
11129TIP3    H233341   4.765   7.179   2.701  1.4874  1.7440 -1.5454
11130TIP3   OH233342   0.637   6.077   2.358  0.0224 -0.4998  0.3169
11130TIP3    H133343   0.631   6.169   2.333  0.1621 -0.3289  0.8924
11130TIP3    H233344   0.562   6.036   2.316  0.3879 -0.2687 -0.5598
11131TIP3   OH233345   7.670   2.386   3.429 -0.0050 -0.4045  0.5956
11131TIP3    H133346   7.696   2.409   3.340  1.4312 -0.6347  0.9373
11131TIP3    H233347   7.639   2.469   3.467 -1.6371 -0.5275 -0.4410
11132TIP3   OH233348   7.498   6.543   5.073  0.0178 -0.0411  0.1408
11132TIP3    H133349   7.447   6.611   5.029 -0.9742  0.3347  1.8670
11132TIP3    H233350   7.433   6.484   5.110  0.8155  0.5616  2.5605
11133TIP3   OH233351   6.951   5.742   4.723  0.0092  0.4200  0.0698
11133TIP3    H133352   6.925   5.829   4.752 -2.3822  0.1632 -1.1388
11133TIP3    H233353   6.933   5.742   4.629 -1.6086 -1.8901  0.3294
11134TIP3   OH233354   7.137   6.057   3.359  0.0389 -0.2174 -0.5847
11134TIP3    H133355   7.204   6.017   3.415 -1.3003 -0.6083  0.7716
11134TIP3    H233356   7.147   6.151   3.374 -0.1377 -0.3066  0.1061
11135TIP3   OH233357   7.075   5.521   3.826 -0.0724  0.1241 -0.4934
11135TIP3    H133358   7.086   5.535   3.920  0.3264 -0.7770 -0.4054
11135TIP3    H233359   7.058   5.428   3.817  0.5662  0.0890 -1.3728
11136TIP3   OH233360   2.071   5.622   5.843  0.3662 -0.1262  0.6042
11136TIP3    H133361   2.137   5.664   5.788  0.6289  1.8846  2.3996
11136TIP3    H233362   2.104   5.631   5.932 -0.9827 -1.6150  1.2876
11137TIP3   OH233363   3.614   2.719   1.084  0.0807  0.1699 -0.3683
11137TIP3    H133364   3.602   2.750   1.173  1.6678 -1.3295  0.3924
11137TIP3    H233365   3.563   2.638   1.080  1.1670 -0.5263 -0.3735
11138TIP3   OH233366   7.727   5.949   3.936 -0.2393 -0.1183 -0.3508
11138TIP3    H133367   7.741   5.860   3.970 -0.9790  0.2608  0.9867
11138TIP3    H233368   7.753   5.944   3.844  2.8906 -0.9016  0.5257
11139TIP3   OH233369   0.787   5.574   6.098  0.2750 -0.2139  0.0300
11139TIP3    H133370   0.794   5.634   6.025  0.1076  1.7511  1.5828
11139TIP3    H233371   0.748   5.494   6.061 -0.7403  1.1093 -1.7949
11140TIP3   OH233372   7.594   6.179   5.218 -0.0361 -0.1856 -0.0721
11140TIP3    H133373   7.638   6.224   5.146 -0.4534 -0.2800 -0.3881
11140TIP3    H233374   7.510   6.225   5.226  1.0764  1.5397  2.0749
11141TIP3   OH233375   5.462   1.462   4.636 -0.4825  0.2891 -0.5719
11141TIP3    H133376   5.378   1.486   4.674 -0.6156 -2.3606  0.9211
11141TIP3    H233377   5.498   1.396   4.696  1.3543 -0.7233 -2.6960
11142TIP3   OH233378   2.057   3.841   4.982  0.4044  0.1992  0.1715
11142TIP3    H133379   2.151   3.852   4.997  0.9626 -0.7023 -2.2940
11142TIP3    H233380   2.052   3.785   4.905 -2.1798  0.0683  0.3864
11143TIP3   OH233381   0.367   6.419   6.036  0.2288 -0.1690 -0.5721
11143TIP3    H133382   0.429   6.453   5.971 -2.1801 -0.0840 -2.9139
11143TIP3    H233383   0.402   6.333   6.060  2.8059  1.1024  0.3963
11144TIP3   OH233384   6.206   2.807   0.616 -0.0842 -0.5099 -0.2725
11144TIP3    H133385   6.154   2.746   0.564  2.8492 -2.2371 -1.2837
11144TIP3    H233386   6.205   2.889   0.566 -0.5757 -0.9638 -1.0136
11145TIP3   OH233387   6.413   0.478   5.836  0.5064  0.1298  0.0104
11145TIP3    H133388   6.350   0.533   5.789  1.7609  1.5603 -0.0496
11145TIP3    H233389   6.444   0.416   5.771 -0.1780 -0.0163 -0.1879
11146TIP3   OH233390   6.543   1.392   6.362 -0.1216  0.3158 -0.1857
11146TIP3    H133391   6.600   1.317   6.344 -0.3300 -0.6966  2.9693
11146TIP3    H233392   6.570   1.459   6.299  3.2089 -0.8207 -0.0592
11147TIP3   OH233393   3.127   0.154   6.119 -0.1503 -0.2677  0.1081
11147TIP3    H133394   3.100   0.168   6.029 -1.1373 -1.1518  0.2558
11147TIP3    H233395   3.063   0.202   6.171  0.6571  0.5835  0.3298
11148TIP3   OH233396   0.117   7.448   4.627  0.2532 -0.9759  0.2159
11148TIP3    H133397   0.180   7.380   4.653 -0.8348 -2.0566  0.0902
11148TIP3    H233398   0.042   7.399   4.593 -0.6982  0.2920  0.4523
11149TIP3   OH233399   0.227   2.857   0.154 -0.0189  0.0468  0.0186
11149TIP3    H133400   0.263   2.891   0.235  0.3659 -1.0449  0.3164
11149TIP3    H233401   0.207   2.934   0.102 -0.0693  0.7440  1.0686
11150TIP3   OH233402   6.701   1.961   5.602 -0.6453 -0.2668 -0.4909
11150TIP3    H133403   6.710   1.933   5.511 -0.9527 -0.2032 -0.5410
11150TIP3    H233404   6.781   1.931   5.644  0.0092  0.6912 -1.0375
11151TIP3   OH233405   5.640   1.639   5.958 -0.1124  0.0883  0.5978
11151TIP3    H133406   5.588   1.619   5.881  0.1874 -2.4686  1.0161
11151TIP3    H233407   5.704   1.704   5.928  0.8373 -1.8190 -1.6398
11152TIP3   OH233408   0.629   5.864   5.199 -0.1397  0.2971  0.1717
11152TIP3    H133409   0.608   5.897   5.112 -1.3435 -1.2407 -0.1562
11152TIP3    H233410   0.699   5.800   5.184  2.0635  2.4849  0.7786
11153TIP3   OH233411   2.201   5.656   5.411 -0.2506  0.1295  0.0654
11153TIP3    H133412   2.251   5.649   5.493  0.0618 -0.5067 -0.1765
11153TIP3    H233413   2.179   5.565   5.389  0.4967  0.2205 -1.0742
11154TIP3   OH233414   1.336   7.167   5.355 -0.5570 -0.2881 -0.4466
11154TIP3    H133415   1.269   7.233   5.342  0.4307  0.6231 -1.0030
11154TIP3    H233416   1.304   7.113   5.427 -1.0908  1.1747  0.4175
11155TIP3   OH233417   0.067   3.526   0.305 -0.2177 -0.3277 -0.3394
11155TIP3    H133418  -0.007   3.478   0.343  0.3980 -0.3678  0.8207
11155TIP3    H233419   0.049   3.618   0.326  0.5633 -0.4351  0.8071
11156TIP3   OH233420   0.776   4.414   1.450  1.0727 -0.8559  0.1231
11156TIP3    H133421   0.691   4.389   1.487  0.1737  1.5809 -0.2107
11156TIP3    H233422   0.814   4.332   1.419 -0.5757 -2.1578  1.4929
11157TIP3   OH233423   7.592   2.612   0.431 -0.8004  0.2863 -0.1975
11157TIP3    H133424   7.648   2.569   0.496 -0.6405  0.3617 -0.2844
11157TIP3    H233425   7.580   2.701   0.465 -1.8675 -0.0979  0.4340
11158TIP3   OH233426   3.051   2.279   4.982  0.2936 -0.4479  0.1505
11158TIP3    H133427   2.962   2.267   5.016 -0.7958 -0.5498 -2.6194
11158TIP3    H233428   3.092   2.340   5.044 -2.0105  0.3660  0.9316
11159TIP3   OH233429   3.168   4.940   0.426  0.5169  0.3570  0.2799
11159TIP3    H133430   3.212   4.866   0.385  0.7546  0.4936  0.2871
11159TIP3    H233431   3.239   4.989   0.468  0.3335  0.4746  0.4495
11160TIP3   OH233432   5.588   6.381   4.783  0.3330  0.0332  0.2677
11160TIP3    H133433   5.517   6.445   4.787  0.9804  0.7777 -0.0754
11160TIP3    H233434   5.590   6.342   4.870  0.3341  0.9199  0.6672
11161TIP3   OH233435   2.890   6.744   5.190 -0.4767 -0.2226 -0.7570
11161TIP3    H133436   2.915   6.772   5.278 -0.2973 -2.0682 -0.1968
11161TIP3    H233437   2.962   6.774   5.134  0.4011 -0.8116  0.0376
11162TIP3   OH233438   6.399   4.190   0.298  0.2540  0.6394 -0.1031
11162TIP3    H133439   6.408   4.106   0.343 -1.6524  0.6281  0.2857
11162TIP3    H233440   6.483   4.233   0.312  1.0268 -0.9171  0.2626
11163TIP3   OH233441  -0.001   6.895   6.431  0.1565  0.2218  0.4596
11163TIP3    H133442  -0.068   6.961   6.449 -0.6530  0.2312 -2.4464
11163TIP3    H233443   0.079   6.932   6.468 -0.6099  2.1110  0.2731
11164TIP3   OH233444   2.776   7.181   2.544  0.1854  0.0813 -0.2886
11164TIP3    H133445   2.835   7.162   2.472  1.4105 -0.3318  0.8068
11164TIP3    H233446   2.742   7.268   2.526  1.9291  0.7536 -0.4048
11165TIP3   OH233447   2.378   1.871   4.609 -0.3543 -0.4956 -0.2425
11165TIP3    H133448   2.346   1.811   4.676 -1.5721  2.1353  1.6376
11165TIP3    H233449   2.299   1.895   4.560 -0.0901  0.4673 -0.2003
11166TIP3   OH233450   1.133   7.217   3.122 -0.2293  0.5287 -0.5323
11166TIP3    H133451   1.227   7.211   3.137  0.0351  1.2770 -1.7904
11166TIP3    H233452   1.125   7.257   3.035 -1.7049  2.2018  0.3254
11167TIP3   OH233453   0.533   4.766   0.687  0.4010 -0.1117 -1.0739
11167TIP3    H133454   0.475   4.803   0.620 -1.0004 -0.4826 -0.0666
11167TIP3    H233455   0.485   4.775   0.769  2.2852  0.7303 -0.0159
11168TIP3   OH233456   6.898   4.551   1.637 -0.2870  0.0370 -0.7477
11168TIP3    H133457   6.952   4.471   1.637  1.9491  1.4966  1.0596
11168TIP3    H233458   6.931   4.602   1.710 -0.4878  3.4475 -2.9488
11169TIP3   OH233459   2.721   1.724   6.295  0.0463 -0.3187  0.6867
11169TIP3    H133460   2.759   1.769   6.372  1.4824 -0.6918  0.2143
11169TIP3    H233461   2.796   1.707   6.238 -1.0227  0.0242 -0.8543
11170TIP3   OH233462   2.580   0.722   4.362 -0.3936 -0.1205  0.0514
11170TIP3    H133463   2.603   0.740   4.271  2.6070 -0.4414  0.7002
11170TIP3    H233464   2.614   0.797   4.411 -1.8386 -0.0219  0.9276
11171TIP3   OH233465   3.938   1.462   3.958 -0.6304 -0.9699 -0.0152
11171TIP3    H133466   3.862   1.498   3.912 -0.3807 -0.6052 -0.1559
11171TIP3    H233467   3.913   1.373   3.981 -1.1649 -0.7913  0.0965
11172TIP3   OH233468   5.940   1.166   6.250 -0.2272  0.3245  1.0476
11172TIP3    H133469   5.989   1.238   6.211  1.3556 -1.0858  0.3688
11172TIP3    H233470   5.867   1.151   6.190  0.7496 -0.1367 -0.0442
11173TIP3   OH233471   7.331   4.699   0.086  0.0867 -0.5478  0.2592
11173TIP3    H133472   7.367   4.639   0.151  0.0540 -0.2260  0.5758
11173TIP3    H233473   7.260   4.651   0.045  1.7675 -1.7261 -1.3575
11174TIP3   OH233474   4.904   0.129   5.023 -0.2935 -0.6903 -0.2623
11174TIP3    H133475   4.970   0.110   5.090  0.3168  1.0601 -0.3217
11174TIP3    H233476   4.847   0.053   5.022 -0.4447 -0.6485  2.4185
11175TIP3   OH233477   0.762   6.255   5.578  0.0872 -0.1937  0.1172
11175TIP3    H133478   0.738   6.182   5.522  3.4559 -2.2695  1.2384
11175TIP3    H233479   0.837   6.296   5.535  1.1932 -0.3347  1.8396
11176TIP3   OH233480   7.805   5.522   6.304  0.2211  0.0503  0.6618
11176TIP3    H133481   7.718   5.490   6.279 -0.0449  0.0368  1.5693
11176TIP3    H233482   7.807   5.613   6.273 -0.3749  0.2624  1.2307
11177TIP3   OH233483   3.246   5.246   4.358  0.0625 -0.8119  0.0869
11177TIP3    H133484   3.267   5.321   4.303  1.0947 -0.8253  0.4566
11177TIP3    H233485   3.168   5.208   4.318  0.8936 -0.9168 -1.4426
11178TIP3   OH233486   6.096   0.960   4.118 -0.7752 -0.3106 -0.0444
11178TIP3    H133487   6.055   1.045   4.100  0.3859  0.0953 -0.7871
11178TIP3    H233488   6.188   0.981   4.135 -0.9646 -1.1612  2.1342
11179TIP3   OH233489   7.579   4.100   1.204  0.0093  0.5106  0.3416
11179TIP3    H133490   7.655   4.044   1.222  0.2323  0.7856  0.2554
11179TIP3    H233491   7.615   4.175   1.158 -0.6068 -0.3864 -1.6785
11180TIP3   OH233492   0.416   6.819   4.562  0.1722  0.7406 -0.2877
11180TIP3    H133493   0.391   6.815   4.654  1.1627 -1.1577 -0.0849
11180TIP3    H233494   0.336   6.796   4.515 -0.1810  1.1160  0.1318
11181TIP3   OH233495   7.882   4.159   1.377 -0.1227  0.2226 -0.1221
11181TIP3    H133496   7.887   4.065   1.396 -0.6015  0.4668  1.2774
11181TIP3    H233497   7.789   4.175   1.361  0.1134  0.2527 -1.4861
11182TIP3   OH233498   0.998   7.178   5.090 -0.5426  0.0154  0.4147
11182TIP3    H133499   0.929   7.244   5.103 -2.3917 -2.2034  2.4109
11182TIP3    H233500   0.975   7.133   5.009 -1.4586 -0.6940  1.0588
11183TIP3   OH233501   5.015   2.559   4.621  0.6461 -0.0462 -0.0665
11183TIP3    H133502   5.084   2.493   4.622  0.7727  0.0923  1.3069
11183TIP3    H233503   4.934   2.509   4.635  0.3682 -0.2925 -2.3664
11184TIP3   OH233504   3.075   1.989   6.026 -0.5373 -0.0842 -0.1422
11184TIP3    H133505   2.988   1.963   5.996 -0.5644 -1.5029  1.0995
11184TIP3    H233506   3.129   1.992   5.947 -0.7338 -3.1721 -0.4556
11185TIP3   OH233507   2.371   6.545   4.542  0.3838 -0.2124 -0.0031
11185TIP3    H133508   2.426   6.573   4.614  1.8534 -3.1628  0.0920
11185TIP3    H233509   2.416   6.575   4.463  0.1103  0.7255  0.1871
11186TIP3   OH233510   4.352   3.012   3.289 -0.3925 -0.2100 -0.1477
11186TIP3    H133511   4.432   3.036   3.336 -0.2356  0.0564 -0.5486
11186TIP3    H233512   4.306   2.954   3.349 -0.3365  0.3595  0.4621
11187TIP3   OH233513   1.079   4.370   0.617  0.1461 -0.3168 -0.3379
11187TIP3    H133514   1.168   4.335   0.607  0.4828  0.3915  0.1560
11187TIP3    H233515   1.053   4.396   0.528  0.8068  0.3761 -0.3326
11188TIP3   OH233516   7.129   3.860   0.900  0.1812  0.9366 -0.3585
11188TIP3    H133517   7.190   3.786   0.907  1.7013  2.2599  0.6618
11188TIP3    H233518   7.097   3.873   0.989 -0.1453  1.4565 -0.5528
11189TIP3   OH233519   3.955   6.581   5.156  0.1158  0.6126  0.2571
11189TIP3    H133520   3.891   6.652   5.150  0.8043  1.1099 -1.8281
11189TIP3    H233521   4.033   6.620   5.195 -0.7120  0.0902  2.4811
11190TIP3   OH233522   4.560   7.302   3.962  0.2608 -0.4337  0.1934
11190TIP3    H133523   4.560   7.222   3.909 -0.0698 -1.0576  1.1190
11190TIP3    H233524   4.498   7.360   3.918 -0.9724 -1.4291  0.5924
11191TIP3   OH233525   6.089   0.320   4.839 -0.0269  0.5256  0.2553
11191TIP3    H133526   6.071   0.392   4.779 -2.1446 -0.8046 -0.7625
11191TIP3    H233527   6.063   0.354   4.925  0.3407  1.4676 -0.0020
11192TIP3   OH233528   1.343   6.057   5.885  0.7362 -0.0361 -0.3398
11192TIP3    H133529   1.394   6.033   5.963  1.9620 -0.8465 -1.3722
11192TIP3    H233530   1.400   6.035   5.812 -0.3433  0.8863 -1.4721
11193TIP3   OH233531   1.339   6.626   5.285  0.1490  0.7459 -0.6449
11193TIP3    H133532   1.255   6.669   5.302  1.4088  4.0764 -2.3922
11193TIP3    H233533   1.403   6.696   5.293  2.5823 -1.3389 -1.3132
11194TIP3   OH233534   5.124   1.118   5.578 -0.2807 -0.4801 -0.2210
11194TIP3    H133535   5.150   1.158   5.661  1.6903 -3.5659  0.7661
11194TIP3    H233536   5.049   1.170   5.548  1.5864  3.2793  1.3386
11195TIP3   OH233537   5.225   2.278   4.329 -0.2574 -0.4039  0.3493
11195TIP3    H133538   5.261   2.283   4.417 -1.5016  0.2531  0.8264
11195TIP3    H233539   5.145   2.331   4.331 -0.6239 -0.8516 -1.0060
11196TIP3   OH233540   5.271   0.540   6.191  0.4134 -0.5851  0.2503
11196TIP3    H133541   5.344   0.594   6.220 -0.3841  0.4588  0.3434
11196TIP3    H233542   5.206   0.549   6.260  0.0906 -1.3045  0.0462
11197TIP3   OH233543   0.971   3.236   0.776 -0.0578  0.2764 -0.1045
11197TIP3    H133544   0.925   3.295   0.835  0.3077  1.5353 -1.0792
11197TIP3    H233545   0.997   3.290   0.702  0.1764 -1.1236 -1.0692
11198TIP3   OH233546   3.878   2.746   4.851  0.9760 -0.1965 -0.2377
11198TIP3    H133547   3.839   2.804   4.916  0.4378  0.4518 -1.1231
11198TIP3    H233548   3.923   2.679   4.902  0.2591  0.0986  0.8004
11199TIP3   OH233549   5.992   1.253   1.195  0.0350 -0.0510 -0.2222
11199TIP3    H133550   5.914   1.217   1.238  1.0653 -0.4582  1.3686
11199TIP3    H233551   6.000   1.342   1.230 -0.0508  0.2009 -0.8390
11200TIP3   OH233552   5.591   0.133   5.013 -0.7247  0.2205  0.1257
11200TIP3    H133553   5.665   0.086   5.051 -1.7673 -0.1442  1.7682
11200TIP3    H233554   5.629   0.212   4.974  0.4412  0.3847  1.5758
11201TIP3   OH233555   5.526   1.005   5.760  0.2187 -0.4548  0.5663
11201TIP3    H133556   5.477   1.040   5.834 -0.9446 -1.7634  0.4515
11201TIP3    H233557   5.562   0.923   5.792  0.6931 -0.4502  0.0427
11202TIP3   OH233558   0.401   4.787   0.021  0.2294 -0.5879  0.2084
11202TIP3    H133559   0.373   4.791   0.112  1.5918  1.0919  0.5893
11202TIP3    H233560   0.494   4.810   0.024  1.1495 -3.8663 -1.2429
11203TIP3   OH233561   1.730   0.947   5.199  0.2876 -0.5991 -0.1882
11203TIP3    H133562   1.815   0.934   5.156 -0.6140 -1.0067 -1.8922
11203TIP3    H233563   1.670   0.891   5.150 -1.0960  0.1721  0.6049
11204TIP3   OH233564   0.217   7.039   4.782  0.3227  0.4442  0.0127
11204TIP3    H133565   0.140   7.079   4.823 -0.2958  0.3104 -0.9902
11204TIP3    H233566   0.256   7.111   4.732  0.5099  0.3656  0.0502
11205TIP3   OH233567   6.573   3.391   0.889 -0.2248 -0.0415  0.1151
11205TIP3    H133568   6.551   3.460   0.827 -0.4948  0.1426  0.4146
11205TIP3    H233569   6.668   3.385   0.885 -0.3645 -1.7190 -2.1560
11206TIP3   OH233570   2.807   6.931   5.887  0.4418  0.3362  0.3404
11206TIP3    H133571   2.883   6.873   5.893 -0.9074 -1.4572  0.2754
11206TIP3    H233572   2.844   7.019   5.895  2.4790 -0.5280  0.7356
11207TIP3   OH233573   4.132   5.796   4.960 -0.1084  0.3737 -0.0208
11207TIP3    H133574   4.222   5.820   4.935 -0.7075  1.2374 -1.3875
11207TIP3    H233575   4.106   5.864   5.022 -0.6171  1.4196 -1.3600
11208TIP3   OH233576   1.147   3.647   0.453  0.2783 -0.4339 -0.2175
11208TIP3    H133577   1.191   3.564   0.471  0.4240 -0.1900  0.5607
11208TIP3    H233578   1.185   3.677   0.371  1.2568 -0.4264  0.2394
11209TIP3   OH233579   5.879   7.366   4.021  0.2874  0.5155 -0.1288
11209TIP3    H133580   5.788   7.392   4.006  0.2093  0.7493  0.7683
11209TIP3    H233581   5.898   7.394   4.110  0.9713 -0.3229 -0.0077
11210TIP3   OH233582   6.473   0.626   5.129 -0.3171 -0.6604  0.3241
11210TIP3    H133583   6.433   0.703   5.170 -1.3211 -0.0765 -1.6796
11210TIP3    H233584   6.406   0.594   5.068  1.2918 -1.2271 -1.1812
11211TIP3   OH233585   4.239   4.726   5.492 -0.2126  0.1568  0.5405
11211TIP3    H133586   4.236   4.808   5.442 -1.1808  0.2143  0.7012
11211TIP3    H233587   4.175   4.737   5.562  1.8335  0.4652  2.4252
11212TIP3   OH233588   0.501   1.256   4.411 -0.8827 -0.7531  0.6371
11212TIP3    H133589   0.492   1.259   4.315 -0.2227  1.1620  0.6233
11212TIP3    H233590   0.412   1.241   4.443 -1.0353 -1.9053 -0.2874
11213TIP3   OH233591   1.843   0.252   5.635  0.3648  0.0319 -0.4491
11213TIP3    H133592   1.884   0.242   5.549 -2.1967  0.8460 -1.8103
11213TIP3    H233593   1.798   0.336   5.631 -1.8982 -1.0677  0.7478
11214TIP3   OH233594   5.633   0.622   4.378  1.2388  0.2518 -0.1155
11214TIP3    H133595   5.579   0.671   4.317 -3.1702 -0.1989  3.1173
11214TIP3    H233596   5.621   0.530   4.352  0.5941  0.1694  0.4522
11215TIP3   OH233597   7.360   1.079   6.165  0.0805 -0.2199  0.2700
11215TIP3    H133598   7.407   1.023   6.226  0.1108 -0.8465 -0.3229
11215TIP3    H233599   7.422   1.147   6.141 -1.1092  2.3426  3.9217
11216TIP3   OH233600   4.663   5.693   5.673  0.1706 -0.4977 -0.3421
11216TIP3    H133601   4.744   5.658   5.710  0.0846 -1.7405 -1.2948
11216TIP3    H233602   4.618   5.616   5.638 -0.0604  0.5571 -2.4390
11217TIP3   OH233603   6.694   0.238   1.933 -0.3982 -0.0607  0.0050
11217TIP3    H133604   6.634   0.164   1.932 -1.6469  0.9329 -0.3437
11217TIP3    H233605   6.661   0.294   2.003  1.9368 -0.9458  1.8502
11218TIP3   OH233606   3.888   5.840   4.024  0.5103 -0.3970 -0.0791
11218TIP3    H133607   3.925   5.926   4.042  0.7196 -0.4622 -0.1891
11218TIP3    H233608   3.907   5.823   3.932  1.3530 -0.9778  0.1902
11219TIP3   OH233609   2.018   7.299   5.300  0.0299  0.5859  0.2265
11219TIP3    H133610   2.087   7.235   5.316  0.3073  0.7642 -0.2343
11219TIP3    H233611   2.024   7.360   5.373 -1.4614 -0.9487  1.6888
11220TIP3   OH233612   3.306   7.171   4.919  0.1670 -0.0065 -0.6529
11220TIP3    H133613   3.310   7.262   4.949  0.9072 -0.5301  0.8947
11220TIP3    H233614   3.375   7.164   4.854  0.6911  0.3313 -0.1447
11221TIP3   OH233615   7.060   7.239   4.167 -0.0275  0.4613 -0.5195
11221TIP3    H133616   7.084   7.147   4.157 -1.6061  0.1099 -1.2811
11221TIP3    H233617   7.049   7.251   4.261 -2.7086 -0.9337 -0.5955
11222TIP3   OH233618   4.145   6.043   4.295  0.3727  0.1425 -0.2246
11222TIP3    H133619   4.089   5.994   4.356  0.1240  0.3304 -0.3010
11222TIP3    H233620   4.166   6.124   4.342  1.7990 -0.5711  0.3999
11223TIP3   OH233621   6.160   1.263   4.835 -0.9047 -0.2250 -0.0567
11223TIP3    H133622   6.177   1.327   4.767  0.5664 -1.1237 -0.5614
11223TIP3    H233623   6.184   1.307   4.916  0.1038 -0.1270 -0.4011
11224TIP3   OH233624   7.536   2.958   0.106 -0.1268  0.0815 -0.3535
11224TIP3    H133625   7.556   2.997   0.191  0.0014 -0.2151 -0.2497
11224TIP3    H233626   7.568   2.868   0.112  2.9217  0.9741 -1.8444
11225TIP3   OH233627   7.705   0.176   5.378  0.4886  0.2833  0.3165
11225TIP3    H133628   7.798   0.196   5.363  0.5905 -0.6063 -0.3325
11225TIP3    H233629   7.706   0.103   5.440  0.2310  0.0340  0.0276
11226TIP3   OH233630   5.878   1.246   4.823 -0.3103  0.2960 -0.8717
11226TIP3    H133631   5.841   1.158   4.829 -0.1917  0.2756 -0.4424
11226TIP3    H233632   5.966   1.233   4.789  0.5409  0.0380  1.3171
11227TIP3   OH233633   0.769   4.925   0.720 -0.2281  0.0352  0.4399
11227TIP3    H133634   0.826   4.884   0.785  0.9327 -0.8698 -1.1022
11227TIP3    H233635   0.696   4.864   0.710  0.8495 -1.0617 -0.9085
11228TIP3   OH233636   3.724   7.438   2.567 -0.3543  0.0885 -0.3065
11228TIP3    H133637   3.800   7.483   2.531 -0.3451  1.0852  0.9332
11228TIP3    H233638   3.692   7.383   2.495  1.7852 -0.6624 -0.7002
11229TIP3   OH233639   2.099   4.727   0.118  0.4608  0.1764  0.0134
11229TIP3    H133640   2.008   4.733   0.091  1.0618  0.5724 -2.0019
11229TIP3    H233641   2.142   4.678   0.049  1.6078 -0.8800  1.4292
11230TIP3   OH233642   4.876   0.707   6.376 -0.0942 -0.3079 -0.1446
11230TIP3    H133643   4.838   0.751   6.300  1.5182  1.0875 -0.1912
11230TIP3    H233644   4.890   0.778   6.440 -1.8776 -1.5256  1.6622
11231TIP3   OH233645   3.023   6.114   3.314  0.1744  0.5000  0.0356
11231TIP3    H133646   3.054   6.198   3.348 -0.0956  0.2404  0.9417
11231TIP3    H233647   2.973   6.138   3.236 -0.8355  1.3006  0.9013
11232TIP3   OH233648   0.468   1.579   5.255  0.3640  1.1026 -0.2377
11232TIP3    H133649   0.440   1.633   5.329 -1.6305  0.0301 -0.1866
11232TIP3    H233650   0.452   1.633   5.178 -1.3007  0.7324 -0.1614
11233TIP3   OH233651   0.798   0.277   6.110  0.8447 -0.2430  0.0209
11233TIP3    H133652   0.844   0.202   6.073 -1.2052 -2.2231  1.3631
11233TIP3    H233653   0.777   0.333   6.035 -0.7106 -2.7633 -1.4720
11234TIP3   OH233654   6.787   0.278   4.925 -0.5794  0.0634  0.0630
11234TIP3    H133655   6.781   0.216   4.997  1.8081  0.0733  0.3228
11234TIP3    H233656   6.790   0.364   4.968 -0.4807  0.1463 -0.1092
11235TIP3   OH233657   1.838   6.757   5.219 -0.2110 -0.4333  0.3693
11235TIP3    H133658   1.759   6.770   5.167  0.9487 -0.7994 -1.5145
11235TIP3    H233659   1.821   6.677   5.269 -0.5759 -1.1860 -0.9362
11236TIP3   OH233660   4.657   5.233   5.065  0.5049 -0.6599 -0.4331
11236TIP3    H133661   4.653   5.292   4.989 -1.5014  1.0380  0.9303
11236TIP3    H233662   4.704   5.283   5.131 -1.5699 -0.3693  0.8679
11237TIP3   OH233663   5.899   3.192   6.032  0.3708 -0.0066 -0.2424
11237TIP3    H133664   5.945   3.119   5.989 -0.8675 -0.1999 -1.2722
11237TIP3    H233665   5.857   3.151   6.108 -1.2815 -0.6412 -1.4583
11238TIP3   OH233666   1.276  -0.016   3.199  0.8878 -0.2726  0.0990
11238TIP3    H133667   1.331  -0.053   3.268  0.2693  0.1429  0.8286
11238TIP3    H233668   1.268   0.077   3.223  0.7127 -0.1146 -0.5639
11239TIP3   OH233669   6.136   7.151   5.397  0.1165  0.2733 -0.8933
11239TIP3    H133670   6.219   7.199   5.395 -0.3746  1.4602  3.0107
11239TIP3    H233671   6.082   7.196   5.332  1.1551  2.1685 -0.4904
11240TIP3   OH233672   0.482   0.100   3.763 -0.3165  0.5049  0.2143
11240TIP3    H133673   0.440   0.051   3.833 -1.4282 -0.6949 -1.2349
11240TIP3    H233674   0.443   0.064   3.683  1.6344  1.1533 -1.0525
11241TIP3   OH233675   5.632   1.722   4.355 -0.0062 -0.1879 -0.4174
11241TIP3    H133676   5.551   1.755   4.316 -0.3266 -1.3410 -0.7541
11241TIP3    H233677   5.619   1.731   4.450 -1.6031 -2.7613 -0.3544
11242TIP3   OH233678   1.916   7.306   4.462  0.5208  0.3849 -0.3309
11242TIP3    H133679   2.001   7.347   4.445  0.2435  1.0838 -0.0276
11242TIP3    H233680   1.877   7.296   4.375  0.2705  1.4434 -0.3395
11243TIP3   OH233681   4.685   6.102   5.347 -0.0690  0.1245 -0.7971
11243TIP3    H133682   4.633   6.065   5.419  0.0542 -1.8924 -1.7255
11243TIP3    H233683   4.747   6.160   5.390 -0.5279 -0.4416  0.6655
11244TIP3   OH233684   4.167   6.731   5.417 -0.5192  0.0042 -0.4871
11244TIP3    H133685   4.163   6.696   5.506  1.1693  2.0947  0.4510
11244TIP3    H233686   4.240   6.684   5.376 -1.0925 -0.7263 -0.6971
11245TIP3   OH233687   7.187   0.863   4.438  0.1642 -0.6484  0.1330
11245TIP3    H133688   7.184   0.909   4.353  1.8018 -1.5234 -0.4281
11245TIP3    H233689   7.178   0.933   4.503  2.5107  0.5178 -0.7147
11246TIP3   OH233690   4.734   6.859   5.659  0.0871  0.1356  0.6838
11246TIP3    H133691   4.655   6.867   5.713  0.0658 -0.5207  0.7589
11246TIP3    H233692   4.704   6.814   5.580  0.2232  0.6352  0.3477
11247TIP3   OH233693   5.323   0.696   5.094  0.4656 -0.3009  0.0155
11247TIP3    H133694   5.281   0.781   5.081  1.0941 -0.0926 -0.6311
11247TIP3    H233695   5.381   0.709   5.169  0.7441 -0.0922 -0.2356
11248TIP3   OH233696   7.456   0.903   4.794 -0.0077  0.2584 -0.1914
11248TIP3    H133697   7.515   0.947   4.855 -0.6984  3.2252 -1.5470
11248TIP3    H233698   7.369   0.932   4.820 -0.4869 -0.3381 -1.1075
11249TIP3   OH233699   5.809   2.136   4.466 -0.4197  0.0035 -0.3380
11249TIP3    H133700   5.831   2.173   4.552  0.8177  1.3807 -1.2290
11249TIP3    H233701   5.715   2.117   4.472 -1.4915  4.6234 -0.2518
11250TIP3   OH233702   5.347   0.648   5.785  0.2792  0.3743  0.3023
11250TIP3    H133703   5.293   0.722   5.757 -1.0920 -0.7340 -0.0305
11250TIP3    H233704   5.302   0.614   5.863  1.2306  0.2601  0.8090
11251TIP3   OH233705   1.369   5.233   1.095  0.5688 -0.7577  0.6012
11251TIP3    H133706   1.354   5.236   1.001  0.7468  0.4050  0.5997
11251TIP3    H233707   1.404   5.145   1.111 -1.4351 -1.7097 -0.1015
11252TIP3   OH233708   7.565   1.696   5.115  0.2322  0.5488 -0.0988
11252TIP3    H133709   7.480   1.719   5.079  0.0225  1.3844  0.8914
11252TIP3    H233710   7.617   1.670   5.039 -0.9561 -0.1467 -0.6873
11253TIP3   OH233711   1.314   3.130   0.411  0.0823  0.1877 -0.6431
11253TIP3    H133712   1.366   3.170   0.480 -0.3557  2.1127 -1.4141
11253TIP3    H233713   1.359   3.047   0.393  0.5831 -0.0235  1.4641
11254TIP3   OH233714   3.375   6.959   5.143  0.0165 -0.3150  0.0736
11254TIP3    H133715   3.365   7.003   5.059  1.7879 -0.9495 -0.4941
11254TIP3    H233716   3.441   7.011   5.189  1.3958 -1.7943 -0.2121
11255TIP3   OH233717   1.807   1.974   1.571  0.4310 -0.2277 -0.0128
11255TIP3    H133718   1.743   1.909   1.599 -1.0839  1.2038 -0.0894
11255TIP3    H233719   1.830   2.021   1.651 -0.3682  0.7848 -0.3733
11256TIP3   OH233720   0.207   6.573   6.234  0.4912 -0.3131 -0.3397
11256TIP3    H133721   0.184   6.483   6.258  0.3518 -0.5082 -1.1874
11256TIP3    H233722   0.247   6.565   6.147  0.7038  0.4179 -0.3134
11257TIP3   OH233723   2.350   4.168   1.387  0.4913 -0.1028 -0.4067
11257TIP3    H133724   2.421   4.178   1.450 -2.5869 -0.5020  3.3301
11257TIP3    H233725   2.318   4.079   1.401 -3.1739  1.3104  0.8220
11258TIP3   OH233726   2.540   3.624   1.901  0.1781 -0.0764 -0.2014
11258TIP3    H133727   2.521   3.574   1.821 -0.6122  0.3753 -0.2993
11258TIP3    H233728   2.476   3.593   1.964  1.7496 -1.5177  0.7305
11259TIP3   OH233729   0.981   2.722   1.724  0.3839  0.0652 -0.4580
11259TIP3    H133730   1.049   2.747   1.662 -1.0943 -0.0131 -2.1378
11259TIP3    H233731   0.929   2.801   1.736 -0.2051 -0.3247 -0.4442
11260TIP3   OH233732   7.830   1.338   4.410 -0.8155 -0.2681 -0.1388
11260TIP3    H133733   7.904   1.301   4.361 -0.8627 -1.3966  0.6125
11260TIP3    H233734   7.760   1.346   4.345 -0.9767 -2.0333 -0.2076
11261TIP3   OH233735   5.854   0.739   4.503 -0.1217  0.5422  0.1852
11261TIP3    H133736   5.780   0.679   4.494  0.3107  0.0514 -0.0835
11261TIP3    H233737   5.916   0.712   4.436  1.4129 -0.6842  2.0576
11262TIP3   OH233738   0.566   0.054   5.397 -0.2403  0.4493 -0.0501
11262TIP3    H133739   0.492   0.080   5.452  0.3760  1.5960  0.2603
11262TIP3    H233740   0.615  -0.008   5.450 -0.9527 -0.2969 -0.2476
11263TIP3   OH233741   2.711   5.852   0.794  0.3083  0.2008 -0.5327
11263TIP3    H133742   2.649   5.784   0.822  0.0132  0.0523 -1.5188
11263TIP3    H233743   2.793   5.829   0.837  0.2884 -0.9580 -1.1139
11264TIP3   OH233744   0.554   1.067   3.757 -0.2947 -0.8716  0.5249
11264TIP3    H133745   0.622   1.061   3.691 -1.8325  1.6419 -1.3960
11264TIP3    H233746   0.591   1.024   3.834  3.7931  1.2279 -0.1380
11265TIP3   OH233747   6.677   0.169   6.034  0.3465  0.0330 -0.0553
11265TIP3    H133748   6.612   0.124   5.981  1.2475  2.1162 -3.0885
11265TIP3    H233749   6.630   0.244   6.071  0.1003 -0.5514  0.8161
11266TIP3   OH233750   7.684   2.566   4.655 -0.3837  0.0013  0.2129
11266TIP3    H133751   7.708   2.520   4.575  0.9189  0.7593  0.1519
11266TIP3    H233752   7.696   2.659   4.633  0.8229  0.1774  1.5345
11267TIP3   OH233753   3.041   7.067   5.569 -0.2876  0.0242 -0.3762
11267TIP3    H133754   3.085   7.016   5.637  1.3837  0.6140 -0.9934
11267TIP3    H233755   3.049   7.158   5.597 -1.2196  0.1420 -0.4499
11268TIP3   OH233756   2.391   0.421   5.445 -0.3436 -0.0045  0.4868
11268TIP3    H133757   2.390   0.469   5.528 -0.8729 -1.0393  1.1064
11268TIP3    H233758   2.392   0.488   5.377  0.6881  0.8499  1.3427
11269TIP3   OH233759   6.006   6.972   4.991 -0.6778  0.1138  0.0045
11269TIP3    H133760   6.028   7.023   4.913 -3.1653  1.1993 -0.0419
11269TIP3    H233761   6.010   6.881   4.963 -0.5691  0.4636 -1.1137
11270TIP3   OH233762   0.795   7.292   4.157 -0.4759 -0.0953 -0.1671
11270TIP3    H133763   0.863   7.261   4.097 -1.5599 -0.9550 -0.9913
11270TIP3    H233764   0.729   7.223   4.154 -1.2279  0.5769  0.8645
11271TIP3   OH233765   1.009   4.459   0.893  0.0964 -0.2337 -0.0293
11271TIP3    H133766   1.088   4.507   0.917 -0.2724 -0.2328  1.2094
11271TIP3    H233767   1.027   4.425   0.805  1.3000  0.1228  0.0759
11272TIP3   OH233768   0.073   1.798   5.443  0.2277 -0.6960 -0.0989
11272TIP3    H133769   0.047   1.740   5.372  0.4825  0.2288 -0.9662
11272TIP3    H233770   0.156   1.836   5.414  0.9181 -1.1754  1.2052
11273TIP3   OH233771   7.828   0.514   5.871 -0.6617 -0.4133  0.3285
11273TIP3    H133772   7.771   0.586   5.897  0.7159  0.8782 -0.2109
11273TIP3    H233773   7.773   0.460   5.814 -1.4938  0.5823  0.1768
11274TIP3   OH233774   5.392   6.425   3.671  0.2526  0.1013 -0.3282
11274TIP3    H133775   5.409   6.502   3.725  1.6260  0.2466 -0.9440
11274TIP3    H233776   5.318   6.450   3.616  0.4428  0.8335 -0.2553
11275TIP3   OH233777   5.182   6.232   4.340  0.2382 -0.0426 -0.5757
11275TIP3    H133778   5.151   6.297   4.403 -0.8017  0.9213 -2.0395
11275TIP3    H233779   5.169   6.273   4.254 -2.3356 -2.9061 -1.6688
11276TIP3   OH233780   4.569   6.125   4.793  0.2414 -0.4761  0.0781
11276TIP3    H133781   4.588   6.123   4.887  1.2287 -1.3208 -0.1283
11276TIP3    H233782   4.482   6.164   4.787  1.2733  2.1099  1.1678
11277TIP3   OH233783   2.917   5.970   4.598  0.2889 -0.3339  0.0583
11277TIP3    H133784   2.906   5.942   4.508  0.9287 -2.2512  0.5611
11277TIP3    H233785   2.902   6.065   4.596  2.4586  0.0032 -2.4428
11278TIP3   OH233786   4.921   1.792   4.949  0.6878 -0.1575  0.5989
11278TIP3    H133787   4.973   1.842   4.885 -1.6018  0.5488 -0.7702
11278TIP3    H233788   4.912   1.705   4.910 -1.7091  0.6164 -0.6602
11279TIP3   OH233789   6.176   1.003   4.786 -0.2077 -0.1029  0.7480
11279TIP3    H133790   6.148   0.988   4.695 -0.2395 -0.0801  0.7535
11279TIP3    H233791   6.163   1.097   4.799 -1.8064 -0.3833  1.3106
11280TIP3   OH233792   1.069   0.596   5.277 -0.0566  0.1664 -0.0625
11280TIP3    H133793   1.098   0.525   5.334 -0.2021 -0.8966 -1.2881
11280TIP3    H233794   1.082   0.563   5.188 -0.1479  1.6634 -0.6581
11281TIP3   OH233795   5.785   1.419   1.713 -0.5207 -0.2135 -0.6367
11281TIP3    H133796   5.704   1.421   1.662 -0.5053  1.0491 -0.6309
11281TIP3    H233797   5.853   1.443   1.650 -0.0020 -2.2858 -0.8905
11282TIP3   OH233798   7.416   0.184   4.301 -0.3339  0.0840 -0.3097
11282TIP3    H133799   7.426   0.179   4.206  0.8920  1.8953 -0.3086
11282TIP3    H233800   7.397   0.276   4.318 -1.1073 -0.3315  1.1678
11283TIP3   OH233801   3.077   7.335   5.713 -0.1858 -0.0057  0.0037
11283TIP3    H133802   3.161   7.376   5.733 -0.2810  0.8268 -1.2728
11283TIP3    H233803   3.051   7.372   5.629 -1.1114 -1.3841 -0.3427
11284TIP3   OH233804   4.336   6.781   6.299 -0.3773 -0.4471 -0.0067
11284TIP3    H133805   4.424   6.765   6.332  0.1426  1.1921 -0.5324
11284TIP3    H233806   4.311   6.700   6.255  1.1311 -0.6730 -0.4529
11285TIP3   OH233807   6.782   1.394   2.914  0.1920 -0.1365  0.1035
11285TIP3    H133808   6.727   1.370   2.988 -1.1508  0.5993 -0.6325
11285TIP3    H233809   6.784   1.489   2.915  0.2078 -0.1213 -0.7787
11286TIP3   OH233810   6.620   1.448   4.620  0.4051 -0.6195 -0.8680
11286TIP3    H133811   6.619   1.489   4.707 -1.7258  1.5932 -1.8415
11286TIP3    H233812   6.586   1.360   4.635 -2.7141  0.6637  0.2254
11287TIP3   OH233813   3.818   6.046   6.044  0.0427 -0.6752 -0.0176
11287TIP3    H133814   3.823   5.975   5.980 -0.1972 -1.6097  0.9944
11287TIP3    H233815   3.746   6.101   6.012  0.6336 -0.5349 -1.1422
11288TIP3   OH233816   0.619   1.862   2.519 -0.3007  0.4145  0.0595
11288TIP3    H133817   0.694   1.918   2.500  0.0095  1.0108  2.7188
11288TIP3    H233818   0.657   1.774   2.525 -0.1511  0.4368 -0.5815
11289TIP3   OH233819   7.629   3.379   4.062  0.1661  0.4556 -0.0968
11289TIP3    H133820   7.634   3.300   4.116 -1.6968  1.2214  1.2572
11289TIP3    H233821   7.653   3.450   4.122  2.1323  0.9200 -1.3820
11290TIP3   OH233822   2.643   0.320   1.792 -0.0491  0.0310  0.1438
11290TIP3    H133823   2.619   0.292   1.703 -0.0103 -0.7928  0.3938
11290TIP3    H233824   2.559   0.328   1.838 -0.1914  1.9678 -0.4002
11291TIP3   OH233825   7.700   0.496   5.125  0.0345 -0.0007 -0.2016
11291TIP3    H133826   7.640   0.551   5.075 -1.2156  1.0228  2.3310
11291TIP3    H233827   7.648   0.420   5.149  0.9007 -0.9253 -1.2189
11292TIP3   OH233828   2.122   2.285   2.892  0.2738  0.2755  0.1531
11292TIP3    H133829   2.195   2.277   2.953 -1.2415 -1.5604  1.7717
11292TIP3    H233830   2.113   2.379   2.878  4.3527  0.4698 -1.8710
11293TIP3   OH233831   1.589   0.190   5.047 -0.1452 -0.1940 -0.1309
11293TIP3    H133832   1.665   0.201   4.989  0.9610  1.6281  1.5931
11293TIP3    H233833   1.584   0.096   5.063  1.4068 -0.3897 -0.7375
11294TIP3   OH233834   1.220   2.669   3.816  0.2359  0.8265 -0.3861
11294TIP3    H133835   1.228   2.700   3.907  2.2909  2.2167 -0.9971
11294TIP3    H233836   1.295   2.611   3.805 -0.3575  0.1838 -1.0217
11295TIP3   OH233837   6.830   0.992   4.742 -0.6137  0.4880  0.5454
11295TIP3    H133838   6.788   1.034   4.817 -2.7296  1.8246 -1.3165
11295TIP3    H233839   6.836   1.061   4.676  1.1922 -0.6628 -0.5548
11296TIP3   OH233840   1.550   2.203   1.735  0.1013 -0.2778  0.6904
11296TIP3    H133841   1.478   2.250   1.777 -0.6727 -0.3920 -0.4822
11296TIP3    H233842   1.588   2.149   1.804  0.9192  1.9476  2.0304
11297TIP3   OH233843   0.797   2.283   6.014  0.2018 -0.3612 -0.0947
11297TIP3    H133844   0.790   2.264   5.920  0.3258 -0.5057 -0.0758
11297TIP3    H233845   0.828   2.201   6.053  1.6545  0.1493 -0.1423
11298TIP3   OH233846   0.528   1.292   5.214 -0.1628  0.0989 -0.4526
11298TIP3    H133847   0.514   1.291   5.119 -1.0017 -0.8070 -0.3193
11298TIP3    H233848   0.537   1.385   5.236 -0.0795  0.3186 -1.3968
11299TIP3   OH233849   0.879   1.409   5.766  0.2144  0.2928 -0.1384
11299TIP3    H133850   0.819   1.466   5.813  1.6121  2.2986 -0.7356
11299TIP3    H233851   0.963   1.422   5.810  0.3592 -2.0599  0.3476
11300TIP3   OH233852   6.515   7.425   4.823 -0.0532 -0.6661  0.1387
11300TIP3    H133853   6.547   7.511   4.853  0.3151 -1.2580  1.4828
11300TIP3    H233854   6.588   7.365   4.842 -0.5749 -1.3923 -0.1535
11301TIP3   OH233855   7.823   2.498   3.227  0.3166 -0.0852  0.5697
11301TIP3    H133856   7.916   2.522   3.226 -0.3097  2.6442  2.4313
11301TIP3    H233857   7.794   2.511   3.136  1.7921 -1.2744 -0.0993
11302TIP3   OH233858   2.372   1.369   4.932  0.2911 -0.3087  0.3899
11302TIP3    H133859   2.326   1.311   4.871  0.1258 -0.6005  0.7881
11302TIP3    H233860   2.462   1.373   4.898  0.7676 -2.1996  1.3116
11303TIP3   OH233861   2.910   2.416   3.464  0.4458 -0.4581  0.6477
11303TIP3    H133862   2.836   2.398   3.407  0.5198 -0.0538  0.4229
11303TIP3    H233863   2.962   2.336   3.462  0.5618 -0.3698 -0.0290
11304TIP3   OH233864   7.340   1.443   3.425 -0.3162  0.1075  0.0404
11304TIP3    H133865   7.414   1.390   3.454  0.5256  1.6969  0.8674
11304TIP3    H233866   7.298   1.473   3.506 -1.1808  0.1713 -0.4194
11305TIP3   OH233867   1.388   1.899   3.713  0.3701 -0.1216 -0.6652
11305TIP3    H133868   1.465   1.859   3.753  1.0000  1.4964 -0.2479
11305TIP3    H233869   1.315   1.871   3.769  0.6888 -1.2937 -0.8172
11306TIP3   OH233870   2.200   1.647   4.274  0.0001 -0.2538  0.0973
11306TIP3    H133871   2.128   1.607   4.322 -1.4797 -0.9171 -2.5849
11306TIP3    H233872   2.259   1.575   4.253  0.0941 -0.1368 -0.0471
11307TIP3   OH233873   7.605   0.746   3.471  0.2655  0.1920  0.0410
11307TIP3    H133874   7.577   0.837   3.461 -1.4884 -0.2336  0.8804
11307TIP3    H233875   7.601   0.710   3.383  0.1351  0.6985 -0.1624
11308TIP3   OH233876   0.439   0.436   1.258 -0.2628 -0.6435 -0.1833
11308TIP3    H133877   0.404   0.454   1.345 -1.6337  0.3669 -0.9330
11308TIP3    H233878   0.526   0.475   1.259 -0.8820  0.7424  0.2232
11309TIP3   OH233879   0.812   2.039   2.446 -0.4999 -0.5955 -0.3743
11309TIP3    H133880   0.884   2.064   2.505 -0.3706 -0.2218 -0.6818
11309TIP3    H233881   0.849   2.052   2.358 -1.6651  1.7843 -0.5534
11310TIP3   OH233882   6.778   6.434   2.908  0.2623 -0.1589  0.3954
11310TIP3    H133883   6.820   6.497   2.967  0.8785  0.3909 -0.6186
11310TIP3    H233884   6.840   6.362   2.900  0.2407 -0.1678  0.3030
11311TIP3   OH233885   4.976   6.813   4.040 -0.1609  0.3585 -0.1221
11311TIP3    H133886   5.024   6.810   4.123 -1.3732 -0.4856  0.5684
11311TIP3    H233887   4.884   6.818   4.066 -0.4415  2.5368 -1.4321
11312TIP3   OH233888   2.208   1.715   5.410  0.4798  0.0634  0.2110
11312TIP3    H133889   2.259   1.668   5.345 -0.0566 -1.6665  1.0026
11312TIP3    H233890   2.120   1.677   5.404  0.0366  0.9490  0.8789
11313TIP3   OH233891   2.395   4.538   0.133  0.1660 -0.4934 -0.2086
11313TIP3    H133892   2.489   4.549   0.146  0.4435 -1.5185 -1.2391
11313TIP3    H233893   2.360   4.519   0.220  1.1539 -1.7686 -0.0883
11314TIP3   OH233894   1.755   5.453   0.267  0.1901  0.7443 -0.3944
11314TIP3    H133895   1.689   5.395   0.305  0.4993  0.2104 -0.6636
11314TIP3    H233896   1.837   5.405   0.277  0.5017  1.3076 -0.2679
11315TIP3   OH233897   5.819   7.445   3.407 -0.9004 -0.2464 -0.4151
11315TIP3    H133898   5.746   7.495   3.444 -0.8567 -0.9851  0.6881
11315TIP3    H233899   5.783   7.403   3.329 -1.4630 -0.0610 -0.2551
11316TIP3   OH233900   7.286   1.511   2.549 -0.0934  0.5024 -0.2457
11316TIP3    H133901   7.363   1.563   2.526  1.0507 -1.3677 -0.7643
11316TIP3    H233902   7.228   1.518   2.473  0.3610  0.4535 -0.5969
11317TIP3   OH233903   6.399   4.690   4.358 -0.5074 -0.0709 -0.2207
11317TIP3    H133904   6.424   4.647   4.276 -1.3392  1.4660 -1.3061
11317TIP3    H233905   6.308   4.716   4.344 -0.7655 -0.1184  1.3396
11318TIP3   OH233906   0.275   0.061   1.867 -0.4513 -0.0714 -0.3204
11318TIP3    H133907   0.256   0.104   1.950 -1.9683  0.7669 -1.0872
11318TIP3    H233908   0.299   0.131   1.807  1.6488 -0.7696 -0.3540
11319TIP3   OH233909   6.387   5.672   2.689 -0.2347 -0.2377  0.5229
11319TIP3    H133910   6.344   5.629   2.763 -0.4029  0.6967  0.9716
11319TIP3    H233911   6.380   5.608   2.617  0.5910 -1.4608  1.5038
11320TIP3   OH233912   5.380   6.541   4.808 -0.1138  0.8484  0.1665
11320TIP3    H133913   5.292   6.579   4.806 -0.6310 -0.2983  0.7848
11320TIP3    H233914   5.435   6.610   4.844 -0.7380  1.6065 -0.3016
11321TIP3   OH233915   7.529   5.027   1.820  0.3936  0.2352  0.1235
11321TIP3    H133916   7.544   5.079   1.741  1.4322 -0.4835 -0.1683
11321TIP3    H233917   7.469   5.079   1.872  2.3949  2.3211  0.4145
11322TIP3   OH233918   4.416   2.888   4.591  0.3634 -0.5178 -0.6545
11322TIP3    H133919   4.482   2.881   4.522 -1.6749 -1.8589 -2.5501
11322TIP3    H233920   4.393   2.980   4.594  1.4249 -0.2413 -0.8344
11323TIP3   OH233921   2.834   1.592   0.993 -0.0219 -0.2147  0.2134
11323TIP3    H133922   2.822   1.550   0.908  0.3403  0.7669 -0.3257
11323TIP3    H233923   2.910   1.548   1.031 -0.3276 -0.8155  0.1432
11324TIP3   OH233924   0.571   6.626   0.777 -0.3114 -0.0354 -0.1915
11324TIP3    H133925   0.632   6.682   0.728 -1.4360  0.2350 -1.3394
11324TIP3    H233926   0.627   6.569   0.829  0.9061  0.5367 -0.8355
11325TIP3   OH233927   1.990   6.285   0.572  0.3574  0.2073  0.4039
11325TIP3    H133928   2.018   6.260   0.484  3.6602 -2.5462  2.0956
11325TIP3    H233929   2.032   6.370   0.587  1.1549 -0.0958 -0.0691
11326TIP3   OH233930   3.518   5.593   1.867  0.3529 -0.1604 -0.0606
11326TIP3    H133931   3.603   5.550   1.855  1.1090  0.4027  2.7830
11326TIP3    H233932   3.537   5.686   1.854 -0.0381 -0.1381 -0.4551
11327TIP3   OH233933   0.804   4.887   1.300 -0.0731 -0.7351  0.3832
11327TIP3    H133934   0.734   4.933   1.253 -0.6641 -0.6670  1.3112
11327TIP3    H233935   0.790   4.795   1.279 -0.1449 -0.6781  0.1755
11328TIP3   OH233936   7.126   7.194   1.105  0.0001  0.0444  0.3182
11328TIP3    H133937   7.221   7.183   1.103  0.0703  0.6350  0.4838
11328TIP3    H233938   7.101   7.172   1.195 -0.1114 -0.8347  0.0804
11329TIP3   OH233939   1.381   6.624   0.035 -0.2490 -0.1229  0.0548
11329TIP3    H133940   1.367   6.563   0.107  1.8037 -1.4506 -0.6321
11329TIP3    H233941   1.431   6.696   0.075 -1.5296  0.5017  0.5636
11330TIP3   OH233942   1.838   7.459   2.645 -0.4782 -0.1413  0.9279
11330TIP3    H133943   1.900   7.395   2.681  0.2128 -0.6763 -1.1290
11330TIP3    H233944   1.862   7.466   2.553 -2.7798  0.5055  0.3504
11331TIP3   OH233945   0.647   5.371   0.536  0.4631 -0.1449 -0.0500
11331TIP3    H133946   0.694   5.395   0.456  0.5671  0.1988  0.1155
11331TIP3    H233947   0.645   5.451   0.588  0.4775 -0.3938  0.3340
11332TIP3   OH233948   6.524   6.008   0.116  0.1300  0.3043  0.6783
11332TIP3    H133949   6.587   5.936   0.119  0.5797  0.5900 -1.0334
11332TIP3    H233950   6.564   6.072   0.058 -1.2035  1.0213  0.5305
11333TIP3   OH233951   0.885   7.078   1.206  0.1558  0.5897  0.2532
11333TIP3    H133952   0.826   7.060   1.133  2.4335  1.4199 -1.8696
11333TIP3    H233953   0.920   6.993   1.230  1.7048  0.6222 -1.7136
11334TIP3   OH233954  -0.014   6.517   2.712 -0.9016  0.1292 -0.0318
11334TIP3    H133955   0.063   6.512   2.768 -0.7058  1.7962 -0.1132
11334TIP3    H233956  -0.043   6.427   2.701 -0.0791 -0.3309  1.5533
11335TIP3   OH233957   1.011   5.461   0.902  0.1253  0.5522 -0.6019
11335TIP3    H133958   0.963   5.383   0.873 -2.6017  1.5920  0.9056
11335TIP3    H233959   1.047   5.437   0.987 -3.7746  1.9590  1.6100
11336TIP3   OH233960   4.355   2.915   5.272 -0.6927  0.1526  0.2220
11336TIP3    H133961   4.360   3.001   5.314  1.1302  0.3593 -0.3573
11336TIP3    H233962   4.439   2.906   5.226 -1.5897 -1.1707 -1.2121
11337TIP3   OH233963   2.055   6.854   2.500 -0.8172  0.0310  0.0009
11337TIP3    H133964   2.066   6.827   2.591  1.0214  0.7070  0.0036
11337TIP3    H233965   2.002   6.934   2.504  1.3845  1.4903  0.6970
11338TIP3   OH233966   3.187   0.154   1.119 -0.3319 -0.3962 -0.4764
11338TIP3    H133967   3.247   0.081   1.133  0.1233  0.0064 -0.2872
11338TIP3    H233968   3.119   0.143   1.185 -0.3822 -0.7755 -0.5949
11339TIP3   OH233969   7.849   5.017   0.950 -0.3779 -0.1728 -0.1686
11339TIP3    H133970   7.894   4.979   1.025  0.9161  0.0834 -0.8009
11339TIP3    H233971   7.822   5.103   0.980  0.9541  0.2986 -0.2690
11340TIP3   OH233972   3.732   0.306   0.751  0.3905 -0.5204 -0.2482
11340TIP3    H133973   3.788   0.306   0.829  0.8284 -1.9119 -0.5428
11340TIP3    H233974   3.643   0.300   0.785  0.4762  0.6674  0.1944
11341TIP3   OH233975   4.391   1.718   6.446 -0.4202 -0.5712  0.2173
11341TIP3    H133976   4.336   1.786   6.485 -1.8675 -1.6753  0.1580
11341TIP3    H233977   4.461   1.766   6.402 -1.4608  0.8732  0.0878
11342TIP3   OH233978   7.713   5.248   1.734  0.3531  0.5935  0.0550
11342TIP3    H133979   7.698   5.201   1.816  0.9755  0.9928  0.3980
11342TIP3    H233980   7.730   5.338   1.760 -1.3667  1.1347 -0.6416
11343TIP3   OH233981   5.930   4.859   0.533 -0.2347  0.3576  0.0175
11343TIP3    H133982   5.989   4.893   0.466 -0.1642  0.5363  0.1705
11343TIP3    H233983   5.860   4.923   0.539 -0.2770  0.3068  0.0656
11344TIP3   OH233984   2.117   6.118   1.738 -0.0755 -0.1186  0.0486
11344TIP3    H133985   2.157   6.032   1.728 -0.2843 -0.7886  3.9838
11344TIP3    H233986   2.058   6.126   1.664 -0.1465 -3.4443 -0.3316
11345TIP3   OH233987   1.838   5.290   1.540  0.5138 -0.5812 -0.2853
11345TIP3    H133988   1.773   5.357   1.561 -0.1819 -0.7608 -1.7415
11345TIP3    H233989   1.893   5.330   1.473  1.3384 -0.7653  0.2722
11346TIP3   OH233990   1.734   1.286   0.434  0.3649 -0.3999  0.2042
11346TIP3    H133991   1.772   1.201   0.458 -1.1709 -0.6165  1.9749
11346TIP3    H233992   1.725   1.332   0.518 -0.1597  0.9378 -0.5816
11347TIP3   OH233993   1.319   6.905   0.999 -0.6306 -0.0553  0.8094
11347TIP3    H133994   1.275   6.869   1.076 -0.9656 -1.2341  0.0704
11347TIP3    H233995   1.261   6.886   0.926  0.1970  0.0921  0.1017
11348TIP3   OH233996   4.617   4.375   5.693  0.2983 -0.4400  0.3974
11348TIP3    H133997   4.649   4.303   5.639 -0.9472 -0.7831  0.1047
11348TIP3    H233998   4.543   4.338   5.741 -1.6839  1.2091 -1.2975
11349TIP3   OH233999   3.052   1.217   1.155  0.4521  0.7282  0.2842
11349TIP3    H134000   3.063   1.169   1.237 -0.7255  2.1832  1.3356
11349TIP3    H234001   2.991   1.165   1.104  0.7221  0.1097  0.5939
11350TIP3   OH234002   5.227   2.323   6.268  0.3616  0.1648  0.5376
11350TIP3    H134003   5.292   2.281   6.211 -1.4698 -0.9396 -0.7879
11350TIP3    H234004   5.243   2.286   6.354  1.6899  0.1325  0.2846
11351TIP3   OH234005   5.751   6.751   0.390 -0.7581  0.5783 -0.1302
11351TIP3    H134006   5.713   6.829   0.431 -0.3341  1.0198 -0.5611
11351TIP3    H234007   5.844   6.773   0.379 -0.5653 -0.1265  0.0697
11352TIP3   OH234008   0.175   0.167   2.129 -0.0827  0.6814 -0.6207
11352TIP3    H134009   0.217   0.232   2.184 -0.1561 -0.8888  1.3569
11352TIP3    H234010   0.101   0.213   2.088 -0.6371  1.6222  1.3962
11353TIP3   OH234011   2.500   0.080   1.950 -0.0652 -0.5989  0.2605
11353TIP3    H134012   2.516  -0.002   1.996  2.9868 -1.4045 -2.0590
11353TIP3    H234013   2.524   0.062   1.859  1.5240  3.0637 -0.1532
11354TIP3   OH234014   7.014   7.255   1.384 -0.6665 -0.3571 -0.1077
11354TIP3    H134015   7.072   7.200   1.436 -0.5575 -0.0570  0.0897
11354TIP3    H234016   6.926   7.230   1.412 -0.6664 -1.4889 -1.0912
11355TIP3   OH234017   7.555   6.569   0.128  0.1710  0.1709 -0.3020
11355TIP3    H134018   7.594   6.654   0.106  1.3379 -0.0919  0.7063
11355TIP3    H234019   7.495   6.551   0.056 -2.4043  3.2690  0.9613
11356TIP3   OH234020   7.290   7.211   2.850  0.4282 -0.0614  0.2971
11356TIP3    H134021   7.321   7.189   2.938 -1.8459  1.6884  1.5939
11356TIP3    H234022   7.325   7.298   2.833 -0.3012  0.1980  0.0825
11357TIP3   OH234023   5.197   6.762   1.107  0.2985  0.1767  0.0119
11357TIP3    H134024   5.240   6.682   1.076 -0.1679  0.4087 -1.2422
11357TIP3    H234025   5.221   6.767   1.200  2.6282  0.0774 -0.5537
11358TIP3   OH234026   5.357   2.264   5.382  0.5780 -0.1975  0.6866
11358TIP3    H134027   5.337   2.353   5.354  1.0917 -0.3585 -0.2359
11358TIP3    H234028   5.297   2.246   5.454 -0.3107  0.4749  0.1068
11359TIP3   OH234029   1.220   0.336   1.039 -0.1436  0.5508  0.1761
11359TIP3    H134030   1.153   0.396   1.005  0.1955  1.5812  1.3099
11359TIP3    H234031   1.179   0.295   1.115  0.6394  1.4604  1.0910
11360TIP3   OH234032   7.879   6.711   1.953  0.4423  0.0894  0.0034
11360TIP3    H134033   7.848   6.637   2.006  0.5557  0.5598  0.7463
11360TIP3    H234034   7.926   6.766   2.016  1.3571  0.2098 -0.7779
11361TIP3   OH234035   5.573   0.429   2.485  0.4305  0.2022 -0.1754
11361TIP3    H134036   5.618   0.480   2.552 -2.0404 -0.2910  1.9537
11361TIP3    H234037   5.590   0.338   2.510  0.6297  0.0130 -1.0078
11362TIP3   OH234038   1.943   2.219   2.433  0.1889  0.5093  0.0310
11362TIP3    H134039   1.864   2.189   2.388 -0.2574  0.6137  0.7365
11362TIP3    H234040   2.006   2.147   2.422 -0.0374  0.3812 -0.4377
11363TIP3   OH234041   6.403   7.174   0.903 -0.1188 -0.2650  0.7053
11363TIP3    H134042   6.389   7.079   0.901 -1.5657 -0.0349 -0.4460
11363TIP3    H234043   6.402   7.200   0.811 -1.4245  1.1071  1.1032
11364TIP3   OH234044   6.336   5.706  -0.001  0.4824 -0.0780 -0.7151
11364TIP3    H134045   6.275   5.734   0.067  1.1952 -1.1723  0.3870
11364TIP3    H234046   6.296   5.629  -0.040  1.5484 -1.3408  0.6187
11365TIP3   OH234047   7.024   6.875   0.885  0.4859 -0.2447  0.0702
11365TIP3    H134048   6.962   6.871   0.958  0.3147 -0.5890 -0.0949
11365TIP3    H234049   7.100   6.922   0.921 -0.7886  2.2961 -0.4113
11366TIP3   OH234050   7.221   5.971   1.638  0.2240  0.0801 -0.4484
11366TIP3    H134051   7.229   6.061   1.669 -0.9378  0.5880 -1.5716
11366TIP3    H234052   7.274   5.968   1.558 -1.3836  0.3443 -1.5468
11367TIP3   OH234053   3.933   2.142   6.150 -0.1091 -0.4285 -0.3069
11367TIP3    H134054   3.947   2.076   6.217 -1.6818 -0.6755 -0.2158
11367TIP3    H234055   4.016   2.189   6.145  0.3345 -1.0520  1.0983
11368TIP3   OH234056   6.814   7.062   0.576 -0.4365 -0.1214  0.3706
11368TIP3    H134057   6.765   7.123   0.631 -0.0246 -0.5328  1.2221
11368TIP3    H234058   6.829   6.986   0.633 -1.1297 -1.1108 -0.7381
11369TIP3   OH234059   4.777   7.120   2.238 -0.3126  0.0217 -0.3512
11369TIP3    H134060   4.792   7.133   2.145  0.8959  1.0460 -0.0361
11369TIP3    H234061   4.725   7.196   2.265 -0.9982 -0.4752 -0.2687
11370TIP3   OH234062   3.723   4.313   5.578 -0.4101 -0.1668 -0.0618
11370TIP3    H134063   3.694   4.251   5.511 -2.4151 -0.6327  1.1762
11370TIP3    H234064   3.803   4.275   5.614 -0.8249 -1.3207 -0.3295
11371TIP3   OH234065   6.496   7.071   1.342  0.0171  0.0582 -0.2151
11371TIP3    H134066   6.521   7.109   1.258 -0.3741  1.4242  0.2860
11371TIP3    H234067   6.458   6.986   1.319  0.2880  0.2452 -1.3834
11372TIP3   OH234068   2.934   0.556   2.827  0.4159  0.5143  0.5515
11372TIP3    H134069   2.882   0.597   2.897 -0.3115 -0.8334  0.8205
11372TIP3    H234070   2.997   0.501   2.874  0.6720  0.4888  0.1768
11373TIP3   OH234071   1.538   6.722   0.544  0.7291  0.2946  0.0005
11373TIP3    H134072   1.567   6.709   0.634 -1.5196  1.6171  0.9456
11373TIP3    H234073   1.443   6.725   0.549  0.3683 -2.8039 -2.8745
11374TIP3   OH234074   7.592   0.832   0.851 -0.1315 -0.4662 -0.2838
11374TIP3    H134075   7.594   0.900   0.919 -1.2232 -1.7805  1.0974
11374TIP3    H234076   7.610   0.879   0.770  0.0524  1.3303  0.7718
11375TIP3   OH234077   5.991   5.820   0.417 -0.3178 -0.0622 -0.2332
11375TIP3    H134078   5.983   5.850   0.507  0.1119 -1.2876  0.2166
11375TIP3    H234079   5.902   5.793   0.393 -0.8565  2.1208 -0.8675
11376TIP3   OH234080   6.774   7.158   1.459  0.6078  0.3899  0.2922
11376TIP3    H134081   6.701   7.170   1.399  0.0513  0.8462  1.0507
11376TIP3    H234082   6.801   7.067   1.445 -0.2222  0.1624  0.1331
11377TIP3   OH234083   1.039   4.009   6.405 -0.2740  0.1443 -0.0742
11377TIP3    H134084   1.057   4.095   6.443  0.4062  0.7664 -1.7928
11377TIP3    H234085   0.946   3.994   6.422  0.3398 -0.2990  3.2386
11378TIP3   OH234086   1.221   7.245   2.661  0.6729  0.3443 -0.5452
11378TIP3    H134087   1.211   7.319   2.602  1.2486  1.3853  0.6411
11378TIP3    H234088   1.195   7.278   2.746  1.4479 -0.6618  0.1025
11379TIP3   OH234089   0.930   1.259   1.523  0.6226 -0.4181 -0.9949
11379TIP3    H134090   0.837   1.254   1.542  0.8226  2.0494  0.8207
11379TIP3    H234091   0.971   1.203   1.590  0.6542  1.2467  0.4314
11380TIP3   OH234092   1.739   1.891   1.155  0.2973 -0.2568  0.2402
11380TIP3    H134093   1.738   1.950   1.230  1.7529  0.9036 -0.6237
11380TIP3    H234094   1.760   1.947   1.080 -0.4243 -1.5092 -0.9224
11381TIP3   OH234095   2.484   1.660   0.222 -0.0057  0.2399 -0.2285
11381TIP3    H134096   2.444   1.732   0.172  0.0555 -0.7766 -1.7774
11381TIP3    H234097   2.574   1.656   0.190 -0.2562 -1.0824 -0.7826
11382TIP3   OH234098   1.841   0.150   2.730  0.3851  0.4202  0.6864
11382TIP3    H134099   1.746   0.155   2.714  0.3651  0.4770  0.8199
11382TIP3    H234100   1.881   0.190   2.653  0.2699  1.3975  1.1353
11383TIP3   OH234101   1.625   6.052   1.693  0.1963 -0.1214  0.0313
11383TIP3    H134102   1.571   5.973   1.697  0.1709 -0.1301 -0.3807
11383TIP3    H234103   1.709   6.021   1.659 -0.0831  0.1600 -0.9413
11384TIP3   OH234104   4.596   4.684   5.745 -0.0299 -0.2300 -0.0621
11384TIP3    H134105   4.666   4.700   5.809 -0.6513  1.0578  0.3175
11384TIP3    H234106   4.527   4.642   5.796  0.3072 -1.1394 -0.3522
11385TIP3   OH234107   4.797   4.741   5.994  0.3254  0.2246  0.3187
11385TIP3    H134108   4.802   4.818   6.050  3.1566 -0.8875  1.7059
11385TIP3    H234109   4.797   4.667   6.055  0.4355 -0.9362 -1.0602
11386TIP3   OH234110   4.207   0.676   2.330  0.6352 -0.2060  0.2639
11386TIP3    H134111   4.194   0.722   2.247  0.9077  0.5581  0.6449
11386TIP3    H234112   4.118   0.648   2.355  0.5447 -0.3941 -0.2452
11387TIP3   OH234113   5.991   4.344   0.520 -0.1152 -0.4137 -0.1136
11387TIP3    H134114   6.055   4.336   0.449 -0.5533  0.0799 -0.5740
11387TIP3    H234115   5.965   4.436   0.517 -0.2716 -0.4370  0.5736
11388TIP3   OH234116   7.630   0.541   0.070  0.4205 -0.0617  0.1128
11388TIP3    H134117   7.688   0.548  -0.006  3.1616 -2.5185  1.8639
11388TIP3    H234118   7.606   0.449   0.074 -1.5025  0.4528  0.9514
11389TIP3   OH234119   1.283   5.565   1.138 -0.7257  0.1603 -0.1842
11389TIP3    H134120   1.286   5.654   1.175  1.5274 -0.8726  2.2855
11389TIP3    H234121   1.364   5.557   1.090 -0.6039 -0.7966  0.1776
11390TIP3   OH234122   2.523   2.365   0.059 -0.0013 -0.1690 -0.0888
11390TIP3    H134123   2.486   2.454   0.057  2.8589  1.0953  0.6792
11390TIP3    H234124   2.513   2.336   0.149 -1.2896 -0.8093 -0.4264
11391TIP3   OH234125   2.351   0.765   2.630  0.0073  0.5473 -0.0283
11391TIP3    H134126   2.395   0.828   2.573 -0.4709  1.3389  0.4569
11391TIP3    H234127   2.258   0.782   2.617 -0.1074  2.3708  2.7218
11392TIP3   OH234128   3.615   2.868   1.317 -0.5067 -0.3244  0.5796
11392TIP3    H134129   3.566   2.899   1.393  0.7935 -0.5055  1.4972
11392TIP3    H234130   3.690   2.927   1.310  0.0178 -1.0366  0.1416
11393TIP3   OH234131   6.556   7.299   2.610  0.1328 -0.6752 -0.2139
11393TIP3    H134132   6.495   7.356   2.563 -0.4919  1.6195  3.2079
11393TIP3    H234133   6.506   7.265   2.684  2.1288 -1.1505  0.9802
11394TIP3   OH234134   2.718   1.233   0.709 -0.2182 -0.1783 -0.1365
11394TIP3    H134135   2.656   1.268   0.773  0.6435 -1.0403  1.1807
11394TIP3    H234136   2.775   1.307   0.689 -0.5662  0.1265 -0.0278
11395TIP3   OH234137   6.594   6.697   0.955  0.4694  0.6505 -0.1421
11395TIP3    H134138   6.608   6.791   0.966  0.9187  0.7581 -1.4748
11395TIP3    H234139   6.513   6.691   0.904  0.5867  0.3327 -0.2932
11396TIP3   OH234140   1.451   0.622   0.723  0.0669 -0.0140 -0.2520
11396TIP3    H134141   1.385   0.553   0.715 -0.5238  0.1951  2.5126
11396TIP3    H234142   1.521   0.582   0.775  0.4044  0.9981  0.0820
11397TIP3   OH234143   2.538   0.287   2.628 -0.5132  0.6461  0.1124
11397TIP3    H134144   2.612   0.321   2.578 -0.1881  0.8115  0.6999
11397TIP3    H234145   2.509   0.211   2.579 -1.8982  2.3275 -1.7893
11398TIP3   OH234146   0.818   6.207   1.593 -0.1256  0.0780  0.1229
11398TIP3    H134147   0.859   6.122   1.574  0.4044  0.5973 -1.1015
11398TIP3    H234148   0.739   6.207   1.539  1.7431  1.8507 -2.7307
11399TIP3   OH234149   1.319   0.488   2.171  0.5491 -0.5219 -0.1958
11399TIP3    H134150   1.396   0.480   2.228  0.2365  0.4328  0.3735
11399TIP3    H234151   1.353   0.472   2.083  1.8066  1.8389 -0.1875
11400TIP3   OH234152   2.895   0.775   4.262 -0.2869  0.2573  0.4545
11400TIP3    H134153   2.867   0.791   4.352 -1.8138 -0.4850  0.1289
11400TIP3    H234154   2.947   0.852   4.239  2.0399 -0.5391  2.6963
11401TIP3   OH234155   1.384   5.942   0.404  0.2530  0.4419  0.4783
11401TIP3    H134156   1.464   5.975   0.446 -0.2438  1.9740  0.2264
11401TIP3    H234157   1.398   5.958   0.311 -0.0065 -0.0698  0.3470
11402TIP3   OH234158   4.847   4.407   4.475 -0.0339  0.3010 -0.4854
11402TIP3    H134159   4.923   4.453   4.511  0.3112  0.9948 -2.0707
11402TIP3    H234160   4.797   4.380   4.552  2.2635 -0.9576  0.6207
11403TIP3   OH234161   3.097   2.728   0.823  0.3136  0.0802 -0.0428
11403TIP3    H134162   3.068   2.814   0.853 -0.3957 -0.1479 -0.0665
11403TIP3    H234163   3.137   2.744   0.738 -0.3509  0.2976 -0.3148
11404TIP3   OH234164   1.713   0.473   0.517 -0.0213  0.1817 -0.8448
11404TIP3    H134165   1.668   0.557   0.523 -1.6129 -0.7194 -0.0103
11404TIP3    H234166   1.767   0.468   0.596  0.8150  0.8185 -1.3615
11405TIP3   OH234167   5.065   5.663   5.595  0.2218 -0.6751 -0.3079
11405TIP3    H134168   5.083   5.755   5.574  0.4531 -1.1250 -2.1649
11405TIP3    H234169   5.143   5.616   5.567 -0.8083 -1.7115 -1.5079
11406TIP3   OH234170   2.734   1.409   0.126 -0.0109  0.0724 -0.5381
11406TIP3    H134171   2.808   1.466   0.106 -0.8497  1.6962  0.9317
11406TIP3    H234172   2.707   1.374   0.041  1.4770  0.6406 -1.2590
11407TIP3   OH234173   3.154   2.096   0.758  0.4352 -0.5251  0.1362
11407TIP3    H134174   3.146   2.191   0.764 -0.1123 -0.4785 -1.1142
11407TIP3    H234175   3.125   2.064   0.844 -0.6542  0.3722  0.1094
11408TIP3   OH234176   7.282   4.372   1.086 -0.3521  0.3042  0.3647
11408TIP3    H134177   7.331   4.441   1.133 -1.0132  2.4728 -2.0056
11408TIP3    H234178   7.217   4.342   1.149 -0.3537  2.1973  1.3019
11409TIP3   OH234179   2.302   7.288   2.210 -0.2388  0.6149 -0.3157
11409TIP3    H134180   2.363   7.252   2.145  0.8113  0.5639  0.6864
11409TIP3    H234181   2.239   7.337   2.158  0.8410  0.9271 -1.3624
11410TIP3   OH234182   5.002   1.223   6.090 -0.3125 -0.8318 -0.1543
11410TIP3    H134183   5.050   1.290   6.139  0.3704 -1.1856 -0.3410
11410TIP3    H234184   4.926   1.270   6.055 -0.5702 -0.4776  0.8697
11411TIP3   OH234185   3.681   0.665   2.007  0.0461  0.3689 -0.2827
11411TIP3    H134186   3.740   0.663   2.083 -0.6789  0.3165  0.2812
11411TIP3    H234187   3.651   0.756   2.004 -0.4248  0.2174 -0.1241
11412TIP3   OH234188   1.429   1.820   1.376 -0.7579 -0.1825 -0.3630
11412TIP3    H134189   1.365   1.814   1.447 -0.1953 -0.6488  0.1113
11412TIP3    H234190   1.402   1.896   1.325 -2.8587 -1.5466 -1.3355
11413TIP3   OH234191   5.537   2.503   6.463  0.0857  0.3079 -0.2020
11413TIP3    H134192   5.551   2.409   6.453  2.8786  0.6881 -0.0507
11413TIP3    H234193   5.539   2.537   6.374  1.7078  0.5792 -0.0601
11414TIP3   OH234194   7.707   6.657   3.378  0.1926 -0.1977 -0.3263
11414TIP3    H134195   7.669   6.668   3.291 -1.0021  0.2117  0.2462
11414TIP3    H234196   7.635   6.676   3.439  1.6577  2.0414  0.7869
11415TIP3   OH234197   3.701   4.448   6.294 -0.0055 -0.2292  0.4022
11415TIP3    H134198   3.639   4.379   6.272 -1.3119  1.1935 -0.4755
11415TIP3    H234199   3.685   4.466   6.386  1.7924 -2.5120  1.2080
11416TIP3   OH234200   5.644   4.070   6.122  0.1840  0.1880  0.6736
11416TIP3    H134201   5.564   4.049   6.171 -0.2836 -2.5295 -1.1701
11416TIP3    H234202   5.710   4.011   6.159  0.5530  0.1916  0.0199
11417TIP3   OH234203   6.606   6.414   0.341 -0.3217  0.2232  0.1082
11417TIP3    H134204   6.570   6.449   0.423 -1.4770 -0.1243 -0.2510
11417TIP3    H234205   6.530   6.395   0.287  0.4244  0.0123 -0.8786
11418TIP3   OH234206   1.373   6.985   1.525 -0.1312 -0.0466 -0.3445
11418TIP3    H134207   1.417   6.929   1.588  0.5373  1.2047  0.3162
11418TIP3    H234208   1.380   7.073   1.561  1.1713  0.8565 -2.6574
11419TIP3   OH234209   6.598   2.638   5.960 -0.1106  0.4097 -0.1959
11419TIP3    H134210   6.665   2.706   5.955  0.8154 -0.5591 -0.9437
11419TIP3    H234211   6.522   2.683   5.998  1.0124  1.4593  0.8515
11420TIP3   OH234212   7.648   6.650   1.157  0.2359 -0.3647 -0.3901
11420TIP3    H134213   7.699   6.614   1.085 -2.0180  2.2636 -3.4385
11420TIP3    H234214   7.714   6.682   1.219  2.2532 -0.2289 -2.5455
11421TIP3   OH234215   5.673   6.857   1.311  0.6383 -0.6273 -0.5562
11421TIP3    H134216   5.609   6.840   1.381  1.9881 -0.2640  0.7956
11421TIP3    H234217   5.677   6.775   1.262 -0.8882 -0.6387 -0.6704
11422TIP3   OH234218   1.570   1.594   1.313 -0.2727 -0.5820 -0.1646
11422TIP3    H134219   1.542   1.505   1.336  0.1081 -0.4660  0.7550
11422TIP3    H234220   1.494   1.649   1.335 -0.7747 -0.7538 -1.3989
11423TIP3   OH234221   0.153   7.391   1.919  0.1151  0.5197 -0.1706
11423TIP3    H134222   0.177   7.463   1.977 -0.3712  0.7556 -0.2588
11423TIP3    H234223   0.208   7.402   1.842 -0.8583  1.5359 -0.7221
11424TIP3   OH234224   2.032   6.243   2.656 -0.0153  0.5723  0.2183
11424TIP3    H134225   2.042   6.151   2.631  0.1153  0.8479 -0.7438
11424TIP3    H234226   2.104   6.288   2.612 -1.0138  1.3859 -0.6159
11425TIP3   OH234227   2.685   1.668   1.915  0.9780  0.1510 -0.1047
11425TIP3    H134228   2.669   1.720   1.836  1.6566  0.0553 -0.3063
11425TIP3    H234229   2.735   1.726   1.973 -1.1934  0.9249  1.0811
11426TIP3   OH234230   4.099   3.793   6.334  0.1243 -0.4263  0.6138
11426TIP3    H134231   4.010   3.802   6.300  0.7456  0.9491 -0.6987
11426TIP3    H234232   4.097   3.837   6.418  0.0687  1.4665 -0.3497
11427TIP3   OH234233   2.667   4.699   0.705  0.2339 -0.5622  0.1257
11427TIP3    H134234   2.688   4.607   0.689  0.3436 -0.4268 -0.5293
11427TIP3    H234235   2.574   4.706   0.685  0.4501 -0.3162 -0.7975
11428TIP3   OH234236   0.248   1.485   2.720  0.4003  0.1909  0.3700
11428TIP3    H134237   0.270   1.399   2.756 -0.4857 -0.4969 -0.6740
11428TIP3    H234238   0.156   1.476   2.693  0.5098  1.2473 -0.3647
11429TIP3   OH234239   2.978   2.302   2.337 -0.0687  0.0321  0.1473
11429TIP3    H134240   2.898   2.302   2.285  1.7672 -2.3462 -2.9066
11429TIP3    H234241   3.022   2.384   2.313  0.2981 -0.5890 -1.4216
11430TIP3   OH234242   1.708   5.890   3.464  0.2661  0.1863 -0.7188
11430TIP3    H134243   1.770   5.852   3.402 -0.1562  1.3680 -1.8882
11430TIP3    H234244   1.733   5.982   3.470 -0.8231  0.4768 -0.5263
11431TIP3   OH234245   1.943   0.951   2.302 -0.0417  1.1092 -0.3560
11431TIP3    H134246   1.873   0.997   2.255  0.9048  1.6034 -1.2968
11431TIP3    H234247   1.925   0.858   2.287 -1.0750  1.1972  0.2679
11432TIP3   OH234248   7.673   6.409   1.816  0.1281  0.8131  0.1222
11432TIP3    H134249   7.628   6.461   1.883  0.5457  1.6231 -0.2132
11432TIP3    H234250   7.611   6.408   1.743  0.0837  0.7749  0.1603
11433TIP3   OH234251   5.463   3.468   5.708  0.2517 -0.4810  0.3059
11433TIP3    H134252   5.554   3.456   5.733  0.1360 -0.8349  0.5585
11433TIP3    H234253   5.450   3.410   5.633  0.2705 -0.3215  0.1775
11434TIP3   OH234254   2.703   0.284   3.244 -0.1437 -0.1909 -0.7841
11434TIP3    H134255   2.637   0.222   3.213  0.3308 -1.0836 -0.0331
11434TIP3    H234256   2.654   0.347   3.297 -0.2819 -1.3620  0.5087
11435TIP3   OH234257   6.361   4.978   6.439 -0.3283  0.4013 -0.3280
11435TIP3    H134258   6.276   5.004   6.475  0.7801  1.1332  1.8628
11435TIP3    H234259   6.349   4.982   6.344 -2.8714  0.0210 -0.0676
11436TIP3   OH234260   3.241   2.258   1.288  0.3251 -0.0715 -0.6263
11436TIP3    H134261   3.180   2.184   1.285 -0.5243  0.6043 -0.5610
11436TIP3    H234262   3.263   2.273   1.196  2.2832 -1.8196 -0.4730
11437TIP3   OH234263   2.677   1.532   5.766  0.2433  0.2705 -0.2240
11437TIP3    H134264   2.766   1.564   5.756  0.4912 -0.1633  0.5858
11437TIP3    H234265   2.639   1.587   5.835  0.1781 -0.1625  0.0847
11438TIP3   OH234266   4.016   4.265   4.572  0.0259  0.0100  0.0850
11438TIP3    H134267   4.037   4.233   4.485 -0.4301 -0.6804  0.2257
11438TIP3    H234268   3.931   4.226   4.593  0.0153  0.3684  0.7359
11439TIP3   OH234269   0.916   6.958   0.545 -0.1995  0.0954 -0.1298
11439TIP3    H134270   0.997   6.980   0.498 -1.0038  0.9956 -1.1381
11439TIP3    H234271   0.917   7.015   0.622 -1.0501  1.9506 -1.4367
11440TIP3   OH234272   3.430   0.888   1.766 -0.3225 -0.0148 -0.3868
11440TIP3    H134273   3.450   0.815   1.708  0.1949  0.6369 -1.0402
11440TIP3    H234274   3.434   0.965   1.709 -0.5291  0.5539  0.3650
11441TIP3   OH234275   0.604   0.891   1.909 -0.6775  0.3225  0.3187
11441TIP3    H134276   0.671   0.911   1.843  1.3017  2.3610  2.8426
11441TIP3    H234277   0.608   0.796   1.919  1.3836  0.3453 -0.0710
11442TIP3   OH234278   5.939   4.045   4.874 -0.3377  0.4652 -0.2158
11442TIP3    H134279   6.018   4.000   4.903 -1.0607 -0.5573  0.2129
11442TIP3    H234280   5.959   4.138   4.883  0.5959  0.2022  0.4676
11443TIP3   OH234281   1.150   6.610   0.987 -0.1652 -0.3479 -0.6322
11443TIP3    H134282   1.078   6.549   0.971 -0.9069 -0.1201  1.6708
11443TIP3    H234283   1.224   6.554   1.010 -0.4073 -0.4573 -0.1145
11444TIP3   OH234284   6.924   4.063   0.345 -0.5134  0.1363 -0.3396
11444TIP3    H134285   6.883   4.137   0.299  0.1162  0.3597 -0.5513
11444TIP3    H234286   6.969   4.103   0.419 -2.4273 -0.3437  1.1131
11445TIP3   OH234287   4.752   3.375   5.731  0.4996  0.2388  0.3159
11445TIP3    H134288   4.704   3.301   5.768 -0.1656  0.5067 -0.0116
11445TIP3    H234289   4.798   3.413   5.806  1.6640 -1.1161  0.3169
11446TIP3   OH234290   3.263   0.603   1.906  0.4057 -0.2908  0.0922
11446TIP3    H134291   3.204   0.674   1.931 -1.3545 -1.4651 -0.6971
11446TIP3    H234292   3.315   0.586   1.985 -0.3195  0.7197  0.7981
11447TIP3   OH234293   5.233   5.628   0.616  0.1381  0.9638  0.2632
11447TIP3    H134294   5.259   5.568   0.686 -0.7578 -1.0553 -1.0762
11447TIP3    H234295   5.295   5.611   0.546 -0.9532  0.6202 -0.6261
11448TIP3   OH234296   3.434   2.523   6.366  0.0505 -0.4142 -0.7587
11448TIP3    H134297   3.486   2.472   6.428  2.9751 -0.4248 -3.0487
11448TIP3    H234298   3.352   2.475   6.358  0.0063 -0.9368  2.2904
11449TIP3   OH234299   2.367   1.288   2.839  0.3467 -0.0144  0.3443
11449TIP3    H134300   2.327   1.337   2.767  0.3013 -0.8158 -0.1867
11449TIP3    H234301   2.330   1.200   2.831  1.9263 -0.6736  0.0733
11450TIP3   OH234302   3.098   0.525   0.692 -0.0419  0.5055  0.2549
11450TIP3    H134303   3.048   0.542   0.772 -3.3330 -0.8706 -1.4352
11450TIP3    H234304   3.094   0.430   0.681 -1.5655  0.8789 -2.7133
11451TIP3   OH234305   7.492   7.384   0.801  0.2701  0.2351  0.3650
11451TIP3    H134306   7.580   7.376   0.838  0.3100  1.6541  0.5859
11451TIP3    H234307   7.484   7.476   0.776 -2.3457  0.9008  3.3472
11452TIP3   OH234308   2.698   0.956   1.558 -0.1079 -0.4569  0.3916
11452TIP3    H134309   2.754   0.989   1.489  0.9810  0.4942  1.7072
11452TIP3    H234310   2.621   1.013   1.556  0.1584 -0.1009  0.3189
11453TIP3   OH234311   1.346   0.142   0.728 -0.2706  0.1597 -0.2879
11453TIP3    H134312   1.252   0.129   0.712 -0.3271  0.1328  0.0663
11453TIP3    H234313   1.385   0.143   0.641 -0.4345 -1.0534 -0.3845
11454TIP3   OH234314   0.668   7.346   1.086 -0.3994 -0.3431  1.2347
11454TIP3    H134315   0.741   7.348   1.024 -0.4018  0.0297  1.2446
11454TIP3    H234316   0.704   7.377   1.168 -0.2147 -1.5528  1.6200
11455TIP3   OH234317   2.531   1.127   0.549  0.4454  0.1087 -0.3870
11455TIP3    H134318   2.478   1.074   0.608  2.1765 -1.9795 -0.6852
11455TIP3    H234319   2.612   1.144   0.597  0.7409  0.7371 -1.0956
11456TIP3   OH234320   5.216   3.098   4.988 -0.3480  0.1699  0.4875
11456TIP3    H134321   5.270   3.026   4.957 -1.8344 -1.1397  0.8833
11456TIP3    H234322   5.275   3.153   5.038  0.7956 -0.7817  0.1882
11457TIP3   OH234323   4.611   5.251   4.216  0.2157 -0.3089  0.3851
11457TIP3    H134324   4.540   5.310   4.241  1.3935 -0.0913  3.3167
11457TIP3    H234325   4.628   5.199   4.294  1.3551 -2.3722 -1.1836
11458TIP3   OH234326   0.561   2.345   3.307 -0.4379  0.7583  0.3026
11458TIP3    H134327   0.558   2.273   3.244 -1.1964 -0.6133  1.8674
11458TIP3    H234328   0.577   2.423   3.254 -1.0257 -0.3722 -1.5741
11459TIP3   OH234329   2.224   0.767   0.655 -0.7365  0.3279  0.3884
11459TIP3    H134330   2.207   0.693   0.714 -0.1239  1.3560  1.8668
11459TIP3    H234331   2.293   0.736   0.597 -0.7815 -0.4056  0.7203
11460TIP3   OH234332   0.098   1.093   0.585 -0.1720 -0.6261  0.0211
11460TIP3    H134333   0.170   1.051   0.538  1.4879  0.8840  1.1188
11460TIP3    H234334   0.041   1.128   0.516 -0.0552 -2.1467 -0.8632
11461TIP3   OH234335   2.708   0.219   3.574  0.1827  0.3251 -0.4376
11461TIP3    H134336   2.683   0.156   3.507  0.3802  1.1578 -1.3054
11461TIP3    H234337   2.799   0.240   3.555  0.8790 -0.9857  1.3449
11462TIP3   OH234338   3.032   5.783   0.671 -0.1264  0.5783 -0.1680
11462TIP3    H134339   3.030   5.738   0.586 -1.1924  0.1203  0.0925
11462TIP3    H234340   3.060   5.872   0.650 -1.9150  0.9263 -1.2345
11463TIP3   OH234341   4.323   0.774   3.602 -0.3885 -0.1546  1.1211
11463TIP3    H134342   4.396   0.748   3.659 -0.7838 -1.9745  0.8319
11463TIP3    H234343   4.260   0.702   3.610  0.0372 -0.9730 -2.5139
11464TIP3   OH234344   3.066   1.116   2.598  0.1438 -0.0872  0.3675
11464TIP3    H134345   3.140   1.085   2.650  0.5539  0.8795  0.3781
11464TIP3    H234346   2.991   1.112   2.658  0.6678  1.2883  1.1504
11465TIP3   OH234347   5.604   4.234   5.654 -0.1359  0.5126  0.0162
11465TIP3    H134348   5.653   4.299   5.604  0.7550  0.1431  0.4095
11465TIP3    H234349   5.513   4.248   5.629  0.0883  1.7312 -0.1012
11466TIP3   OH234350   2.009   4.489   1.281 -0.5895 -0.2819 -0.6052
11466TIP3    H134351   1.955   4.545   1.336 -1.5878  0.1341 -1.9836
11466TIP3    H234352   2.029   4.543   1.204  0.3662 -1.0183 -0.8880
11467TIP3   OH234353   3.588   0.940   0.510 -0.7814  0.2939  0.0944
11467TIP3    H134354   3.599   0.906   0.599 -0.2657 -1.1642 -0.5270
11467TIP3    H234355   3.493   0.940   0.496 -1.0187  2.5710  1.4161
11468TIP3   OH234356   2.137   7.342   4.771 -0.4543  0.1533  0.3017
11468TIP3    H134357   2.120   7.250   4.753 -0.1604  0.1592 -0.0002
11468TIP3    H234358   2.149   7.346   4.866 -1.3136  0.0152  0.4264
11469TIP3   OH234359   0.159   6.850   2.129  0.5476 -0.2232  0.1640
11469TIP3    H134360   0.108   6.909   2.184  1.2661 -1.4006  2.1705
11469TIP3    H234361   0.250   6.879   2.140  0.8772 -1.4846  0.9549
11470TIP3   OH234362   4.974   0.590   0.060 -0.0388  0.0929  0.1036
11470TIP3    H134363   4.913   0.549   0.121 -0.8286 -0.3685 -0.9815
11470TIP3    H234364   4.929   0.669   0.030 -1.0699 -1.3638 -2.3553
11471TIP3   OH234365   2.461   7.091   4.212  0.0685 -0.2139  0.3574
11471TIP3    H134366   2.450   7.152   4.286 -2.3408  0.4318 -0.4728
11471TIP3    H234367   2.507   7.141   4.146  0.1674 -0.0383  0.5597
11472TIP3   OH234368   1.976   0.214   2.504 -0.0423  0.5724  0.4807
11472TIP3    H134369   2.045   0.276   2.480 -0.2850  0.5275 -0.3633
11472TIP3    H234370   2.017   0.128   2.500 -0.3865  0.4561 -1.0206
11473TIP3   OH234371   3.208   0.041   0.714 -0.0081 -0.1084 -0.0445
11473TIP3    H134372   3.262   0.029   0.636 -0.2803 -0.3276 -0.2051
11473TIP3    H234373   3.195  -0.048   0.747  0.4662  0.0253  0.4976
11474TIP3   OH234374   2.160   1.733   0.734 -0.5132  0.5737 -0.0683
11474TIP3    H134375   2.140   1.727   0.828  1.0138  1.6740  0.3361
11474TIP3    H234376   2.094   1.793   0.699  1.3983  3.4125  1.0733
11475TIP3   OH234377   2.052   0.923   2.836 -0.2072 -0.0469  0.1294
11475TIP3    H134378   2.026   1.000   2.785 -1.3562 -0.8557 -0.5197
11475TIP3    H234379   1.975   0.903   2.891 -0.6310 -1.8669 -1.0893
11476TIP3   OH234380   0.163   7.339   0.345 -0.9804 -0.4719  0.7969
11476TIP3    H134381   0.081   7.387   0.343 -0.0347  1.1474 -0.6945
11476TIP3    H234382   0.221   7.393   0.399 -0.6172 -1.1121  1.0487
11477TIP3   OH234383   0.464   6.641   1.098 -0.1778  0.3238  0.3038
11477TIP3    H134384   0.408   6.567   1.122 -2.0368  0.9197 -1.9774
11477TIP3    H234385   0.549   6.620   1.136 -0.8125 -2.7096  0.1868
11478TIP3   OH234386   2.615   0.939   1.989  0.0092  0.5722 -0.2623
11478TIP3    H134387   2.551   0.992   1.942 -1.0666 -1.0125 -0.6345
11478TIP3    H234388   2.699   0.978   1.967 -0.6374  1.1411 -1.8298
11479TIP3   OH234389   0.806   6.950   0.964  0.7337  0.5719  0.1261
11479TIP3    H134390   0.830   6.988   0.879  1.3744  1.1872  0.5766
11479TIP3    H234391   0.799   6.856   0.947  2.4643  0.4826 -0.2659
11480TIP3   OH234392   7.375   4.112   2.835  0.4941 -0.3331  0.6558
11480TIP3    H134393   7.300   4.151   2.791  0.4030 -1.9932 -0.6861
11480TIP3    H234394   7.337   4.061   2.907  0.4438 -0.0683  0.8191
11481TIP3   OH234395   1.552   6.151   1.944  0.4876 -0.5204 -0.0606
11481TIP3    H134396   1.570   6.122   1.855  0.0786  0.2388 -0.3890
11481TIP3    H234397   1.462   6.184   1.942  1.0056  0.9672  0.2579
11482TIP3   OH234398   5.070   1.639   3.373 -0.0736  0.0942 -0.0634
11482TIP3    H134399   5.141   1.601   3.320 -0.0517  1.5087 -1.0910
11482TIP3    H234400   5.115   1.683   3.445  0.1814  1.7682 -1.2147
11483TIP3   OH234401   6.308   5.390   1.019  0.2549  0.0402  0.2934
11483TIP3    H134402   6.343   5.325   0.958  0.8561  0.0048  0.6738
11483TIP3    H234403   6.386   5.436   1.052 -0.0426 -0.1160  1.2303
11484TIP3   OH234404  -0.007   6.606   2.398  0.0583  0.3199 -0.3437
11484TIP3    H134405   0.036   6.624   2.482 -0.8492  1.8734 -0.1902
11484TIP3    H234406   0.034   6.526   2.367  0.7427 -0.0158  1.3615
11485TIP3   OH234407   2.319   0.499   1.332  0.2664  0.2309  0.1475
11485TIP3    H134408   2.241   0.445   1.343  0.2695  0.6273  2.3889
11485TIP3    H234409   2.332   0.541   1.417  2.0631  1.3392 -0.6265
11486TIP3   OH234410   7.716   1.758   4.397 -0.0034 -0.4835 -0.5086
11486TIP3    H134411   7.777   1.733   4.328 -1.0765 -4.1162 -0.2191
11486TIP3    H234412   7.640   1.702   4.383 -1.9969  1.7266  1.0839
11487TIP3   OH234413   1.946   1.494   1.210  0.1788  0.4025  0.0006
11487TIP3    H134414   1.908   1.406   1.205 -0.5426  0.6464  0.9305
11487TIP3    H234415   2.000   1.492   1.290 -0.5818  1.0717  0.5428
11488TIP3   OH234416   3.166   1.463   1.129  0.3307  0.1486  0.3321
11488TIP3    H134417   3.135   1.374   1.149 -0.2051  0.2913  0.1477
11488TIP3    H234418   3.137   1.515   1.204 -0.3282  0.3835 -0.0828
11489TIP3   OH234419   2.219   7.077   2.708 -0.0684 -0.1294  0.4512
11489TIP3    H134420   2.284   7.027   2.756 -1.1465 -3.4575 -1.3844
11489TIP3    H234421   2.243   7.066   2.616 -0.5649  2.4777 -0.0385
11490TIP3   OH234422   0.429   7.071   3.115  0.0965 -0.2838  0.2911
11490TIP3    H134423   0.410   7.020   3.193  1.2460  0.3269  0.9873
11490TIP3    H234424   0.354   7.129   3.104 -0.1537 -0.5116  0.8297
11491TIP3   OH234425   1.128   6.812   0.811  0.0397  0.3357 -0.6900
11491TIP3    H134426   1.045   6.770   0.787  0.1197 -0.2726  0.1234
11491TIP3    H234427   1.170   6.752   0.871  0.1424  1.5675  0.5063
11492TIP3   OH234428   4.235   1.367   1.377 -0.0964 -0.5105  0.2042
11492TIP3    H134429   4.255   1.320   1.458 -1.0771  0.2780  0.9212
11492TIP3    H234430   4.166   1.315   1.336 -0.5421 -0.1926  0.5456
11493TIP3   OH234431   5.867   5.549   5.533  0.1536  0.6559 -0.0528
11493TIP3    H134432   5.937   5.484   5.534 -1.1785 -0.9103 -2.3207
11493TIP3    H234433   5.831   5.547   5.621  0.9343 -0.8190  0.2510
11494TIP3   OH234434   0.622   4.048   1.505  0.4588  0.7007 -0.0491
11494TIP3    H134435   0.694   4.060   1.443  0.0800  0.1226 -0.6059
11494TIP3    H234436   0.629   3.957   1.532  0.8792  1.0659  1.0904
11495TIP3   OH234437   3.445   6.247   0.596 -0.1591  0.1124  0.1764
11495TIP3    H134438   3.525   6.281   0.556 -0.4744 -0.2838 -0.8089
11495TIP3    H234439   3.456   6.264   0.690  1.7549 -1.2562  0.2496
11496TIP3   OH234440   4.872   0.687   1.257  0.2396  0.8951 -0.0156
11496TIP3    H134441   4.847   0.636   1.334 -0.3653 -1.1366 -1.5061
11496TIP3    H234442   4.806   0.757   1.253 -1.2107 -0.4291 -0.0443
11497TIP3   OH234443   0.764   5.508   0.300 -0.4192  0.4143  0.9310
11497TIP3    H134444   0.821   5.469   0.234 -2.0302 -1.0198  0.3407
11497TIP3    H234445   0.812   5.584   0.332  2.2513 -1.3375  1.1858
11498TIP3   OH234446   3.750   1.357   1.665  0.5896 -0.5840 -0.6509
11498TIP3    H134447   3.782   1.267   1.668  1.5052 -0.2483 -0.2891
11498TIP3    H234448   3.791   1.400   1.740 -1.2982 -0.3382  0.2673
11499TIP3   OH234449   7.651   3.269   5.329  0.6732 -0.1876  0.3196
11499TIP3    H134450   7.693   3.263   5.415  1.0019 -0.1950  0.1579
11499TIP3    H234451   7.558   3.281   5.349  0.8927  0.9574  0.6864
11500TIP3   OH234452   3.163   0.877   1.231 -0.6031 -0.5011  0.4048
11500TIP3    H134453   3.227   0.926   1.179  0.1698 -0.5759  1.2688
11500TIP3    H234454   3.188   0.894   1.322 -1.9956 -0.2956  0.7558
11501TIP3   OH234455   2.317   5.254   0.784 -0.3168  0.1631  0.5125
11501TIP3    H134456   2.240   5.311   0.777 -1.0478 -0.7668  0.8210
11501TIP3    H234457   2.354   5.253   0.696 -0.1361  1.3186  0.5607
11502TIP3   OH234458   3.889   1.036   2.588 -0.5327  0.0739 -0.0862
11502TIP3    H134459   3.930   1.111   2.630 -1.4291  0.7282 -0.3696
11502TIP3    H234460   3.896   0.966   2.653  0.1310  0.4545  0.2564
11503TIP3   OH234461   3.116   7.411   0.768  0.2167 -0.1976  0.0089
11503TIP3    H134462   3.080   7.495   0.798  1.4685  0.8082 -1.2223
11503TIP3    H234463   3.042   7.351   0.769 -0.5512  0.7555  1.5582
11504TIP3   OH234464   6.614   0.398   3.502 -0.2375  0.0446  0.0422
11504TIP3    H134465   6.683   0.464   3.490  0.5637 -0.3565  2.0679
11504TIP3    H234466   6.582   0.379   3.414  2.8861 -0.4047 -1.0582
11505TIP3   OH234467   3.644   5.243   0.916  0.2074  0.0451  0.4145
11505TIP3    H134468   3.551   5.261   0.928 -0.2446 -2.3351  0.6916
11505TIP3    H234469   3.660   5.164   0.967  2.0974 -0.3401 -0.7166
11506TIP3   OH234470   3.493   0.709   1.265 -0.0619  0.0187 -0.2712
11506TIP3    H134471   3.415   0.675   1.221  0.9046 -0.6677 -1.4589
11506TIP3    H234472   3.523   0.781   1.209 -0.4890  1.0531  0.7874
11507TIP3   OH234473   6.835   4.337   5.975 -0.6811 -0.1278 -0.1337
11507TIP3    H134474   6.754   4.383   5.998 -1.6182 -1.0953 -1.4513
11507TIP3    H234475   6.815   4.245   5.990 -0.1029 -0.4373 -1.2263
11508TIP3   OH234476   2.621   0.207   1.189 -0.3175 -0.1960  0.3482
11508TIP3    H134477   2.536   0.199   1.233 -1.2392  0.2637 -1.3092
11508TIP3    H234478   2.646   0.298   1.202  0.2760 -0.5078  1.4487
11509TIP3   OH234479   7.803   6.640   0.736 -0.4845 -0.2891  0.0564
11509TIP3    H134480   7.816   6.546   0.750 -0.6786 -0.0136  2.2412
11509TIP3    H234481   7.856   6.660   0.659  1.4186 -1.7565  0.9288
11510TIP3   OH234482   6.608   3.040   5.993  0.0450  0.0023 -0.7220
11510TIP3    H134483   6.614   2.991   6.075 -0.8298 -0.7285 -1.0877
11510TIP3    H234484   6.692   3.026   5.950  0.1708 -0.3549 -0.3580
11511TIP3   OH234485   7.064   4.153   6.345 -0.3816  0.1879 -0.3089
11511TIP3    H134486   6.993   4.162   6.409  0.6007  1.7019  0.6005
11511TIP3    H234487   7.026   4.183   6.263 -0.5726  1.7730  0.3399
11512TIP3   OH234488   4.317   0.137   1.455  0.4432 -0.3509  0.6340
11512TIP3    H134489   4.379   0.188   1.402  1.3676 -0.2149  1.8171
11512TIP3    H234490   4.235   0.140   1.405  0.4810  2.2526  0.6212
11513TIP3   OH234491   5.337   0.017   2.460  0.0949  0.9207  0.2963
11513TIP3    H134492   5.254   0.009   2.413  1.3725 -0.3437 -1.8317
11513TIP3    H234493   5.392   0.068   2.402  0.6574  2.2721  1.9702
11514TIP3   OH234494   3.816   1.406   0.667 -0.1522  0.4131  0.1005
11514TIP3    H134495   3.860   1.490   0.654 -0.1284  0.4219  0.2376
11514TIP3    H234496   3.885   1.341   0.655 -0.4422  0.3490 -1.3362
11515TIP3   OH234497   3.552   1.337   1.180  0.3175 -0.0698 -0.0532
11515TIP3    H134498   3.523   1.318   1.091  0.2628 -0.2392  0.0010
11515TIP3    H234499   3.634   1.289   1.189  1.6803  2.0269 -0.8978
11516TIP3   OH234500   4.536   0.555   2.961  0.2434 -0.2057 -0.3195
11516TIP3    H134501   4.516   0.530   2.871 -0.7601 -0.7401  0.0404
11516TIP3    H234502   4.514   0.478   3.013 -0.8372  0.6807  0.5767
11517TIP3   OH234503   2.082   0.335   0.699  0.4813 -0.0433  0.6218
11517TIP3    H134504   2.136   0.258   0.686 -1.6564 -1.4989  0.0272
11517TIP3    H234505   2.144   0.407   0.707  2.4390 -1.3209 -2.1560
11518TIP3   OH234506   4.218   0.485   0.906  0.0576 -0.7004  0.1715
11518TIP3    H134507   4.239   0.511   0.816 -0.4769  0.8510  0.4909
11518TIP3    H234508   4.304   0.481   0.950  0.2398 -0.5438 -0.1680
11519TIP3   OH234509   3.244   1.162   0.134 -0.2599  0.0576  0.1184
11519TIP3    H134510   3.333   1.196   0.141  0.5533 -1.3949 -2.6158
11519TIP3    H234511   3.246   1.080   0.183  0.4065 -0.8613 -1.4271
11520TIP3   OH234512   2.225   4.197   5.535 -0.3516  0.8186  0.1666
11520TIP3    H134513   2.144   4.203   5.484 -0.1153  3.2103  0.0056
11520TIP3    H234514   2.203   4.239   5.619  0.2025 -0.1573  0.7991
11521TIP3   OH234515   6.223   4.041   5.616  0.5619 -0.4431 -0.6679
11521TIP3    H134516   6.198   4.064   5.526  0.9516 -0.7982 -0.8665
11521TIP3    H234517   6.286   4.108   5.642 -1.7604  1.3967  0.4058
11522TIP3   OH234518   4.186   0.910   0.818 -0.0653 -0.0992 -0.1214
11522TIP3    H134519   4.178   0.926   0.912  0.4151 -1.8463  0.2230
11522TIP3    H234520   4.109   0.858   0.796 -0.5335  0.8854 -0.8373
11523TIP3   OH234521   6.111   1.690   6.297  0.0960 -0.3040 -0.4475
11523TIP3    H134522   6.097   1.670   6.389  0.0227  0.7747 -0.2163
11523TIP3    H234523   6.026   1.672   6.255  0.2740 -1.2625 -0.3870
11524TIP3   OH234524   7.560   5.573   6.114  0.1266 -0.0377  0.3139
11524TIP3    H134525   7.483   5.569   6.171 -0.7605 -1.0803 -0.9046
11524TIP3    H234526   7.543   5.505   6.048  0.7861  1.6123 -1.5860
11525TIP3   OH234527   2.210   7.286   1.861 -0.3778 -0.2096  0.4877
11525TIP3    H134528   2.176   7.358   1.807  0.1982  0.9734  1.6622
11525TIP3    H234529   2.134   7.257   1.911 -0.6054 -0.3847  0.0424
11526TIP3   OH234530   3.770   6.961   0.873 -0.2326  0.1148  0.1262
11526TIP3    H134531   3.815   6.987   0.793  0.7313  1.0294  0.9606
11526TIP3    H234532   3.696   7.021   0.880 -1.2943 -1.0381 -0.9531
11527TIP3   OH234533   0.419   5.516   3.494 -0.2792 -0.5740 -0.2063
11527TIP3    H134534   0.423   5.611   3.506 -0.6879 -0.4051 -1.3536
11527TIP3    H234535   0.418   5.481   3.583 -0.1899  0.4999  0.2286
11528TIP3   OH234536   0.188   6.865   0.073  0.3718  0.2983  0.0128
11528TIP3    H134537   0.140   6.832  -0.002 -0.9527  1.3138  0.3923
11528TIP3    H234538   0.147   6.824   0.149 -0.9509  2.3575  0.4475
11529TIP3   OH234539   2.873   5.949   1.610 -0.2175  0.1457  0.0311
11529TIP3    H134540   2.819   5.918   1.682  0.6312  0.5147  0.8288
11529TIP3    H234541   2.911   6.032   1.641 -0.8235  0.9392 -1.2953
11530TIP3   OH234542   4.442   1.538   1.156 -0.9277  0.7191 -0.6145
11530TIP3    H134543   4.473   1.546   1.066 -1.6064  0.6666 -0.8545
11530TIP3    H234544   4.349   1.515   1.148 -0.8110 -0.0285  0.0987
11531TIP3   OH234545   3.680   5.840   1.768 -0.2127 -0.5443 -0.1540
11531TIP3    H134546   3.687   5.785   1.690 -0.3643 -0.3645 -0.2933
11531TIP3    H234547   3.615   5.906   1.745  0.8148  0.3934 -0.4055
11532TIP3   OH234548   1.075   7.300   1.216 -0.3483 -0.2666 -0.5449
11532TIP3    H134549   1.144   7.285   1.152 -1.1267 -2.2455 -0.9481
11532TIP3    H234550   1.018   7.224   1.209 -1.5071  0.4020  1.1563
11533TIP3   OH234551   7.013   5.234   6.024 -0.0348 -0.1422 -0.6189
11533TIP3    H134552   6.990   5.287   5.948 -1.3224  1.3097  0.7590
11533TIP3    H234553   7.078   5.285   6.071 -1.4454  0.3393  0.8349
11534TIP3   OH234554   1.964   4.938   1.132  0.2063  0.6634 -0.0862
11534TIP3    H134555   1.875   4.910   1.155  0.4100 -0.8859 -1.0849
11534TIP3    H234556   1.997   4.982   1.210  0.0800 -2.5107  1.8188
11535TIP3   OH234557   3.479   0.289   0.820  0.2646 -0.4292  0.2758
11535TIP3    H134558   3.449   0.308   0.909 -2.1975 -0.2587 -0.5524
11535TIP3    H234559   3.404   0.312   0.765  1.9973  0.1106 -1.9008
11536TIP3   OH234560   5.306   2.975   6.376 -0.2321 -0.1700  0.0578
11536TIP3    H134561   5.343   2.940   6.294 -3.3114 -0.5148 -1.2524
11536TIP3    H234562   5.311   2.902   6.437 -1.0152 -0.9877 -0.8432
11537TIP3   OH234563   4.081   1.074   0.382  0.1330  0.0710 -0.3787
11537TIP3    H134564   4.170   1.066   0.349  0.0941  1.0334 -0.7119
11537TIP3    H234565   4.046   0.985   0.377  1.4779 -0.5464  0.9309
11538TIP3   OH234566   5.780   0.923   0.130  0.0697 -0.1584 -0.3541
11538TIP3    H134567   5.726   0.989   0.087  1.3306 -0.1293 -1.9501
11538TIP3    H234568   5.773   0.846   0.074  0.6936 -0.5426  0.0937
11539TIP3   OH234569   3.311   0.589   0.948 -0.8741  0.3946  0.2547
11539TIP3    H134570   3.338   0.509   0.994  0.3915 -0.3661 -1.7401
11539TIP3    H234571   3.218   0.597   0.967 -0.8079 -0.9836  1.3165
11540TIP3   OH234572   3.801   0.747   2.252  0.5630  0.0335  0.3128
11540TIP3    H134573   3.777   0.837   2.230  1.1700 -0.1891 -1.3174
11540TIP3    H234574   3.742   0.723   2.323  0.8383  1.9413  1.2036
11541TIP3   OH234575   6.661   4.671   5.763  0.1805 -0.1087 -0.3118
11541TIP3    H134576   6.756   4.670   5.758  0.1843  0.0671 -0.3111
11541TIP3    H234577   6.641   4.683   5.856  0.1465 -0.8667 -0.2185
11542TIP3   OH234578   2.999   0.766   2.071  0.0047  0.1769  0.7777
11542TIP3    H134579   2.972   0.717   2.149 -0.9792 -1.5659 -0.6129
11542TIP3    H234580   3.085   0.801   2.093 -1.1237  1.4087  3.3752
11543TIP3   OH234581   2.094   6.726   1.425  0.2689  0.1373  0.6981
11543TIP3    H134582   2.045   6.737   1.506 -0.7820  1.3419 -0.0836
11543TIP3    H234583   2.184   6.748   1.448 -0.0440  0.5716  1.5222
11544TIP3   OH234584   1.539   6.250   2.315 -0.1088  0.0770 -0.3700
11544TIP3    H134585   1.555   6.191   2.242  1.3382 -0.0663  0.0498
11544TIP3    H234586   1.622   6.295   2.329 -0.8914  1.4406  0.0059
11545TIP3   OH234587   3.413   1.760   1.334 -0.1097  0.0350 -0.5365
11545TIP3    H134588   3.409   1.727   1.244 -1.2999 -0.4897 -0.3084
11545TIP3    H234589   3.501   1.795   1.344 -0.0398  0.2731 -1.9764
11546TIP3   OH234590   3.267   2.003  -0.024  0.0533 -0.1635 -0.3160
11546TIP3    H134591   3.276   2.002   0.071 -0.2128 -0.0474 -0.2891
11546TIP3    H234592   3.181   2.041  -0.040 -0.1102 -0.6396 -0.5882
11547TIP3   OH234593   5.919   4.022   6.288 -0.2429  0.1793  0.0525
11547TIP3    H134594   5.962   4.101   6.254  0.7472 -0.4162 -0.1053
11547TIP3    H234595   5.957   4.010   6.375 -0.6428  0.0585  0.2120
11548TIP3   OH234596   7.066   5.610   5.424  0.3246 -0.3448 -0.4299
11548TIP3    H134597   7.030   5.636   5.509  1.5788 -0.0861  0.0412
11548TIP3    H234598   7.018   5.662   5.361  0.8085  1.0176  0.2970
11549TIP3   OH234599   5.710   6.731   6.348 -0.1619  0.5398 -0.0823
11549TIP3    H134600   5.648   6.763   6.282 -0.7696  1.1093  0.7529
11549TIP3    H234601   5.786   6.788   6.340 -1.2957  2.3307  1.5010
11550TIP3   OH234602   4.469   0.044   1.223  0.1611  0.5496  0.3647
11550TIP3    H134603   4.489   0.056   1.316 -1.3945 -1.4318  0.9873
11550TIP3    H234604   4.441  -0.047   1.216 -0.2062  0.8107 -1.9763
11551TIP3   OH234605   0.193   1.148   3.110 -0.1729 -0.1613 -0.7737
11551TIP3    H134606   0.099   1.153   3.124 -0.0969  1.6753 -0.8133
11551TIP3    H234607   0.205   1.168   3.017  0.3688  1.2353 -0.4171
11552TIP3   OH234608   7.660   1.518   0.276  0.2256 -0.6015 -0.3706
11552TIP3    H134609   7.594   1.583   0.252  0.5202 -0.3948 -0.6181
11552TIP3    H234610   7.660   1.518   0.372  0.0941 -0.3719 -0.3708
11553TIP3   OH234611   1.385   2.333   2.671  0.1664  0.2980  0.2916
11553TIP3    H134612   1.434   2.328   2.589 -0.7628  0.3258 -0.2716
11553TIP3    H234613   1.294   2.315   2.646  0.2726 -2.6003  1.7409
11554TIP3   OH234614   6.304   1.701   0.968 -0.0494 -0.6069  0.3753
11554TIP3    H134615   6.236   1.635   0.979 -1.4252  0.7581  0.2241
11554TIP3    H234616   6.301   1.722   0.874 -0.7689  0.8859  0.7354
11555TIP3   OH234617   7.577   0.518   2.960  0.2284  0.9343 -0.0968
11555TIP3    H134618   7.540   0.467   2.887  0.8002  0.5557 -0.1283
11555TIP3    H234619   7.652   0.466   2.989  0.6325  1.6120  0.0758
11556TIP3   OH234620   1.654   0.578   2.924 -0.4853 -0.5214 -0.1399
11556TIP3    H134621   1.595   0.550   2.854 -1.5311  2.3442 -0.4878
11556TIP3    H234622   1.596   0.620   2.988  0.8314 -0.3856  0.9921
11557TIP3   OH234623   5.539   0.919   1.587  0.2429  0.1820 -0.4271
11557TIP3    H134624   5.588   0.838   1.571 -0.5347 -0.0825 -1.4804
11557TIP3    H234625   5.596   0.969   1.645  0.4803 -1.3633  0.7147
11558TIP3   OH234626   5.221   0.959   0.609 -0.3264 -0.5255  0.8493
11558TIP3    H134627   5.135   0.917   0.619 -1.5165  1.6524  0.1261
11558TIP3    H234628   5.201   1.046   0.574  2.3723 -0.8781 -1.7175
11559TIP3   OH234629   3.165   4.489   6.280 -0.2574 -0.4182 -0.5372
11559TIP3    H134630   3.217   4.520   6.206 -0.3809 -0.5369 -0.6754
11559TIP3    H234631   3.223   4.430   6.327 -0.2426 -0.4922 -0.6484
11560TIP3   OH234632   7.614   4.377   5.761  0.4118 -0.0168  0.0087
11560TIP3    H134633   7.676   4.343   5.827 -0.4419  1.5430  1.6598
11560TIP3    H234634   7.670   4.413   5.692  1.3283 -1.2752  0.0780
11561TIP3   OH234635   7.657   0.939   0.607 -0.1049 -0.2979  0.0319
11561TIP3    H134636   7.745   0.901   0.618  0.3555  0.7932  0.2072
11561TIP3    H234637   7.641   0.935   0.513 -0.2054 -1.2119  0.0758
11562TIP3   OH234638   1.915   3.269   6.054  0.5449 -0.0156 -0.0534
11562TIP3    H134639   1.978   3.335   6.023  0.1112  0.2424 -0.3899
11562TIP3    H234640   1.874   3.237   5.973  0.6114 -0.5584  0.1250
11563TIP3   OH234641   7.594   2.030   1.203  0.3915 -0.4232  0.2920
11563TIP3    H134642   7.517   2.082   1.181  0.9367  1.4639  2.6879
11563TIP3    H234643   7.597   2.030   1.298  2.3649 -1.9901  0.2757
11564TIP3   OH234644   7.773   1.917   1.709 -0.2981 -0.1914 -0.4986
11564TIP3    H134645   7.690   1.943   1.749 -1.6136 -0.4635 -2.9468
11564TIP3    H234646   7.787   1.827   1.740 -0.6594  0.0147  0.2810
11565TIP3   OH234647   2.156   3.431   2.383 -0.0035  0.3913 -0.0354
11565TIP3    H134648   2.081   3.446   2.325 -2.2490  0.0517  2.6593
11565TIP3    H234649   2.193   3.518   2.397 -0.5435  0.7029 -0.5118
11566TIP3   OH234650   0.379   2.623   4.426 -0.0966 -0.6457 -0.2664
11566TIP3    H134651   0.425   2.633   4.510  1.0353 -0.7175 -0.8772
11566TIP3    H234652   0.397   2.534   4.399  2.1993  0.3339 -2.1410
11567TIP3   OH234653   2.119   1.662   3.168  0.1149 -0.5696  0.0927
11567TIP3    H134654   2.042   1.649   3.113  0.0586  4.4545 -1.2914
11567TIP3    H234655   2.193   1.633   3.114 -0.1701  2.0738 -1.8264
11568TIP3   OH234656   1.925   5.784   6.210 -0.1150 -0.3602 -0.4144
11568TIP3    H134657   1.882   5.870   6.212  0.4299 -0.0800 -0.3417
11568TIP3    H234658   1.856   5.722   6.190 -0.8933 -0.1239  1.4142
11569TIP3   OH234659   5.764   7.355   2.250 -0.0795  0.4289 -0.0610
11569TIP3    H134660   5.811   7.317   2.325  1.0421  0.0123 -0.9383
11569TIP3    H234661   5.770   7.449   2.263  0.7754  0.3780  0.0042
11570TIP3   OH234662   7.374   1.218   2.823  0.2773 -0.1542 -0.5151
11570TIP3    H134663   7.285   1.225   2.857 -0.1954 -0.9614 -1.5707
11570TIP3    H234664   7.367   1.238   2.730  1.7310  3.0973 -0.0168
11571TIP3   OH234665   7.536   1.772   2.065  0.1965 -0.0623 -0.0450
11571TIP3    H134666   7.629   1.788   2.083 -0.1414  1.0896  0.7110
11571TIP3    H234667   7.523   1.681   2.090  0.5777  0.4693  2.2177
11572TIP3   OH234668   1.522   2.240   1.436 -0.0797  0.3318 -0.4352
11572TIP3    H134669   1.552   2.220   1.525  1.4542 -0.8190 -1.1953
11572TIP3    H234670   1.477   2.324   1.445 -0.5257 -0.0739  1.5409
11573TIP3   OH234671   2.020   3.017   0.652  0.3858 -0.1511 -0.2202
11573TIP3    H134672   1.953   2.956   0.682  0.1631  1.2269  2.1911
11573TIP3    H234673   2.059   3.052   0.732  3.2289 -0.0919 -1.5790
11574TIP3   OH234674   4.585   3.873   5.134  0.0691  0.5935 -0.6129
11574TIP3    H134675   4.540   3.932   5.074 -0.6418  0.2121 -0.4492
11574TIP3    H234676   4.537   3.881   5.217  1.7187  1.9767  0.2481
11575TIP3   OH234677   6.697   6.426   0.989  0.2148 -0.4004  0.0699
11575TIP3    H134678   6.663   6.507   0.951 -0.3780 -0.8390 -0.3400
11575TIP3    H234679   6.680   6.360   0.922 -0.9437 -1.2057  1.1587
11576TIP3   OH234680   1.350   3.193   2.065  0.5208  0.3248 -0.9111
11576TIP3    H134681   1.324   3.152   2.147  0.7107 -0.2298 -1.1238
11576TIP3    H234682   1.343   3.287   2.081  1.4685  0.2417  0.0449
11577TIP3   OH234683   2.117   3.918   6.327 -0.4196  0.1502 -0.1980
11577TIP3    H134684   2.030   3.921   6.367  0.1672  0.3078  1.0812
11577TIP3    H234685   2.099   3.914   6.233 -1.8297 -1.9045  0.1176
11578TIP3   OH234686   0.209   4.314   0.915  0.0380  0.6625  0.6284
11578TIP3    H134687   0.283   4.270   0.872 -1.6452 -0.4462 -1.2422
11578TIP3    H234688   0.202   4.271   1.000  0.4051 -0.5291  0.0770
11579TIP3   OH234689   3.752   7.007   5.933 -0.5595 -0.1512 -0.0202
11579TIP3    H134690   3.759   6.912   5.935 -0.6353 -0.1691 -0.5480
11579TIP3    H234691   3.669   7.026   5.977  0.6543 -0.1779  2.3559
11580TIP3   OH234692   6.578   7.161   1.113 -0.5176 -0.4256 -0.2845
11580TIP3    H134693   6.525   7.155   1.033 -0.0148  0.0354 -0.6599
11580TIP3    H234694   6.667   7.176   1.081 -0.5201  1.0942  0.4078
11581TIP3   OH234695   0.990   3.939   1.941  0.1765 -0.2303  0.3139
11581TIP3    H134696   0.956   3.880   1.874  1.1173 -0.9583  0.4594
11581TIP3    H234697   0.923   3.941   2.009  1.1232 -3.0045  1.4090
11582TIP3   OH234698   2.347   1.993   2.761 -0.0848 -0.8231 -0.2983
11582TIP3    H134699   2.280   2.012   2.695  0.5325  0.7574 -0.4855
11582TIP3    H234700   2.430   1.999   2.714  0.3724  0.5646  0.6569
11583TIP3   OH234701   1.644   1.004   2.467 -0.3896 -0.2997  0.0556
11583TIP3    H134702   1.708   1.009   2.395  0.3608 -1.9577  0.5834
11583TIP3    H234703   1.652   1.088   2.512 -0.2808  0.4381 -1.3073
11584TIP3   OH234704   7.388   1.308   1.959  0.6305  0.4736  0.2090
11584TIP3    H134705   7.444   1.275   2.029  0.3621 -0.1918  0.1081
11584TIP3    H234706   7.428   1.273   1.878 -1.0715 -1.6906  0.2580
11585TIP3   OH234707   1.756   2.638   0.425  0.3027  0.0499  0.0807
11585TIP3    H134708   1.815   2.597   0.362 -0.4071 -0.7473 -0.0865
11585TIP3    H234709   1.788   2.609   0.511 -0.6210 -1.4722 -0.0679
11586TIP3   OH234710   4.427   6.018   5.856 -0.1795  0.1826 -0.3127
11586TIP3    H134711   4.391   6.075   5.788  0.1918  0.9257  0.1141
11586TIP3    H234712   4.458   6.078   5.923  2.2592 -0.4326 -0.8573
11587TIP3   OH234713   1.771   3.395   0.339  0.0557 -0.2511 -0.2724
11587TIP3    H134714   1.824   3.371   0.415 -0.5757 -2.3412 -0.4798
11587TIP3    H234715   1.735   3.312   0.306 -1.7308  0.8983 -1.3347
11588TIP3   OH234716   3.718   7.279   0.745  0.0675  0.3398 -0.2857
11588TIP3    H134717   3.729   7.342   0.674 -1.4410  0.0799 -0.7853
11588TIP3    H234718   3.639   7.309   0.791  0.2524 -0.2751  0.4337
11589TIP3   OH234719   7.746   1.307   1.405  0.4955 -0.2709 -0.1704
11589TIP3    H134720   7.699   1.259   1.472  0.1884  0.6350  0.2808
11589TIP3    H234721   7.687   1.307   1.330  1.1994 -2.0282 -0.7542
11590TIP3   OH234722   5.299   6.055   6.278 -0.0753 -0.1205  0.2648
11590TIP3    H134723   5.349   6.129   6.242 -1.4161  0.4283 -0.4763
11590TIP3    H234724   5.256   6.090   6.355 -2.0450  0.3541 -1.0109
11591TIP3   OH234725   1.326   1.603   1.758 -0.0169 -0.4881  0.5104
11591TIP3    H134726   1.279   1.533   1.712  0.2854  0.1588 -0.8001
11591TIP3    H234727   1.360   1.659   1.688  1.3709 -0.0859  1.4903
11592TIP3   OH234728   0.657   2.016   1.840  0.1885  0.1021  0.3646
11592TIP3    H134729   0.741   2.018   1.885  0.3034  0.8339  0.1135
11592TIP3    H234730   0.595   1.985   1.907  0.3968  0.9852  0.9714
11593TIP3   OH234731   0.971   3.479   0.640  0.0840  0.3535 -0.0317
11593TIP3    H134732   1.035   3.509   0.575 -0.2548 -2.1907 -1.5907
11593TIP3    H234733   0.922   3.558   0.663  2.6965  2.0420  0.0158
11594TIP3   OH234734   4.945   7.356   5.332  0.1164  0.0354  0.1926
11594TIP3    H134735   5.030   7.314   5.323  0.0250 -0.1847  0.3435
11594TIP3    H234736   4.948   7.398   5.418 -0.5140 -1.3193  0.8833
11595TIP3   OH234737   7.618   1.993   1.494 -0.3318 -0.1190  0.3105
11595TIP3    H134738   7.659   2.036   1.569  2.1570 -0.0480 -1.0256
11595TIP3    H234739   7.654   1.904   1.496  0.0846  0.0053 -1.0079
11596TIP3   OH234740   1.494   2.241   2.433  0.1222  0.2104 -0.4831
11596TIP3    H134741   1.568   2.221   2.376  0.6460  0.3172  0.1540
11596TIP3    H234742   1.427   2.277   2.374 -0.2864 -2.0001 -1.4115
11597TIP3   OH234743   0.947   2.538   2.711 -0.1559 -0.2034 -0.1918
11597TIP3    H134744   0.920   2.446   2.714 -1.0095  0.0530  0.2131
11597TIP3    H234745   1.008   2.548   2.784 -0.0719 -0.4519 -0.2297
11598TIP3   OH234746   3.402   0.684   2.582  0.0297 -0.0998  0.8775
11598TIP3    H134747   3.351   0.653   2.508 -0.6367  1.0344  0.8669
11598TIP3    H234748   3.368   0.771   2.602 -0.7518 -0.9183  3.3911
11599TIP3   OH234749   7.301   2.319   1.680 -0.2586  0.0820 -0.0142
11599TIP3    H134750   7.381   2.333   1.730  0.1231  0.0927 -0.6215
11599TIP3    H234751   7.330   2.281   1.597 -0.6823  1.9341 -1.0484
11600TIP3   OH234752   1.604   3.971   0.927 -0.1481 -0.2473  0.1632
11600TIP3    H134753   1.664   3.924   0.985 -0.6551 -0.6039  0.4060
11600TIP3    H234754   1.526   3.985   0.981 -0.3414  0.0654 -0.2008
11601TIP3   OH234755   0.865   2.287   1.880 -0.0465 -0.1713 -0.5990
11601TIP3    H134756   0.925   2.362   1.886 -1.2458  0.7839 -0.4594
11601TIP3    H234757   0.923   2.211   1.878  1.1643  0.6908  0.4918
11602TIP3   OH234758   7.430   2.506   3.573  0.0615 -0.1120  0.1510
11602TIP3    H134759   7.350   2.460   3.597 -0.9605  1.2918 -0.5403
11602TIP3    H234760   7.469   2.531   3.657 -0.3212 -0.6207  0.4819
11603TIP3   OH234761   0.954   0.477   2.004 -0.3237 -0.6248  0.7906
11603TIP3    H134762   1.035   0.438   2.037  0.6112  1.1366  0.6526
11603TIP3    H234763   0.949   0.448   1.913  1.3158  0.9847  0.1469
11604TIP3   OH234764   1.033   2.726   4.515  0.0106 -0.8443 -0.2557
11604TIP3    H134765   0.999   2.760   4.433  2.8436  0.4211 -0.9893
11604TIP3    H234766   0.959   2.683   4.557 -2.1740  1.0080 -2.1367
11605TIP3   OH234767   0.592   2.947   3.262 -0.2219  0.3212  0.0329
11605TIP3    H134768   0.518   2.956   3.202 -0.0026  0.1479 -0.2618
11605TIP3    H234769   0.662   2.909   3.209  0.6219  2.0421 -0.1096
11606TIP3   OH234770   0.805   0.937   1.389 -0.6737 -0.0297  0.2562
11606TIP3    H134771   0.888   0.889   1.389  0.4153  1.8127  0.8896
11606TIP3    H234772   0.788   0.954   1.481 -0.9685  0.9170  0.0295
11607TIP3   OH234773   6.770   2.539   1.066 -0.0622 -0.0207 -0.1571
11607TIP3    H134774   6.849   2.486   1.079 -0.0753  0.5424  2.3905
11607TIP3    H234775   6.737   2.511   0.981  2.2372 -1.1058 -0.7460
11608TIP3   OH234776   7.423   2.108   2.068  0.3408  0.3159  0.0327
11608TIP3    H134777   7.349   2.098   2.128  0.3772  0.7784  0.1517
11608TIP3    H234778   7.486   2.162   2.115  0.3201  0.7840 -0.4732
11609TIP3   OH234779   0.234   1.927   1.883 -0.1935  0.0274  0.2179
11609TIP3    H134780   0.148   1.964   1.865 -1.4523 -2.7678  0.2988
11609TIP3    H234781   0.233   1.841   1.841  1.0725 -1.7164  3.5447
11610TIP3   OH234782   4.564   6.146   2.059 -0.2768 -0.2199 -0.2592
11610TIP3    H134783   4.620   6.072   2.034 -0.1629 -0.2999  0.2249
11610TIP3    H234784   4.483   6.132   2.010 -0.6609 -1.2649  0.6484
11611TIP3   OH234785   1.547   3.013   1.273 -0.1018  0.0972 -0.0267
11611TIP3    H134786   1.630   2.988   1.231 -1.4603 -1.8329 -1.7198
11611TIP3    H234787   1.550   3.108   1.278  1.4323  0.1807 -1.8062
11612TIP3   OH234788   1.495   1.845   1.956  0.0853 -0.3125  0.2278
11612TIP3    H134789   1.579   1.831   1.912 -0.9991 -0.9578 -1.6790
11612TIP3    H234790   1.472   1.759   1.992  0.8316  0.1496  1.8520
11613TIP3   OH234791   0.014   6.652   1.063  0.5979 -0.0929  0.0241
11613TIP3    H134792  -0.003   6.682   1.153 -0.7258 -0.9251  0.0720
11613TIP3    H234793   0.037   6.731   1.015  0.3400  0.5129  0.8850
11614TIP3   OH234794   7.766   0.515   1.345  0.2234 -0.3383  0.4647
11614TIP3    H134795   7.831   0.460   1.301 -0.1457 -2.0045  1.9531
11614TIP3    H234796   7.721   0.559   1.273  3.9660  2.0867 -0.5808
11615TIP3   OH234797   0.268   3.472   0.094 -0.4976  0.0432  0.1484
11615TIP3    H134798   0.252   3.378   0.083 -1.0806  0.2388 -0.7268
11615TIP3    H234799   0.239   3.490   0.184  0.5206 -0.7950  0.6527
11616TIP3   OH234800   2.916   1.478   0.762 -0.0946  0.1820  0.6073
11616TIP3    H134801   2.930   1.497   0.669 -2.2814  1.1835  0.4510
11616TIP3    H234802   3.004   1.476   0.799  0.7047  1.9509 -1.0922
11617TIP3   OH234803   2.975   2.854   2.195 -0.0475  0.4898  0.3055
11617TIP3    H134804   2.915   2.789   2.160 -1.1920  0.9278  1.4147
11617TIP3    H234805   2.991   2.826   2.285  2.8429 -0.6262 -0.4911
11618TIP3   OH234806   1.873   1.979   2.721  0.3581 -0.2162 -0.3658
11618TIP3    H134807   1.856   1.885   2.734  3.6036 -0.8602 -0.4753
11618TIP3    H234808   1.826   2.022   2.792  0.1844 -2.0473  0.6430
11619TIP3   OH234809   1.479   0.717   1.658 -0.2516  0.5210  0.2541
11619TIP3    H134810   1.513   0.762   1.736 -0.3795  1.3779 -0.1777
11619TIP3    H234811   1.413   0.777   1.623  0.4822  0.5768 -1.0621
11620TIP3   OH234812   7.323   4.332   1.514  0.6173  0.6726 -0.5023
11620TIP3    H134813   7.411   4.325   1.476  0.4431  1.2777 -1.0260
11620TIP3    H234814   7.334   4.387   1.591  0.8774 -0.0972  0.0082
11621TIP3   OH234815   6.071   3.247   0.543 -0.2136  0.3716 -0.2459
11621TIP3    H134816   6.082   3.334   0.582  1.1837  0.9287 -1.7849
11621TIP3    H234817   6.054   3.189   0.617  0.8795  1.6309  1.0298
11622TIP3   OH234818   7.391   1.890   3.587  0.0659  0.1532 -0.3232
11622TIP3    H134819   7.299   1.869   3.570  0.8960 -2.1300 -2.2799
11622TIP3    H234820   7.420   1.934   3.508  0.7382  0.6378  0.1883
11623TIP3   OH234821   0.527   5.374   0.195 -0.2534 -0.0855  0.0399
11623TIP3    H134822   0.465   5.434   0.236 -0.8113  1.0810 -2.3907
11623TIP3    H234823   0.613   5.407   0.220 -0.5407  2.1466 -1.7330
11624TIP3   OH234824   1.718   0.995   0.517  0.3890  0.1595 -0.2209
11624TIP3    H134825   1.693   0.953   0.435 -0.6182  1.3358 -0.5353
11624TIP3    H234826   1.750   0.924   0.572  0.3921 -0.7486 -1.3722
11625TIP3   OH234827   0.745   0.233   0.044 -0.2886  0.1131 -0.3425
11625TIP3    H134828   0.797   0.173   0.096 -2.1019 -1.1091  0.1297
11625TIP3    H234829   0.768   0.320   0.076  0.2072 -0.5079  1.0146
11626TIP3   OH234830   6.979   0.433   0.160 -0.4808  0.1317  0.1681
11626TIP3    H134831   6.960   0.470   0.247  1.9970  0.0373  0.7723
11626TIP3    H234832   6.916   0.476   0.102 -0.0948  2.5645  1.4833
11627TIP3   OH234833   7.228   2.130   2.309 -0.5473 -0.3760  0.1717
11627TIP3    H134834   7.267   2.162   2.390 -0.1567 -0.1803 -0.0882
11627TIP3    H234835   7.141   2.101   2.333 -1.5968  2.5565  0.0906
11628TIP3   OH234836   0.346   0.172   1.594  0.3172 -0.2188 -0.1229
11628TIP3    H134837   0.260   0.133   1.575  0.1791  0.9593 -2.0810
11628TIP3    H234838   0.345   0.256   1.549  1.7927  0.6780  1.4491
11629TIP3   OH234839   7.502   3.272   0.580  0.3230  0.0886  0.1479
11629TIP3    H134840   7.583   3.243   0.538 -0.1154 -0.6185 -0.2126
11629TIP3    H234841   7.451   3.312   0.509  0.7335  1.3575  0.5507
11630TIP3   OH234842   0.629   1.555   1.623 -0.3455  0.9001  0.1997
11630TIP3    H134843   0.571   1.575   1.550  0.3962  1.1597 -0.3204
11630TIP3    H234844   0.576   1.500   1.681  0.1361 -2.1717 -2.1643
11631TIP3   OH234845   0.331   3.103   1.091  0.3103  0.5252  0.4890
11631TIP3    H134846   0.420   3.076   1.068 -0.0555 -0.0520 -0.2560
11631TIP3    H234847   0.318   3.071   1.180  1.0476  1.1016  0.8120
11632TIP3   OH234848   0.186   3.172   3.845 -0.9296  0.2896  0.0134
11632TIP3    H134849   0.159   3.228   3.772 -0.0319  1.4913  0.5783
11632TIP3    H234850   0.110   3.170   3.903 -1.4793 -0.2801 -0.7181
11633TIP3   OH234851   0.248   6.764   0.706  0.0882  0.0381  0.1905
11633TIP3    H134852   0.328   6.715   0.724  0.4312  0.3554 -0.4360
11633TIP3    H234853   0.216   6.729   0.623 -1.3609 -1.2725  1.2687
11634TIP3   OH234854   6.803   1.331   2.232  0.2341  0.2444  0.0599
11634TIP3    H134855   6.785   1.421   2.258 -1.2038  0.7370 -2.5146
11634TIP3    H234856   6.725   1.282   2.259 -0.2779  0.3356 -1.2471
11635TIP3   OH234857   0.218   1.694   1.256 -0.3214 -0.0721  0.9005
11635TIP3    H134858   0.294   1.731   1.211 -0.5774 -2.7012 -1.8987
11635TIP3    H234859   0.145   1.750   1.230 -0.2802 -0.9261 -1.2064
11636TIP3   OH234860   1.240   2.499   2.957  0.2215  0.5003 -0.1072
11636TIP3    H134861   1.310   2.506   2.892  1.0815 -0.3044  0.7191
11636TIP3    H234862   1.285   2.478   3.039 -1.1867 -2.7770 -0.1067
11637TIP3   OH234863   0.797   2.796   3.736  0.6944  0.4512 -0.4528
11637TIP3    H134864   0.745   2.860   3.785 -0.7055 -2.5439  2.1223
11637TIP3    H234865   0.769   2.807   3.645 -1.2565  1.8426  0.2893
11638TIP3   OH234866   1.395   2.504   1.545 -0.2729 -0.5268 -0.1472
11638TIP3    H134867   1.359   2.591   1.565 -0.1094 -0.5208  0.1235
11638TIP3    H234868   1.318   2.450   1.526 -0.4233 -0.4995  0.3687
11639TIP3   OH234869   2.525   0.035   2.533  0.4233 -0.2575  0.2855
11639TIP3    H134870   2.446   0.054   2.481 -0.1869 -0.8268  0.9896
11639TIP3    H234871   2.582  -0.013   2.473 -0.5009 -1.3771  0.2728
11640TIP3   OH234872   7.843   1.520   1.544 -0.6970 -0.1354  0.0385
11640TIP3    H134873   7.815   1.467   1.470 -3.0101  1.8134 -0.5194
11640TIP3    H234874   7.938   1.527   1.534 -0.6889 -1.9409 -1.3409
11641TIP3   OH234875   1.336   4.871   2.487 -0.0024 -0.0948  0.1897
11641TIP3    H134876   1.380   4.841   2.407  1.1336  0.2575  0.6679
11641TIP3    H234877   1.314   4.791   2.534  0.4137 -0.2734  0.0851
11642TIP3   OH234878   1.964   0.739   1.600  0.3919 -0.1723 -0.3224
11642TIP3    H134879   1.964   0.743   1.504 -0.1721 -0.4301 -0.3318
11642TIP3    H234880   1.904   0.668   1.621 -0.1168  0.4224  0.2482
11643TIP3   OH234881   2.654   0.542   0.126 -0.2092  0.1187  0.4049
11643TIP3    H134882   2.687   0.599   0.195  0.1672 -0.3087  0.5811
11643TIP3    H234883   2.606   0.474   0.171  2.5088 -1.8259  0.4791
11644TIP3   OH234884   1.205   0.900   1.625  0.0647  0.2291  0.2804
11644TIP3    H134885   1.186   0.820   1.675 -0.2397  0.8068  1.1099
11644TIP3    H234886   1.130   0.958   1.644 -0.1337  0.3904 -0.9866
11645TIP3   OH234887   6.623   0.240   1.397  0.0377  0.8274 -0.5967
11645TIP3    H134888   6.667   0.280   1.322 -1.0014  0.2724 -1.5306
11645TIP3    H234889   6.530   0.246   1.375 -0.2504  0.1952  0.4253
11646TIP3   OH234890   5.230   6.489   1.125  0.0058 -0.2572 -0.1980
11646TIP3    H134891   5.175   6.482   1.203  0.1083 -1.3458 -0.2278
11646TIP3    H234892   5.169   6.477   1.052  0.0884 -0.2652 -0.2653
11647TIP3   OH234893   3.031   0.122   1.327  0.0334  0.6353  0.3185
11647TIP3    H134894   2.939   0.140   1.348 -0.9433 -3.9833  0.6963
11647TIP3    H234895   3.079   0.149   1.405 -0.9324  3.3276  0.0298
11648TIP3   OH234896   7.191   6.678   0.167 -0.8664 -0.0444  0.0980
11648TIP3    H134897   7.192   6.668   0.263  0.5766  2.4958  0.3988
11648TIP3    H234898   7.100   6.700   0.146 -0.6420  2.1569  1.2520
11649TIP3   OH234899   6.912   3.406   2.383 -0.2544 -0.2267  0.4584
11649TIP3    H134900   6.893   3.499   2.398  1.6773 -0.0964  2.2955
11649TIP3    H234901   6.942   3.402   2.293  1.1197  1.2087  0.8198
11650TIP3   OH234902   1.295   1.368   1.494  0.0261  0.3699  0.5311
11650TIP3    H134903   1.216   1.414   1.521 -0.3698  0.3617 -0.5918
11650TIP3    H234904   1.325   1.415   1.416 -0.8848 -1.7818 -1.1846
11651TIP3   OH234905   1.699   3.356   1.751  0.7406  0.4723 -0.3849
11651TIP3    H134906   1.716   3.415   1.678  3.2173  1.8558  1.2313
11651TIP3    H234907   1.748   3.276   1.729  0.7604  0.5577 -0.6490
11652TIP3   OH234908   0.132   1.871   0.461 -0.1605 -0.3149 -0.9206
11652TIP3    H134909   0.098   1.855   0.549  1.8221  0.2727 -0.0254
11652TIP3    H234910   0.058   1.908   0.413 -1.7114 -2.1361  0.0382
11653TIP3   OH234911   3.269   4.203   4.722  0.1713  0.0369 -0.7014
11653TIP3    H134912   3.271   4.259   4.799 -2.7058 -2.5828  1.4109
11653TIP3    H234913   3.245   4.261   4.650 -2.0966  1.6272  1.2827
11654TIP3   OH234914   6.990   1.187   0.769  0.2953 -0.1170 -0.2627
11654TIP3    H134915   7.059   1.121   0.772  1.0339  0.7159  1.3319
11654TIP3    H234916   6.985   1.211   0.676  0.3164 -2.0707 -0.8022
11655TIP3   OH234917   2.305   0.511   0.729 -0.1173  0.6224  0.0934
11655TIP3    H134918   2.353   0.520   0.811  0.6717  1.5098 -0.4548
11655TIP3    H234919   2.365   0.464   0.671  0.5013  2.6049 -0.9109
11656TIP3   OH234920   1.275   3.568   0.195 -0.7434  0.0521 -0.4110
11656TIP3    H134921   1.270   3.475   0.174 -0.6830  0.0109 -0.2442
11656TIP3    H234922   1.367   3.591   0.180 -0.4590 -0.2273  0.8450
11657TIP3   OH234923   4.388   5.029   5.689 -0.7112  0.2664 -0.1656
11657TIP3    H134924   4.471   5.053   5.731 -0.6568  2.3146 -1.3644
11657TIP3    H234925   4.325   5.093   5.723 -1.2533  0.2481 -1.1245
11658TIP3   OH234926   4.593   3.861   5.966 -0.6015 -0.1673  0.8172
11658TIP3    H134927   4.671   3.885   6.016 -0.0109  0.3478 -0.3355
11658TIP3    H234928   4.520   3.901   6.014  0.0694  1.2385  0.6644
11659TIP3   OH234929   1.901   3.286   1.513  0.1208 -0.2415 -0.1024
11659TIP3    H134930   1.827   3.236   1.546 -0.4672 -0.3721 -1.5956
11659TIP3    H234931   1.865   3.339   1.441  1.4379 -0.2248 -0.7706
11660TIP3   OH234932   1.175   2.166   1.940  0.0147 -0.0650 -0.4180
11660TIP3    H134933   1.222   2.238   1.898 -0.1266 -0.3101 -1.0011
11660TIP3    H234934   1.231   2.141   2.014  0.5115  0.0382 -0.7543
11661TIP3   OH234935   4.704   6.231   6.366  0.1467  0.5260 -0.0961
11661TIP3    H134936   4.672   6.302   6.311  0.7685 -0.4392 -1.7365
11661TIP3    H234937   4.679   6.151   6.319  2.0350 -0.2884  0.2493
11662TIP3   OH234938   2.347   1.712   2.818 -0.3070  0.4699 -0.0389
11662TIP3    H134939   2.329   1.695   2.725  1.1829 -1.3742 -0.0189
11662TIP3    H234940   2.322   1.804   2.831 -0.2321  0.8397 -2.3360
11663TIP3   OH234941   0.377   1.394   0.254 -0.4113 -0.3553 -0.0215
11663TIP3    H134942   0.412   1.350   0.332  0.0857  0.4898  0.2467
11663TIP3    H234943   0.339   1.476   0.288  1.7236  1.0537 -0.8987
11664TIP3   OH234944   4.842   3.968   6.127 -0.0732 -0.0245 -0.2202
11664TIP3    H134945   4.832   4.063   6.129 -1.3510 -0.1887  1.6327
11664TIP3    H234946   4.863   3.944   6.217  1.4207 -1.3933 -0.9014
11665TIP3   OH234947   1.669   1.429   1.915  0.6748 -0.0078  0.1210
11665TIP3    H134948   1.700   1.473   1.994 -0.2544 -0.7718  0.9321
11665TIP3    H234949   1.748   1.411   1.865  1.1891  1.3468  0.4175
11666TIP3   OH234950   3.238   1.645   0.206  0.0916  0.4942  0.1115
11666TIP3    H134951   3.244   1.561   0.162  1.3587 -0.2969  1.7492
11666TIP3    H234952   3.144   1.658   0.220 -0.0796 -0.9009  0.3265
11667TIP3   OH234953   0.467   3.041   0.762  0.1159 -0.0972 -0.0188
11667TIP3    H134954   0.454   2.987   0.840  0.5492  0.9810  0.8148
11667TIP3    H234955   0.562   3.054   0.758 -0.0166  0.8775 -0.0238
11668TIP3   OH234956   1.274   1.676   3.617 -0.1364 -0.3972  1.0818
11668TIP3    H134957   1.280   1.768   3.595  1.6539 -0.7526 -0.0898
11668TIP3    H234958   1.194   1.668   3.668 -0.3103  1.7917  1.1949
11669TIP3   OH234959   3.014   2.086   1.042  0.0899 -0.1606 -0.1488
11669TIP3    H134960   2.975   2.131   1.117  2.1028  0.8973  0.2985
11669TIP3    H234961   3.079   2.027   1.080 -0.3254 -1.1471 -0.9399
11670TIP3   OH234962   2.232   2.125   1.177 -0.5831 -0.0674  0.9584
11670TIP3    H134963   2.189   2.046   1.211 -0.0477 -0.0984  1.5622
11670TIP3    H234964   2.175   2.154   1.106  0.7910 -2.8083 -1.3775
11671TIP3   OH234965   6.093   6.895   5.484 -0.2486 -0.2294 -0.3983
11671TIP3    H134966   6.089   6.990   5.474 -0.4701 -0.0837  1.0549
11671TIP3    H234967   6.177   6.879   5.528  0.5942 -0.8460 -2.1805
11672TIP3   OH234968   3.983   0.739   1.421  0.0888  0.0187  0.3450
11672TIP3    H134969   3.938   0.690   1.352  1.4407 -0.8530  0.0631
11672TIP3    H234970   4.021   0.672   1.477  1.2582  0.7454  0.4244
11673TIP3   OH234971   3.900   1.110   3.281  0.7250  0.7119 -0.5272
11673TIP3    H134972   3.945   1.177   3.229  2.1346  1.3055  1.3979
11673TIP3    H234973   3.962   1.088   3.350 -0.1833 -1.8038 -0.4852
11674TIP3   OH234974   3.123   3.824   2.554 -0.1663  0.0262  0.4042
11674TIP3    H134975   3.218   3.839   2.555 -0.2625  0.8225 -0.9594
11674TIP3    H234976   3.113   3.732   2.578  0.8889  0.1826  1.5139
11675TIP3   OH234977   4.094   2.820   0.376  0.4001  0.9473 -0.5212
11675TIP3    H134978   4.025   2.843   0.313 -0.2886 -1.5099 -0.7087
11675TIP3    H234979   4.058   2.847   0.461 -2.5798 -3.7587 -0.0952
11676TIP3   OH234980   4.709   5.179   5.503 -0.0976  0.0566 -0.2942
11676TIP3    H134981   4.660   5.162   5.583  1.3519 -1.0744  0.3654
11676TIP3    H234982   4.796   5.206   5.533 -0.5555  3.0823 -1.4193
11677TIP3   OH234983   1.418   0.588   0.003 -0.6420  0.1764 -0.5082
11677TIP3    H134984   1.406   0.679  -0.021 -1.1227  0.4069  0.5876
11677TIP3    H234985   1.479   0.590   0.077  0.4561 -0.4923 -1.3677
11678TIP3   OH234986   2.245   0.930   1.383 -0.4620 -0.4644 -1.0066
11678TIP3    H134987   2.171   0.872   1.365 -1.0597 -0.1058  0.1937
11678TIP3    H234988   2.217   0.981   1.459  1.8411 -1.7919  0.8106
11679TIP3   OH234989   3.425   0.757   0.179 -0.2806 -0.0911  0.2882
11679TIP3    H134990   3.496   0.819   0.165 -0.8170  0.3886 -0.3299
11679TIP3    H234991   3.402   0.727   0.091 -0.7913 -0.3077  0.4957
11680TIP3   OH234992   3.652   1.623   0.430 -0.3156 -0.0484 -0.2084
11680TIP3    H134993   3.558   1.630   0.415 -0.3759  0.6730  0.5167
11680TIP3    H234994   3.662   1.615   0.525  0.3170 -0.7507 -0.3255
11681TIP3   OH234995   2.131   2.009   2.592 -0.3651  0.3012 -0.1524
11681TIP3    H134996   2.053   2.007   2.646  0.1779 -0.8720  0.5967
11681TIP3    H234997   2.140   1.920   2.557  0.3498  0.5502 -0.6299
11682TIP3   OH234998   1.736   1.736   2.805 -0.5713  0.4746 -0.1820
11682TIP3    H134999   1.651   1.769   2.832  0.0709  1.6765  0.3776
11682TIP3    H235000   1.720   1.695   2.720 -2.2461 -1.7862  1.1662
11683TIP3   OH235001   2.206   1.536   1.009  0.5839 -0.6333  0.3450
11683TIP3    H135002   2.169   1.456   1.046  1.0363 -0.8002  0.4423
11683TIP3    H235003   2.131   1.595   0.998  0.3430 -0.8400  0.8615
11684TIP3   OH235004   2.249   2.918   1.400  0.4456  0.2274  0.2839
11684TIP3    H135005   2.221   2.988   1.340 -0.5544 -0.3966  0.0187
11684TIP3    H235006   2.340   2.900   1.375 -0.2604 -0.7050 -1.7089
11685TIP3   OH235007   1.483   4.801   0.840  0.1128 -0.0087  0.0378
11685TIP3    H135008   1.523   4.716   0.860 -0.5263 -0.4434 -0.4966
11685TIP3    H235009   1.464   4.797   0.747 -0.6124  0.4267  0.1604
11686TIP3   OH235010   4.460   4.906   4.035  0.0265  0.0849 -0.2244
11686TIP3    H135011   4.429   4.923   4.124 -1.6149 -0.6907 -0.6311
11686TIP3    H235012   4.537   4.850   4.047  1.6665  2.4833  0.8191
11687TIP3   OH235013   3.596   0.200   1.811 -0.0067 -0.1802 -0.4829
11687TIP3    H135014   3.642   0.280   1.836 -0.1802  0.3570 -1.8573
11687TIP3    H235015   3.541   0.179   1.887  0.3636  0.7671  0.0459
11688TIP3   OH235016   5.688   3.061   6.234 -0.2839  0.4192 -0.0217
11688TIP3    H135017   5.697   3.016   6.317 -0.8487  1.0427  0.3851
11688TIP3    H235018   5.665   3.151   6.258  1.1564  1.0126 -0.7993
11689TIP3   OH235019   2.505   1.954   0.481  0.2516 -0.6206 -0.1551
11689TIP3    H135020   2.563   1.986   0.412  0.3921 -2.7932 -1.0797
11689TIP3    H235021   2.544   1.871   0.509 -0.5579 -0.4274  1.5936
11690TIP3   OH235022   1.572   2.403   2.090 -0.2822  0.3038  0.2815
11690TIP3    H135023   1.637   2.456   2.045  1.0059 -2.4999 -1.3085
11690TIP3    H235024   1.506   2.465   2.121  0.4970  2.6570 -2.6103
11691TIP3   OH235025   1.052   2.562   1.088 -0.3824 -0.4897 -0.2469
11691TIP3    H135026   1.127   2.614   1.116  0.0690 -0.5579 -1.3016
11691TIP3    H235027   1.082   2.471   1.096  0.2277 -0.4784 -2.2247
11692TIP3   OH235028   3.417   4.332   6.347 -0.0895 -0.2258 -0.0272
11692TIP3    H135029   3.381   4.337   6.259 -1.3256  0.4709  0.4978
11692TIP3    H235030   3.414   4.239   6.370 -2.6107 -0.0659  0.4084
11693TIP3   OH235031   2.247   1.428   2.634  0.2222  0.2285  0.0829
11693TIP3    H135032   2.252   1.351   2.577 -0.4349  0.7122 -0.6311
11693TIP3    H235033   2.252   1.503   2.575  2.0517  0.7656  0.8710
11694TIP3   OH235034   3.948   0.079   2.101  0.1748  0.2304 -0.8929
11694TIP3    H135035   4.015   0.061   2.034 -0.6550  0.6222 -1.8441
11694TIP3    H235036   3.915  -0.007   2.126 -0.3299  0.1460 -1.8416
11695TIP3   OH235037   0.432   6.077   1.744  0.3502 -0.2618  0.2773
11695TIP3    H135038   0.497   6.007   1.735  0.7460  0.3406 -1.6630
11695TIP3    H235039   0.361   6.052   1.684  0.9497  1.5051 -1.1964
11696TIP3   OH235040   4.468   6.793   5.480  0.3554 -0.0767 -0.1815
11696TIP3    H135041   4.540   6.734   5.454 -0.4763 -0.4916 -1.6218
11696TIP3    H235042   4.490   6.877   5.439  1.2813  0.4990  1.4526
11697TIP3   OH235043   1.707   1.435   2.560  0.4157 -0.9558 -0.2188
11697TIP3    H135044   1.800   1.440   2.579 -0.0176  1.4983  1.5288
11697TIP3    H235045   1.677   1.526   2.559 -2.1072 -1.7279 -0.0124
11698TIP3   OH235046   5.583   6.137   4.109  0.2116 -0.1199  0.0349
11698TIP3    H135047   5.497   6.107   4.080  1.1842 -1.6427 -1.3734
11698TIP3    H235048   5.626   6.059   4.143  0.1194  1.1172  3.1422
11699TIP3   OH235049   4.387   4.265   6.236 -0.3659  0.1272 -0.2129
11699TIP3    H135050   4.346   4.330   6.180  0.2893  0.3409 -0.4539
11699TIP3    H235051   4.386   4.304   6.324  1.0227  0.9573 -0.5428
11700TIP3   OH235052   2.010   0.763   1.315 -0.3163 -0.6871 -0.0520
11700TIP3    H135053   2.002   0.683   1.263 -2.6391  0.1287 -1.0125
11700TIP3    H235054   1.927   0.809   1.302  0.5363  1.3526  1.3837
11701TIP3   OH235055   3.239   1.177   4.209  0.0269 -0.3038 -0.3438
11701TIP3    H135056   3.303   1.116   4.171 -0.5757 -0.6963 -0.7384
11701TIP3    H235057   3.154   1.141   4.184 -0.3857 -0.5325  1.3462
11702TIP3   OH235058   1.016   1.854   2.280  0.4333 -0.0108 -0.4140
11702TIP3    H135059   0.979   1.811   2.357 -0.3657  1.0478 -0.2088
11702TIP3    H235060   0.986   1.801   2.207  0.6442 -0.6355 -0.0569
11703TIP3   OH235061   2.493   2.878   0.550  0.0547  0.2012  0.1776
11703TIP3    H135062   2.533   2.945   0.494  1.1459  0.2665  1.0424
11703TIP3    H235063   2.472   2.806   0.489  0.4217  0.6298 -0.4630
11704TIP3   OH235064   0.997   0.693   1.083 -0.2426  0.8617  0.3848
11704TIP3    H135065   0.943   0.752   1.030 -1.8281 -1.0261 -0.1788
11704TIP3    H235066   1.005   0.613   1.030  0.4621 -0.0452  1.8140
11705TIP3   OH235067   0.743   2.015   0.549  0.6141  0.0933 -0.3061
11705TIP3    H135068   0.839   2.015   0.543  0.8947  0.3597  3.0895
11705TIP3    H235069   0.718   1.924   0.531  1.3562  0.3042 -2.5623
11706TIP3   OH235070   1.392   0.450   1.214 -0.2945 -0.2303  0.3905
11706TIP3    H135071   1.361   0.538   1.191 -1.4940 -0.4042  1.3472
11706TIP3    H235072   1.361   0.395   1.143 -1.7673 -0.3183  1.0910
11707TIP3   OH235073   7.345   4.667   6.039  0.1660  0.5613  0.1314
11707TIP3    H135074   7.438   4.681   6.060  0.5645 -2.2366  0.4897
11707TIP3    H235075   7.298   4.705   6.113  0.9661  2.8327 -0.4957
11708TIP3   OH235076   2.669   1.287   1.351 -0.0311 -0.3557 -0.5537
11708TIP3    H135077   2.671   1.367   1.299  0.2440 -1.2216 -1.8934
11708TIP3    H235078   2.581   1.252   1.338 -0.2987 -0.0530  0.3892
11709TIP3   OH235079   0.782   1.428   1.251  0.0621 -0.0920  0.2520
11709TIP3    H135080   0.701   1.411   1.204 -0.8269  1.2451  1.2538
11709TIP3    H235081   0.820   1.341   1.265  1.4870 -0.4089 -4.7846
11710TIP3   OH235082   4.747   4.985   6.179  0.2086 -0.2686  1.1682
11710TIP3    H135083   4.656   4.995   6.151  0.3726 -1.3066  0.1988
11710TIP3    H235084   4.787   5.070   6.161  0.3723 -0.9630 -2.0731
11711TIP3   OH235085   0.257   1.869   0.859 -0.3837 -0.1103  0.0613
11711TIP3    H135086   0.229   1.781   0.831 -2.6772  0.6523 -0.1271
11711TIP3    H235087   0.199   1.929   0.811 -0.0169  1.4447  1.5372
11712TIP3   OH235088   4.353   2.717   0.391 -0.2809 -0.3722 -0.2188
11712TIP3    H135089   4.262   2.742   0.405 -0.3502 -0.8868  0.2815
11712TIP3    H235090   4.355   2.682   0.303 -0.1435  1.5437 -1.0067
11713TIP3   OH235091   7.424   5.087   4.475 -0.3497 -0.1593 -0.2544
11713TIP3    H135092   7.493   5.023   4.491  0.0782  0.0919 -1.0667
11713TIP3    H235093   7.399   5.118   4.562 -1.6417 -2.5422  0.2525
11714TIP3   OH235094   2.884   0.166   0.136 -0.8700 -0.7357 -0.0242
11714TIP3    H135095   2.889   0.096   0.071 -1.0716 -1.3275  0.6003
11714TIP3    H235096   2.975   0.191   0.152 -0.6980 -2.0328  1.0384
11715TIP3   OH235097   0.747   1.960   1.579 -0.1903 -0.0725 -0.3919
11715TIP3    H135098   0.672   1.907   1.554 -1.8254  2.1122 -0.2877
11715TIP3    H235099   0.727   1.992   1.667  1.4238 -0.4459  0.1328
11716TIP3   OH235100   4.527   6.129   6.067  1.1813  0.7862 -0.1127
11716TIP3    H135101   4.620   6.136   6.088  0.8992 -1.2677  2.0700
11716TIP3    H235102   4.490   6.214   6.091  1.8316  0.2997  2.7754
11717TIP3   OH235103   5.158   3.710   6.354 -0.0920 -0.2465 -0.0072
11717TIP3    H135104   5.220   3.647   6.316  0.7358  1.0629 -0.8599
11717TIP3    H235105   5.076   3.661   6.361  0.5675 -1.4574 -0.5498
11718TIP3   OH235106   1.687   0.655   1.899 -0.0454 -0.5189 -0.5710
11718TIP3    H135107   1.748   0.616   1.837  2.2447 -1.0504  1.9121
11718TIP3    H235108   1.715   0.746   1.907 -1.2387 -0.0691 -1.3744
11719TIP3   OH235109   1.471   2.934   2.030  0.5442  0.1985  0.0694
11719TIP3    H135110   1.386   2.926   1.987  0.8848 -0.8711 -0.4277
11719TIP3    H235111   1.472   3.023   2.066 -0.9888  0.0443  0.5169
11720TIP3   OH235112   1.083   7.441   1.455 -0.0140  0.4365  0.0509
11720TIP3    H135113   1.062   7.365   1.509 -1.7891  1.0087  0.2124
11720TIP3    H235114   1.103   7.405   1.369 -0.0704 -0.2702  0.3347
11721TIP3   OH235115   5.438   5.356   4.788  0.0781  0.0033 -0.2653
11721TIP3    H135116   5.396   5.442   4.776 -0.7171 -0.3431 -0.0155
11721TIP3    H235117   5.401   5.302   4.719 -0.7813 -0.6350  0.6858
11722TIP3   OH235118   2.641   1.933   2.749 -0.0910 -0.4099  0.2444
11722TIP3    H135119   2.657   1.881   2.670  1.5131 -0.6556  0.7202
11722TIP3    H235120   2.612   1.870   2.815 -0.6217 -0.3238  0.0970
11723TIP3   OH235121   0.506   1.833   1.528  0.1456 -0.3149  0.9084
11723TIP3    H135122   0.450   1.903   1.493  2.1899  0.8973 -0.0558
11723TIP3    H235123   0.484   1.757   1.475  0.2911  0.4774 -0.3281
11724TIP3   OH235124   5.279   4.524   4.565 -0.3623  0.3541  0.2677
11724TIP3    H135125   5.351   4.471   4.601 -1.1156 -0.5562  0.4536
11724TIP3    H235126   5.274   4.496   4.474 -0.2656  0.6630  0.1673
11725TIP3   OH235127   3.473   0.803   2.251 -0.0599  0.0317  0.4410
11725TIP3    H135128   3.385   0.831   2.275 -0.0742  0.1989  0.2005
11725TIP3    H235129   3.527   0.882   2.259 -0.3627  0.4755 -1.5686
11726TIP3   OH235130   1.777   3.070   6.201  0.2533 -0.2030  0.3616
11726TIP3    H135131   1.690   3.098   6.230  0.7554  1.4194  0.3482
11726TIP3    H235132   1.817   3.150   6.165  2.0369 -0.7675  1.0573
11727TIP3   OH235133   1.249   4.248   3.053 -0.1790 -0.2238 -0.4174
11727TIP3    H135134   1.246   4.312   2.981 -0.6036  0.6427  0.3602
11727TIP3    H235135   1.310   4.181   3.022 -0.4192  0.0981 -1.6221
11728TIP3   OH235136   4.093   6.286   6.203  0.1682 -0.8303  0.1541
11728TIP3    H135137   4.026   6.226   6.236 -0.1244 -0.8786 -0.5340
11728TIP3    H235138   4.172   6.233   6.197 -0.4799 -1.5662 -2.0108
11729TIP3   OH235139   5.184   6.674   5.541  0.1133 -0.1378 -0.2623
11729TIP3    H135140   5.110   6.614   5.545 -0.9989  1.1513 -0.8418
11729TIP3    H235141   5.210   6.674   5.449  1.9040 -1.8293  0.2262
11730TIP3   OH235142   4.309   2.976   0.540 -0.1609 -0.3537  0.1684
11730TIP3    H135143   4.267   2.893   0.564  1.2800 -1.0916  0.2092
11730TIP3    H235144   4.402   2.960   0.553  0.2738  0.7277 -1.4773
11731TIP3   OH235145   4.122   6.930   6.149  0.0979  0.8287 -0.3403
11731TIP3    H135146   4.097   6.883   6.070  1.3530  1.1539 -0.9436
11731TIP3    H235147   4.204   6.888   6.177  1.0285  2.3910 -0.6693
11732TIP3   OH235148   2.542   1.538   2.673 -0.7851 -0.1856 -0.0954
11732TIP3    H135149   2.455   1.516   2.705 -0.1838  0.3110  1.9643
11732TIP3    H235150   2.527   1.608   2.609 -2.0501 -1.5963 -1.3844
11733TIP3   OH235151   7.895   1.754   0.885 -0.3047  0.1940  0.1195
11733TIP3    H135152   7.896   1.787   0.975  2.1351 -0.3839  0.3249
11733TIP3    H235153   7.857   1.666   0.892 -0.3490  0.2443  0.5407
11734TIP3   OH235154   4.323   6.204   5.692 -0.0961 -0.2995 -0.1601
11734TIP3    H135155   4.240   6.232   5.730  0.9996  2.2430  0.4921
11734TIP3    H235156   4.305   6.197   5.598 -1.1703 -0.2388  0.0343
11735TIP3   OH235157   0.169   1.391   1.250  0.2054  0.1474  0.3198
11735TIP3    H135158   0.178   1.478   1.212  2.3196  0.3407  1.2112
11735TIP3    H235159   0.222   1.393   1.329  0.5646 -2.0641  0.1835
11736TIP3   OH235160   1.689   2.335   3.491 -0.3406  0.2090 -0.4425
11736TIP3    H135161   1.677   2.428   3.475  0.1753  0.9225  2.8974
11736TIP3    H235162   1.780   2.318   3.467 -0.0163  0.8877  0.3095
11737TIP3   OH235163   3.910   4.616   1.723  0.3911  0.3756 -0.5348
11737TIP3    H135164   3.868   4.541   1.680 -0.0163  0.5565 -0.4530
11737TIP3    H235165   3.857   4.691   1.697 -1.3471  0.1790  2.2387
11738TIP3   OH235166   0.420   2.144   2.224 -0.2727  0.2289 -0.0691
11738TIP3    H135167   0.374   2.220   2.186  0.0118  0.0036 -0.8644
11738TIP3    H235168   0.507   2.177   2.245 -0.5151  0.4249  0.6432
11739TIP3   OH235169   3.923   7.203   5.028 -0.1293  0.2503 -0.3256
11739TIP3    H135170   3.904   7.212   5.121  0.1898 -1.6557 -0.0445
11739TIP3    H235171   3.862   7.135   4.998 -0.5205  1.1505 -1.5985
11740TIP3   OH235172   6.243   5.207   5.715  0.0892  0.2071  0.0195
11740TIP3    H135173   6.227   5.159   5.796 -2.3262  0.1513 -0.4380
11740TIP3    H235174   6.251   5.140   5.648 -2.0280  0.3353 -0.4145
11741TIP3   OH235175   2.199   2.709   0.433  0.0596  0.0335 -0.0743
11741TIP3    H135176   2.187   2.803   0.423  1.8348  0.2260 -0.6410
11741TIP3    H235177   2.261   2.685   0.364  1.3438 -1.1565  1.4547
11742TIP3   OH235178   1.619   0.378   1.314 -0.2309 -0.2454  0.7174
11742TIP3    H135179   1.625   0.433   1.392 -1.2979 -0.3537  0.8901
11742TIP3    H235180   1.542   0.411   1.268 -0.1032 -0.7393  0.1476
11743TIP3   OH235181   2.781   0.526   3.083 -0.2970  0.1824  0.7254
11743TIP3    H135182   2.794   0.573   3.165  2.3360 -0.1533  0.5281
11743TIP3    H235183   2.814   0.438   3.100 -1.2383 -0.3684 -0.2268
11744TIP3   OH235184   2.140   1.366   0.356  0.0675  0.0290  0.0599
11744TIP3    H135185   2.205   1.387   0.423  1.0112  0.6821 -1.0317
11744TIP3    H235186   2.171   1.285   0.316  0.0450  0.1709 -0.2493
11745TIP3   OH235187   7.789   4.853   6.253 -0.2227 -0.3864  0.0804
11745TIP3    H135188   7.696   4.875   6.255 -0.4501 -1.2901 -0.2268
11745TIP3    H235189   7.825   4.905   6.181 -0.4582  0.0759  0.2954
11746TIP3   OH235190   5.240   5.040   6.013  0.1058 -0.1499  0.2618
11746TIP3    H135191   5.221   4.955   6.053 -2.7508  0.3171  0.0043
11746TIP3    H235192   5.236   5.024   5.919  2.7592 -0.3730  0.1467
11747TIP3   OH235193   7.223   6.394   2.763  0.4411  0.2794  0.4459
11747TIP3    H135194   7.174   6.340   2.700  1.7027 -0.4733  0.0909
11747TIP3    H235195   7.256   6.467   2.710  0.5269  0.2641  0.4786
11748TIP3   OH235196   6.047   5.546   5.880  0.0621  0.1698 -0.3517
11748TIP3    H135197   6.056   5.534   5.975 -1.1910 -0.3531 -0.2848
11748TIP3    H235198   5.959   5.513   5.860 -0.0365  1.1207 -1.5601
11749TIP3   OH235199   4.978   6.475   5.613 -0.0586 -0.1882 -0.4082
11749TIP3    H135200   4.935   6.451   5.531 -0.6354  0.0763 -0.1845
11749TIP3    H235201   4.908   6.514   5.666  0.3273 -0.3016  0.1835
11750TIP3   OH235202   0.336   1.642   1.865 -0.6911  0.2946 -0.3067
11750TIP3    H135203   0.284   1.592   1.927  0.6562 -1.5059 -0.5723
11750TIP3    H235204   0.384   1.576   1.815  2.1457  1.8954  0.1858
11751TIP3   OH235205   2.519   0.778   3.225  0.6509 -0.0535  0.3235
11751TIP3    H135206   2.457   0.773   3.298  1.3445 -2.2719  0.8176
11751TIP3    H235207   2.604   0.761   3.264  0.9981 -1.6074 -1.0370
11752TIP3   OH235208   0.907   1.785   4.820  0.2766 -0.3931 -0.7271
11752TIP3    H135209   0.998   1.775   4.847  0.1370  1.7970  0.7267
11752TIP3    H235210   0.856   1.750   4.893 -0.0945 -3.3992 -2.3359
11753TIP3   OH235211   1.353   1.083   1.468  0.3595 -0.0048 -0.2424
11753TIP3    H135212   1.325   1.049   1.553 -2.2172  0.1164 -1.0088
11753TIP3    H235213   1.331   1.176   1.471 -0.8115 -0.2321 -1.4524
11754TIP3   OH235214   7.596   5.943   1.692  0.2977  0.0401 -0.1024
11754TIP3    H135215   7.543   5.962   1.614  0.7245 -2.7280 -1.1042
11754TIP3    H235216   7.686   5.966   1.665  0.0676  1.8796  0.6006
11755TIP3   OH235217   5.671   2.351   1.754  0.8551  0.1113  1.1290
11755TIP3    H135218   5.750   2.388   1.716 -0.2234  3.1500  1.7079
11755TIP3    H235219   5.599   2.394   1.708 -0.4769 -1.6398  1.5141
11756TIP3   OH235220   6.771   4.936   6.406  0.3053  0.0072  0.4456
11756TIP3    H135221   6.797   4.975   6.489  3.4606 -0.1499 -0.4256
11756TIP3    H235222   6.761   5.011   6.346  0.1323 -0.0346  0.4226
11757TIP3   OH235223   3.319   2.072   0.344  0.4614  0.7395 -0.0788
11757TIP3    H135224   3.354   2.128   0.275  0.9866  0.1942 -0.2662
11757TIP3    H235225   3.233   2.108   0.364  0.0157  0.4887 -1.5015
11758TIP3   OH235226   1.727   1.925   0.857  0.3762 -0.5799  0.2278
11758TIP3    H135227   1.817   1.956   0.863  0.6739 -0.6342 -3.0528
11758TIP3    H235228   1.735   1.838   0.818 -1.1451 -0.3500 -0.6007
11759TIP3   OH235229   2.666   1.893   1.757  0.1574 -0.1985 -0.0186
11759TIP3    H135230   2.693   1.899   1.666  0.2363  0.0643  0.0204
11759TIP3    H235231   2.662   1.984   1.787 -1.0763 -0.2062 -0.1137
11760TIP3   OH235232   1.613   1.487   1.642 -0.0200  0.9323 -0.1010
11760TIP3    H135233   1.613   1.473   1.736  1.7520  0.9619 -0.0839
11760TIP3    H235234   1.549   1.424   1.609  0.2284  0.0724  1.0092
11761TIP3   OH235235   0.733   6.788   0.608 -0.2773 -0.2461  0.6564
11761TIP3    H135236   0.792   6.861   0.587  0.6517 -0.3929  2.6195
11761TIP3    H235237   0.748   6.724   0.538 -0.5645  1.1309 -0.6752
11762TIP3   OH235238   7.283   2.268   1.027 -0.0916 -0.2236  0.6336
11762TIP3    H135239   7.238   2.209   1.087  0.6950 -1.4413  0.0530
11762TIP3    H235240   7.341   2.319   1.084 -0.3890 -0.3754  1.0826
11763TIP3   OH235241   1.980   1.042   1.134 -0.3514 -0.1531  0.0451
11763TIP3    H135242   1.996   1.105   1.204 -0.4043 -0.2295  0.1259
11763TIP3    H235243   1.897   1.001   1.157 -0.4881 -0.0060 -0.1897
11764TIP3   OH235244   6.782   7.269   2.903 -0.0850 -0.1318  0.4816
11764TIP3    H135245   6.689   7.270   2.926  0.3415 -2.2907  2.5153
11764TIP3    H235246   6.824   7.320   2.973  0.3290  0.4016 -0.1531
11765TIP3   OH235247   3.827   7.256   6.276 -0.0917 -0.2639 -0.3990
11765TIP3    H135248   3.773   7.186   6.312 -0.0915 -0.8510 -1.5308
11765TIP3    H235249   3.790   7.336   6.313  0.0331 -0.8581  1.0590
11766TIP3   OH235250   4.217   6.222   5.346 -0.8579  0.2022 -0.0073
11766TIP3    H135251   4.148   6.289   5.352 -0.7641  0.3710 -0.7561
11766TIP3    H235252   4.285   6.263   5.293 -0.3017 -0.0712  0.4971
11767TIP3   OH235253   1.586   2.266   0.006  1.0993  0.2463 -0.3669
11767TIP3    H135254   1.586   2.227   0.093 -1.5833 -1.7423 -1.2061
11767TIP3    H235255   1.494   2.264  -0.021  1.9187  0.6618 -3.3239
11768TIP3   OH235256   2.025   2.764   0.197  0.0866 -0.3193  0.2108
11768TIP3    H135257   2.007   2.686   0.249 -0.7955 -0.4987 -0.3489
11768TIP3    H235258   2.093   2.810   0.245 -0.6277 -0.5554  1.4512
11769TIP3   OH235259   4.455   2.031   0.527 -0.4906  0.1554  0.4252
11769TIP3    H135260   4.378   2.018   0.471  0.4059 -0.8863 -0.5977
11769TIP3    H235261   4.425   2.011   0.615 -1.5594  0.3870  0.1139
11770TIP3   OH235262   0.579   3.547   5.886 -0.2419 -0.0933 -0.0545
11770TIP3    H135263   0.512   3.574   5.950  0.1934 -0.9818  0.7909
11770TIP3    H235264   0.530   3.533   5.805 -0.6426  2.1550 -0.2460
11771TIP3   OH235265   4.525   2.346   0.502  0.1158 -0.1680  0.4056
11771TIP3    H135266   4.552   2.255   0.517  0.4527 -0.2706 -0.8065
11771TIP3    H235267   4.482   2.345   0.417 -0.1326  0.7569  0.5134
11772TIP3   OH235268   6.866   3.429   6.190  0.0732 -0.3827  0.3091
11772TIP3    H135269   6.776   3.398   6.197 -0.6891  1.7102  0.1149
11772TIP3    H235270   6.918   3.349   6.179 -1.9735 -1.4897 -1.7801
11773TIP3   OH235271   6.865   2.682   6.318 -0.1000  0.2639  0.0056
11773TIP3    H135272   6.856   2.745   6.390 -1.9012 -1.5758  1.4417
11773TIP3    H235273   6.809   2.716   6.249  0.7873  1.4649 -0.1455
11774TIP3   OH235274   3.408   1.711   0.406 -0.1940 -0.1590  0.2427
11774TIP3    H135275   3.331   1.668   0.368 -0.3400  0.8127 -0.5719
11774TIP3    H235276   3.373   1.785   0.456  0.3361  1.6359 -1.9704
11775TIP3   OH235277   3.383   2.470   1.483  0.1558  0.4222 -0.1936
11775TIP3    H135278   3.360   2.461   1.576 -0.6371  0.2596 -0.3993
11775TIP3    H235279   3.394   2.564   1.470 -2.9368  0.7822 -0.6556
11776TIP3   OH235280   1.058   6.371   3.078  0.0945 -0.3200  0.6797
11776TIP3    H135281   1.076   6.465   3.081  1.5986 -0.5742  0.2259
11776TIP3    H235282   0.967   6.365   3.052 -0.1315  1.0231  1.1111
11777TIP3   OH235283   7.856   4.100   5.644  0.5217 -0.3320 -0.0211
11777TIP3    H135284   7.910   4.156   5.588 -0.9021  0.8852 -0.2055
11777TIP3    H235285   7.802   4.050   5.582  2.8145 -3.0481  0.0713
11778TIP3   OH235286   2.586   7.294   0.422 -0.0060 -0.0780  0.2319
11778TIP3    H135287   2.560   7.386   0.421  1.3883  0.3804 -3.7789
11778TIP3    H235288   2.654   7.289   0.489 -1.9958  1.1735  2.4116
11779TIP3   OH235289   2.358   1.848   0.027  0.1483 -0.0621  0.4037
11779TIP3    H135290   2.308   1.898   0.091  1.0094  0.5737  0.5885
11779TIP3    H235291   2.311   1.858  -0.055  0.7706  1.7511  0.2580
11780TIP3   OH235292   4.894   0.374   0.562 -0.3470  0.2715  0.2161
11780TIP3    H135293   4.979   0.409   0.588 -1.1424  1.4592  1.2352
11780TIP3    H235294   4.868   0.318   0.635 -0.2549 -0.4259 -0.2806
11781TIP3   OH235295   7.085   5.883   4.085 -0.0818  0.2759  0.4428
11781TIP3    H135296   7.054   5.970   4.110 -1.9533 -0.8801  2.3036
11781TIP3    H235297   7.020   5.851   4.022 -0.1055 -0.2615  0.7286
11782TIP3   OH235298   7.859   0.744   6.211  0.0104  0.3130 -0.2465
11782TIP3    H135299   7.844   0.672   6.272 -0.7488  1.7674  1.3501
11782TIP3    H235300   7.922   0.709   6.148  1.0292 -1.1854  1.5217
11783TIP3   OH235301   4.216   2.367   1.537 -0.1978  0.4801 -0.2340
11783TIP3    H135302   4.182   2.451   1.566  1.5163  1.6026 -1.3671
11783TIP3    H235303   4.147   2.304   1.559 -1.2138  2.0651  1.2420
11784TIP3   OH235304   4.128   0.054   1.858  0.6248  0.1600 -0.3692
11784TIP3    H135305   4.206   0.009   1.827  1.3013  0.7922  0.4126
11784TIP3    H235306   4.117   0.128   1.799  0.3655 -0.1713 -0.7397
11785TIP3   OH235307   3.525   2.063   1.250  0.3892  0.5038 -0.0337
11785TIP3    H135308   3.571   1.989   1.288 -0.8196  0.0243  0.5358
11785TIP3    H235309   3.521   2.044   1.156  0.5080  0.0865  0.0466
11786TIP3   OH235310   2.612   0.045   0.189  0.0957 -0.4400 -0.1760
11786TIP3    H135311   2.699   0.078   0.166 -0.0335  1.4609  1.8508
11786TIP3    H235312   2.574   0.018   0.106  1.8908  0.5046 -1.3484
11787TIP3   OH235313   1.033   4.429   5.970 -0.4194 -0.1888 -0.6601
11787TIP3    H135314   1.025   4.447   6.063 -0.6890  1.9400 -1.0846
11787TIP3    H235315   0.975   4.354   5.954 -0.8522 -0.1512  0.7437
11788TIP3   OH235316   7.740   7.135   5.129  0.1572  0.1864  0.4226
11788TIP3    H135317   7.771   7.045   5.140  0.2159  0.0231 -1.0450
11788TIP3    H235318   7.735   7.170   5.219 -0.7411 -1.5652  1.0737
11789TIP3   OH235319   6.608   5.892   5.758  0.3266  0.6231 -0.3330
11789TIP3    H135320   6.636   5.839   5.833 -0.3501 -0.4203 -0.8041
11789TIP3    H235321   6.515   5.907   5.773  0.3655  1.1024 -0.5555
11790TIP3   OH235322   2.223   1.095   0.327  0.5133  0.2743 -0.0005
11790TIP3    H135323   2.269   1.025   0.373  1.4912  0.4296 -0.7300
11790TIP3    H235324   2.140   1.104   0.374  1.3103  0.1384  1.4662
11791TIP3   OH235325   1.778   7.160   0.098  0.0565 -0.1242 -0.6883
11791TIP3    H135326   1.753   7.252   0.096  0.8209  0.1480  1.3254
11791TIP3    H235327   1.872   7.160   0.112  0.1238 -1.2144 -1.0450
11792TIP3   OH235328   3.123   1.658   1.374 -0.0205 -0.0933 -0.2968
11792TIP3    H135329   3.143   1.751   1.368 -1.1025  0.3151  1.7708
11792TIP3    H235330   3.206   1.616   1.397  0.2499  0.5084 -0.1826
11793TIP3   OH235331   4.387   4.268   5.854  0.0518 -0.0418 -0.1925
11793TIP3    H135332   4.403   4.197   5.916  1.0620  0.6104  0.3155
11793TIP3    H235333   4.322   4.233   5.793 -1.3477 -0.5125  1.5305
11794TIP3   OH235334   7.323   5.389   5.488 -0.1863 -0.4181  0.0027
11794TIP3    H135335   7.288   5.398   5.400 -0.2526  0.4103  0.1023
11794TIP3    H235336   7.359   5.476   5.508  1.1011 -1.0003  0.2467
11795TIP3   OH235337   5.413   5.728   6.411 -0.4303  0.1722  0.2410
11795TIP3    H135338   5.415   5.739   6.316 -0.9938  3.5780  0.5808
11795TIP3    H235339   5.344   5.787   6.441 -0.7767 -1.4074  2.7342
11796TIP3   OH235340   1.607   2.116   1.980 -0.1452 -0.4965 -0.1907
11796TIP3    H135341   1.548   2.054   2.022  0.9646 -0.0908  2.0380
11796TIP3    H235342   1.585   2.201   2.020 -0.2782  0.2183 -1.7387
11797TIP3   OH235343   6.900   2.649   1.771  0.3014 -0.3848 -0.1379
11797TIP3    H135344   6.878   2.622   1.860 -0.7710 -2.5015 -0.9861
11797TIP3    H235345   6.996   2.644   1.767  0.3892  0.2879  1.0458
11798TIP3   OH235346   7.041   6.811   3.560  0.2952 -0.4310  0.3920
11798TIP3    H135347   6.977   6.749   3.524 -0.0710  0.1729 -0.0121
11798TIP3    H235348   7.052   6.876   3.490 -1.2420  1.3687  1.7698
11799TIP3   OH235349   7.101   1.499   3.591 -0.1776  0.3544  0.7725
11799TIP3    H135350   7.020   1.495   3.642 -0.5816  0.5521  0.1589
11799TIP3    H235351   7.120   1.407   3.570 -0.0207  0.2747  1.2571
11800TIP3   OH235352   6.398   2.181   1.250  0.3774  0.3823 -0.0590
11800TIP3    H135353   6.331   2.225   1.198 -0.5981  0.4368  1.2171
11800TIP3    H235354   6.392   2.089   1.225 -1.9290 -0.0474  1.8559
11801TIP3   OH235355   0.539   5.034   2.897  0.3871  0.0641  0.3680
11801TIP3    H135356   0.523   5.060   2.806 -1.9341  2.1011  1.2958
11801TIP3    H235357   0.579   5.112   2.937  1.4994 -0.8588  1.0667
11802TIP3   OH235358   0.194   2.788   2.990  0.2979  0.5459 -0.1192
11802TIP3    H135359   0.108   2.829   2.988 -0.2370 -0.5738 -0.3344
11802TIP3    H235360   0.222   2.792   3.081 -0.3076  0.2570  0.0801
11803TIP3   OH235361   6.604   1.225   1.244 -0.4698  0.2749 -0.4750
11803TIP3    H135362   6.685   1.276   1.240 -1.2151  1.5622  0.4231
11803TIP3    H235363   6.544   1.278   1.297 -1.7703 -0.8472 -0.7722
11804TIP3   OH235364   0.237   0.481   3.019 -0.3694 -0.1568 -0.5529
11804TIP3    H135365   0.330   0.474   2.997 -0.0319  1.1483  0.3396
11804TIP3    H235366   0.230   0.444   3.107 -0.6823 -0.1835 -0.5878
11805TIP3   OH235367   1.443   2.813   1.420  0.0667  0.0589  0.2068
11805TIP3    H135368   1.503   2.762   1.367  0.1346 -0.6570  0.9662
11805TIP3    H235369   1.464   2.904   1.399 -0.1340 -0.2162 -1.2308
11806TIP3   OH235370   6.891   4.909   1.505  0.5474 -0.3626 -0.3574
11806TIP3    H135371   6.826   4.956   1.556  1.2946 -0.2653  0.5226
11806TIP3    H235372   6.846   4.830   1.475  0.6502 -1.3912  2.0914
11807TIP3   OH235373   1.787   2.819   0.842  0.3147  0.3331  0.3354
11807TIP3    H135374   1.778   2.914   0.849  1.8240  0.5696 -0.8104
11807TIP3    H235375   1.702   2.785   0.870 -1.0918  2.1124 -1.6130
11808TIP3   OH235376   0.672   5.891   1.419  0.5427  0.5834  0.2096
11808TIP3    H135377   0.677   5.869   1.326  0.4649  0.3499  0.2617
11808TIP3    H235378   0.743   5.841   1.459  0.7990  0.9571  0.2231
11809TIP3   OH235379   7.902   3.334   2.041 -0.2925  0.1634  0.7624
11809TIP3    H135380   7.847   3.402   2.080 -1.0421  0.1137 -0.1916
11809TIP3    H235381   7.936   3.375   1.961 -2.1854 -1.1807 -0.7681
11810TIP3   OH235382   7.322   0.933   0.531 -0.3357 -0.1556  0.2144
11810TIP3    H135383   7.256   0.870   0.502  0.1045 -0.3488 -0.3822
11810TIP3    H235384   7.376   0.947   0.454 -0.6622  1.2512  0.2296
11811TIP3   OH235385   5.720   3.194   0.315 -0.6387  0.2375 -0.4007
11811TIP3    H135386   5.798   3.150   0.281  1.2608  1.1678  2.5381
11811TIP3    H235387   5.724   3.283   0.280 -1.4675 -0.2739 -1.8292
11812TIP3   OH235388   0.606   2.117   3.914 -0.4255  0.1053  0.3095
11812TIP3    H135389   0.625   2.049   3.849 -0.8208  1.2711 -1.0591
11812TIP3    H235390   0.688   2.166   3.921  0.1304 -1.0311  1.9503
11813TIP3   OH235391   7.398   0.610   1.975  0.2454 -0.5357  0.2632
11813TIP3    H135392   7.312   0.621   2.016  1.4398  0.4986  2.6258
11813TIP3    H235393   7.441   0.696   1.986  1.7889 -1.2189 -0.2962
11814TIP3   OH235394   6.122   1.165   0.174  0.5663 -0.4763  0.6715
11814TIP3    H135395   6.173   1.146   0.254  1.7723  0.5032  0.1498
11814TIP3    H235396   6.186   1.158   0.103  0.1458  1.5239  0.0692
11815TIP3   OH235397   0.660   2.471   1.830 -0.1566 -0.0286 -0.2387
11815TIP3    H135398   0.728   2.404   1.835 -1.2035 -1.0108  1.3054
11815TIP3    H235399   0.600   2.440   1.763 -0.4157 -0.4333  0.1777
11816TIP3   OH235400   1.695   3.995   0.576 -0.0567 -0.4431  0.0049
11816TIP3    H135401   1.655   3.925   0.524  0.3384 -1.0640  0.5284
11816TIP3    H235402   1.660   3.983   0.664 -0.3782  0.3324 -0.0148
11817TIP3   OH235403   1.485   3.619   2.390 -0.1487  0.2140  0.1077
11817TIP3    H135404   1.485   3.589   2.481 -0.6753  0.0776  0.0629
11817TIP3    H235405   1.514   3.542   2.340 -1.6245 -0.2636 -0.0197
11818TIP3   OH235406   0.990   1.412   2.186  0.2354  0.1295  0.4026
11818TIP3    H135407   0.904   1.372   2.168  0.8855 -1.0310 -0.1994
11818TIP3    H235408   0.974   1.506   2.180 -1.0535 -0.0675  0.5494
11819TIP3   OH235409   0.408   1.451   2.160  0.6544 -0.0308 -0.3425
11819TIP3    H135410   0.448   1.512   2.222  2.4186 -0.4075 -1.0842
11819TIP3    H235411   0.329   1.497   2.129  1.2377  1.3146  0.1114
11820TIP3   OH235412   0.997   2.797   0.568 -0.3262  0.2904 -0.7860
11820TIP3    H135413   0.931   2.801   0.498 -0.0297  1.1477 -1.0162
11820TIP3    H235414   0.958   2.740   0.634 -1.7128  1.5346 -0.5006
11821TIP3   OH235415   4.063   1.153   1.696  0.0743 -0.5742  0.5980
11821TIP3    H135416   3.969   1.157   1.682 -0.0244  0.2105  1.4842
11821TIP3    H235417   4.094   1.091   1.630 -1.1979 -1.7250  1.0597
11822TIP3   OH235418   3.058   6.403   6.251 -0.6514  0.3003 -0.6283
11822TIP3    H135419   3.117   6.443   6.315 -0.8633  1.6127 -1.2189
11822TIP3    H235420   3.116   6.372   6.181 -0.4982 -0.2657 -0.2497
11823TIP3   OH235421   6.320   0.417   1.541 -0.1408  0.3629 -0.0129
11823TIP3    H135422   6.284   0.431   1.628 -0.9389 -2.0157  0.0606
11823TIP3    H235423   6.415   0.418   1.554 -0.2605 -0.3800  0.9624
11824TIP3   OH235424   0.783   2.560   1.593 -0.2703 -0.3957  0.2154
11824TIP3    H135425   0.717   2.557   1.662 -1.2341  0.1838 -0.6659
11824TIP3    H235426   0.845   2.628   1.622  0.1932 -1.2483  1.2572
11825TIP3   OH235427   0.080   2.414   0.940  0.5077  0.6849  0.2596
11825TIP3    H135428   0.101   2.382   0.852 -0.8909  0.7625 -0.1146
11825TIP3    H235429   0.135   2.361   0.999 -0.7677 -1.4708 -0.4456
11826TIP3   OH235430   1.999   3.703   0.434  0.3472 -0.2872  0.0497
11826TIP3    H135431   1.910   3.704   0.398  1.3056  1.2503 -2.4322
11826TIP3    H235432   2.048   3.647   0.373  1.3134 -0.2432  0.7743
11827TIP3   OH235433   6.477   1.640   1.184 -0.5868  0.4222  0.1117
11827TIP3    H135434   6.488   1.546   1.167 -1.6197  0.3084  0.0312
11827TIP3    H235435   6.425   1.672   1.110 -3.2966  0.3498  1.8952
11828TIP3   OH235436   0.482   1.954   2.745  0.3165  0.3495 -0.9441
11828TIP3    H135437   0.528   1.916   2.670 -0.4560 -1.1211 -0.7009
11828TIP3    H235438   0.404   1.899   2.755  1.1925 -0.4639  1.8807
11829TIP3   OH235439   1.818   2.919   1.264  0.4701  0.3788 -0.3210
11829TIP3    H135440   1.807   2.830   1.232  0.6787 -0.4268  1.7911
11829TIP3    H235441   1.844   2.909   1.356  0.7055  2.6012 -0.1161
11830TIP3   OH235442   1.559   0.911   1.856  0.0080 -0.2363  0.3738
11830TIP3    H135443   1.566   1.002   1.882 -0.0083 -0.0055 -0.4038
11830TIP3    H235444   1.495   0.873   1.916  0.2876  0.1723  0.9295
11831TIP3   OH235445   7.233   0.855   2.554 -0.0662  0.4050  0.6067
11831TIP3    H135446   7.225   0.876   2.461  0.8733 -0.6175  0.2838
11831TIP3    H235447   7.147   0.819   2.576 -0.0042 -0.2100 -0.1054
11832TIP3   OH235448   2.715   1.764   0.092 -0.2970 -0.0991  0.4275
11832TIP3    H135449   2.677   1.733   0.009 -0.5598  1.0566  0.1139
11832TIP3    H235450   2.726   1.858   0.080 -2.0809  0.4128  2.3794
11833TIP3   OH235451   6.266   2.226   3.150 -0.3129  0.0335 -0.0192
11833TIP3    H135452   6.247   2.157   3.214 -0.7050  0.8207  0.7135
11833TIP3    H235453   6.200   2.293   3.166 -0.0935  0.4601 -0.9091
11834TIP3   OH235454   6.849   1.530   0.979 -0.0276  0.9640 -0.4400
11834TIP3    H135455   6.844   1.437   1.003  1.7199 -0.0847 -3.8402
11834TIP3    H235456   6.893   1.571   1.053 -0.1580 -1.0284  0.8059
11835TIP3   OH235457   6.164   1.601   0.398  0.2219  0.2259 -1.0318
11835TIP3    H135458   6.204   1.688   0.397 -0.1102  0.4309  1.1732
11835TIP3    H235459   6.238   1.541   0.390  0.5754  0.6812 -1.2171
11836TIP3   OH235460   1.616   4.515   5.611  0.3048 -0.4410 -0.4127
11836TIP3    H135461   1.607   4.574   5.536  2.1100  1.1189  0.5848
11836TIP3    H235462   1.564   4.556   5.680  2.5485  0.6909  0.6649
11837TIP3   OH235463   7.565   3.317   2.214 -0.2932  0.6058  0.3710
11837TIP3    H135464   7.517   3.390   2.253  0.4976  1.9662 -1.1467
11837TIP3    H235465   7.597   3.267   2.289 -1.7428  1.2213  1.4195
11838TIP3   OH235466   7.245   2.535   0.101  0.3866 -0.6848  0.4458
11838TIP3    H135467   7.199   2.457   0.132 -0.7354 -0.1320  0.1908
11838TIP3    H235468   7.239   2.597   0.173  0.8699 -0.6706  0.4719
11839TIP3   OH235469   5.653   1.265   2.571  0.4265 -0.5507 -0.1555
11839TIP3    H135470   5.603   1.306   2.501  0.4015 -0.6471 -0.1941
11839TIP3    H235471   5.714   1.206   2.526 -1.2583 -2.4793  0.0109
11840TIP3   OH235472   6.877   1.847   4.466  0.4273  0.2298  0.6475
11840TIP3    H135473   6.957   1.833   4.415  1.2546  0.0297  1.9575
11840TIP3    H235474   6.825   1.908   4.414 -0.1260 -2.2667 -1.8797
11841TIP3   OH235475   7.288   3.344   0.047  0.0916  0.5921 -0.0262
11841TIP3    H135476   7.289   3.253   0.017 -0.1539  1.0175 -1.3757
11841TIP3    H235477   7.348   3.389  -0.013 -1.7191  1.7926 -1.0009
11842TIP3   OH235478   0.611   1.881   5.633 -0.2425 -0.2209  0.2500
11842TIP3    H135479   0.673   1.871   5.705 -0.4146 -1.7633  0.2049
11842TIP3    H235480   0.532   1.918   5.674  0.5086  1.2619  0.3947
11843TIP3   OH235481   7.813   4.278   2.105  0.6310 -0.0086  0.2677
11843TIP3    H135482   7.826   4.366   2.071  0.9862 -0.0189  0.3758
11843TIP3    H235483   7.793   4.291   2.198  2.2004 -0.1290  0.6328
11844TIP3   OH235484   0.615   0.582   1.429  0.0192  0.0895 -0.3284
11844TIP3    H135485   0.577   0.665   1.455  2.6306  1.3401 -0.2858
11844TIP3    H235486   0.698   0.606   1.387  0.8368 -2.4771 -0.2782
11845TIP3   OH235487   5.286   1.861   6.373 -0.0067  0.3733 -0.6821
11845TIP3    H135488   5.234   1.876   6.294 -0.5695  0.5427 -0.2862
11845TIP3    H235489   5.236   1.905   6.442  1.0880  1.2535 -0.4409
11846TIP3   OH235490   0.507   3.433   1.709 -0.4247  0.3283  0.1107
11846TIP3    H135491   0.473   3.521   1.694 -0.7259  0.2189  0.1416
11846TIP3    H235492   0.429   3.379   1.720 -0.2830 -0.1826 -1.2328
11847TIP3   OH235493   7.307   2.657   0.489  0.0583  0.0576  0.1337
11847TIP3    H135494   7.308   2.725   0.421 -0.6136  0.8209  0.8780
11847TIP3    H235495   7.390   2.611   0.478 -0.0575  0.1366 -1.2372
11848TIP3   OH235496   6.097   2.655   0.994 -0.3170  0.4005  0.3805
11848TIP3    H135497   6.190   2.678   0.984 -0.2630  0.2490  0.5520
11848TIP3    H235498   6.063   2.720   1.055  0.1278 -0.7411  1.8732
11849TIP3   OH235499   1.669   3.780   1.776  0.4946 -0.1679  0.6822
11849TIP3    H135500   1.677   3.745   1.865  1.3793 -3.6080 -0.6672
11849TIP3    H235501   1.757   3.811   1.755  0.1243  1.2718  1.2462
11850TIP3   OH235502   7.653   2.592   3.866 -0.1334 -0.5371 -0.3303
11850TIP3    H135503   7.585   2.530   3.842 -0.6084  0.0642 -0.5547
11850TIP3    H235504   7.719   2.539   3.912 -1.8670 -0.7183  2.0325
11851TIP3   OH235505   1.870   3.271   0.548 -0.3031 -0.8819  0.1583
11851TIP3    H135506   1.936   3.202   0.534 -2.2121 -2.8838  0.7497
11851TIP3    H235507   1.810   3.234   0.612 -0.6664  1.8916  1.4914
11852TIP3   OH235508   6.462   0.826   2.960 -0.4235  0.0097 -0.2404
11852TIP3    H135509   6.433   0.797   2.874  0.3431 -1.9189  0.1218
11852TIP3    H235510   6.519   0.755   2.991  0.6195  1.4223  1.1608
11853TIP3   OH235511   0.124   3.288   3.604  0.2377  0.3029  0.1104
11853TIP3    H135512   0.179   3.367   3.606  1.4891 -0.3871 -3.2536
11853TIP3    H235513   0.062   3.304   3.534 -1.5339 -0.4611  1.4752
11854TIP3   OH235514   1.301   4.451   2.835  0.1567  0.1756 -0.8974
11854TIP3    H135515   1.320   4.528   2.887  1.5678  0.4596 -1.8076
11854TIP3    H235516   1.214   4.467   2.799  0.3355  1.2348 -0.8788
11855TIP3   OH235517   1.776   3.597   1.594 -0.3997  0.0046 -0.6711
11855TIP3    H135518   1.705   3.644   1.637  0.9463  1.8956 -0.4410
11855TIP3    H235519   1.810   3.659   1.529  1.2202 -0.7602 -0.5695
11856TIP3   OH235520   0.967   2.343   3.004 -0.4079  0.0919  0.1873
11856TIP3    H135521   0.970   2.291   3.084 -1.5289 -0.3553 -0.0545
11856TIP3    H235522   1.055   2.380   2.996  0.3760 -1.6716  0.4155
11857TIP3   OH235523   7.774   1.888   0.679 -0.1272  0.4137 -0.2173
11857TIP3    H135524   7.757   1.802   0.717 -1.1760  1.7222  2.3320
11857TIP3    H235525   7.841   1.927   0.735 -0.3291  1.6351 -0.8001
11858TIP3   OH235526   1.027   2.276   0.277 -0.0684 -0.4875 -0.0666
11858TIP3    H135527   1.020   2.312   0.366  1.1961  0.3602 -0.2809
11858TIP3    H235528   0.937   2.271   0.245 -0.3541  2.0818  0.1670
11859TIP3   OH235529   1.637   6.846   5.943 -0.2237 -0.2529 -0.3006
11859TIP3    H135530   1.706   6.902   5.906  1.2926 -2.3413 -0.7356
11859TIP3    H235531   1.592   6.902   6.006  2.1573  1.0384  0.3058
11860TIP3   OH235532   7.181   3.749   1.148 -0.8465 -0.4247  0.5447
11860TIP3    H135533   7.221   3.832   1.121 -2.6773 -0.3503 -2.1819
11860TIP3    H235534   7.255   3.690   1.161  0.3049  0.1461 -2.8383
11861TIP3   OH235535   5.519   2.362   2.380 -0.3676  0.1700  0.0622
11861TIP3    H135536   5.430   2.364   2.416 -0.1282  3.8505  0.6957
11861TIP3    H235537   5.507   2.376   2.286 -0.5959 -2.7186 -0.3837
11862TIP3   OH235538   6.766   3.156   1.743 -0.0610 -0.3495 -0.2144
11862TIP3    H135539   6.737   3.225   1.683 -1.3982  0.2656  1.1117
11862TIP3    H235540   6.689   3.098   1.752  0.0452 -0.2969  1.0851
11863TIP3   OH235541   0.509   3.333   0.746 -0.5168  0.0433 -0.3110
11863TIP3    H135542   0.569   3.352   0.674  0.5222 -2.1022 -0.0739
11863TIP3    H235543   0.505   3.237   0.749 -3.3947  0.1346  0.1600
11864TIP3   OH235544   7.710   4.180   0.592  0.1320 -0.5470  0.0043
11864TIP3    H135545   7.776   4.218   0.651  0.4691 -0.7129 -0.2663
11864TIP3    H235546   7.711   4.087   0.612 -1.2637 -0.3223  1.2348
11865TIP3   OH235547   1.625   3.083   0.530 -0.1323  0.0367 -0.4634
11865TIP3    H135548   1.655   3.110   0.443 -0.6583  0.5978 -0.4785
11865TIP3    H235549   1.609   2.989   0.521  1.7361 -0.3109 -0.4072
11866TIP3   OH235550   5.050   1.585   5.735  0.6020  0.3792  0.3004
11866TIP3    H135551   5.089   1.673   5.733  0.6874  0.3539  0.8811
11866TIP3    H235552   4.984   1.589   5.803  1.1734 -0.2449  0.8981
11867TIP3   OH235553   2.180   3.885   1.638  0.9199  0.1348  0.2351
11867TIP3    H135554   2.197   3.894   1.544 -1.0149 -0.4567 -0.2036
11867TIP3    H235555   2.177   3.790   1.652  0.5110  0.2233  0.7505
11868TIP3   OH235556   7.040   1.118   6.023  0.7560 -0.5330 -0.4154
11868TIP3    H135557   7.077   1.191   5.973  1.6160  1.5905  3.1270
11868TIP3    H235558   6.946   1.123   6.008  1.0436 -0.2905 -2.2337
11869TIP3   OH235559   2.518   4.491   5.105  0.6021  0.1588 -0.2899
11869TIP3    H135560   2.591   4.522   5.051  1.9163 -0.3508  1.1526
11869TIP3    H235561   2.531   4.535   5.189 -0.3088 -0.5675  0.2359
11870TIP3   OH235562   4.032   4.456   0.630 -0.3195 -0.4141  0.1995
11870TIP3    H135563   4.113   4.500   0.603  0.7766 -2.7916 -0.4816
11870TIP3    H235564   3.966   4.526   0.629  1.3057  1.1657 -1.1588
11871TIP3   OH235565   6.119   2.056   0.532 -0.3642  0.6814 -0.0025
11871TIP3    H135566   6.192   2.068   0.593 -0.1837 -1.4282  0.2263
11871TIP3    H235567   6.041   2.077   0.584 -0.1095  0.3359  0.5178
11872TIP3   OH235568   0.765   4.195   0.447 -0.3071 -0.3504  0.4442
11872TIP3    H135569   0.824   4.230   0.513 -0.8558  0.7290  0.3700
11872TIP3    H235570   0.805   4.218   0.363  0.3252 -1.6125  0.3785
11873TIP3   OH235571   4.803   2.715   0.368  0.4935 -0.0897 -0.5116
11873TIP3    H135572   4.797   2.636   0.422 -1.0694 -0.1338 -0.7374
11873TIP3    H235573   4.829   2.682   0.281  3.5318  0.0358  0.2936
11874TIP3   OH235574   6.187   5.439   5.382 -0.2453  0.3034  0.6204
11874TIP3    H135575   6.219   5.354   5.352 -0.0770  0.1625  1.1944
11874TIP3    H235576   6.134   5.418   5.459 -1.9302  0.4975 -0.4442
11875TIP3   OH235577   6.386   0.482   6.372 -0.4252  0.1646  0.4747
11875TIP3    H135578   6.374   0.540   6.296 -0.2758 -0.5593 -0.1091
11875TIP3    H235579   6.376   0.540   6.448  1.6509  1.3361 -0.1196
11876TIP3   OH235580   2.663   6.762   6.069  0.1580  0.4727  0.7988
11876TIP3    H135581   2.677   6.689   6.009  0.1320 -0.4064  1.8448
11876TIP3    H235582   2.695   6.839   6.023  0.0622 -0.1857 -0.3660
11877TIP3   OH235583   7.713   3.606   2.288 -0.8183  0.7276  0.2026
11877TIP3    H135584   7.732   3.611   2.194  0.0598  0.8575  0.3820
11877TIP3    H235585   7.654   3.680   2.304  2.3540  3.3303  0.5222
11878TIP3   OH235586   0.613   3.249   4.687  0.4433 -0.2871  0.0663
11878TIP3    H135587   0.621   3.155   4.703  0.0261 -0.4810 -0.8612
11878TIP3    H235588   0.631   3.289   4.772  2.9945 -1.0901 -0.0671
11879TIP3   OH235589   0.937   2.028   1.885 -0.0738  0.1680 -0.3041
11879TIP3    H135590   0.939   1.933   1.879  0.4405  0.0626  1.1354
11879TIP3    H235591   1.029   2.054   1.877 -0.2666  0.5736 -1.1760
11880TIP3   OH235592   3.241   5.060   5.602  1.1001  0.5654  0.3876
11880TIP3    H135593   3.177   5.117   5.644  0.0293  0.4366 -1.0510
11880TIP3    H235594   3.264   5.105   5.521  2.3580  0.2978  0.5852
11881TIP3   OH235595   1.170   4.565   1.670 -0.3853  0.2853 -0.2504
11881TIP3    H135596   1.223   4.640   1.696  2.1368 -1.3190 -0.5865
11881TIP3    H235597   1.164   4.510   1.748 -0.2095 -0.3095 -0.6489
11882TIP3   OH235598   4.897   7.048   5.543 -0.4304  0.8269 -0.6042
11882TIP3    H135599   4.900   7.016   5.453 -0.2048  1.6428 -0.8843
11882TIP3    H235600   4.854   6.977   5.591  0.5194 -0.1322 -1.1242
11883TIP3   OH235601   1.375   4.329   0.971  0.0708 -0.1058  0.0667
11883TIP3    H135602   1.386   4.242   1.011 -0.5687 -0.2152  0.0173
11883TIP3    H235603   1.336   4.311   0.886 -0.9358  0.2869  0.4352
11884TIP3   OH235604   5.792   6.262   4.232 -0.3126 -0.0055 -0.6111
11884TIP3    H135605   5.850   6.192   4.265  1.5532  0.6199 -2.4622
11884TIP3    H235606   5.712   6.216   4.207 -1.0462 -0.7706  2.8334
11885TIP3   OH235607   6.145   6.083   3.749  0.0620 -0.1843  0.3485
11885TIP3    H135608   6.115   6.173   3.737 -1.1305 -0.3082  2.2873
11885TIP3    H235609   6.096   6.033   3.683 -2.1023  0.0274  1.7631
11886TIP3   OH235610   2.586   6.802   5.776 -0.1127 -0.4341  0.2589
11886TIP3    H135611   2.624   6.861   5.841 -2.0986  0.9609  0.2029
11886TIP3    H235612   2.620   6.716   5.799  2.2790  0.6203  0.7807
11887TIP3   OH235613   0.324   0.928   4.795  0.2797  0.1233 -0.3634
11887TIP3    H135614   0.299   1.020   4.797  2.7352  0.8159  0.8097
11887TIP3    H235615   0.395   0.923   4.731 -1.2406 -1.3753 -1.9962
11888TIP3   OH235616   6.568   0.397   6.157  0.0382 -0.3645 -0.5920
11888TIP3    H135617   6.501   0.465   6.165  1.5018  0.9392  1.0225
11888TIP3    H235618   6.651   0.445   6.160  1.0578 -2.0197 -1.7891
11889TIP3   OH235619   7.729   0.333   6.299 -0.1284 -0.4432  0.1705
11889TIP3    H135620   7.713   0.397   6.231 -1.8033 -0.2991  0.6815
11889TIP3    H235621   7.767   0.258   6.253 -3.3217 -1.2363 -1.2995
11890TIP3   OH235622   0.616   3.415   1.131  0.3696 -0.3875 -0.8853
11890TIP3    H135623   0.637   3.324   1.109  0.3446 -0.6264  0.0479
11890TIP3    H235624   0.528   3.428   1.095 -0.4698 -1.3820  0.7616
11891TIP3   OH235625   4.072   5.688   5.526  0.1246  0.0735 -0.1182
11891TIP3    H135626   4.152   5.635   5.517 -1.2341 -2.1003  0.0665
11891TIP3    H235627   4.092   5.749   5.596  1.1307 -1.4690  0.9865
11892TIP3   OH235628   0.659   3.812   0.309  0.2599  0.5211  0.3460
11892TIP3    H135629   0.646   3.816   0.404 -1.7488  0.6389  0.0823
11892TIP3    H235630   0.754   3.814   0.298  0.5881 -1.2907  2.4370
11893TIP3   OH235631   0.992   2.768   0.144 -0.3147 -0.0529  0.0029
11893TIP3    H135632   1.055   2.696   0.146 -0.2268  0.0270  0.0909
11893TIP3    H235633   0.943   2.759   0.226 -1.2448 -0.8565 -0.6366
11894TIP3   OH235634   1.485   3.593   1.336 -0.2978  0.6694 -0.1327
11894TIP3    H135635   1.446   3.561   1.418 -0.4170 -1.8066 -1.1204
11894TIP3    H235636   1.414   3.592   1.273  0.2241  0.8205 -0.7342
11895TIP3   OH235637   1.197   4.571   0.415 -0.0797  0.7985 -0.9985
11895TIP3    H135638   1.120   4.592   0.467 -0.2473  1.1784 -1.3966
11895TIP3    H235639   1.266   4.556   0.479 -1.2688 -2.8978 -0.4413
11896TIP3   OH235640   1.300   3.773   4.022  0.4234 -0.0474 -0.0586
11896TIP3    H135641   1.283   3.865   4.005 -1.6669 -0.3256  0.4281
11896TIP3    H235642   1.238   3.726   3.967  1.8098 -1.1967 -0.6822
11897TIP3   OH235643   0.244   1.188   2.837  0.3423  0.0728 -0.6380
11897TIP3    H135644   0.220   1.130   2.765 -0.5692  0.4205 -0.6178
11897TIP3    H235645   0.334   1.163   2.859 -0.3742 -2.0591  0.0468
11898TIP3   OH235646   1.388   2.770   2.401  0.1050  0.0487  0.4276
11898TIP3    H135647   1.317   2.791   2.462 -1.7696 -0.9503 -1.3278
11898TIP3    H235648   1.434   2.853   2.388 -1.7123  1.0777  0.3936
11899TIP3   OH235649   4.421   5.885   4.790 -0.0387 -0.6719  0.3448
11899TIP3    H135650   4.456   5.908   4.877  2.6219 -1.6628 -0.4224
11899TIP3    H235651   4.443   5.961   4.735 -0.9075 -0.4444  0.2955
11900TIP3   OH235652   2.905   7.216   5.903  0.1297  0.7417 -0.0420
11900TIP3    H135653   2.970   7.244   5.838 -0.2513  1.0947 -0.2770
11900TIP3    H235654   2.823   7.257   5.874 -0.5502 -0.9729 -0.6410
11901TIP3   OH235655   4.521   7.306   5.367  0.0821 -0.2346 -0.3304
11901TIP3    H135656   4.577   7.378   5.395 -0.2753 -0.7890  1.8904
11901TIP3    H235657   4.568   7.265   5.295  0.9825  1.3013 -0.6209
11902TIP3   OH235658   5.439   1.122   5.994 -0.2896  0.7555 -0.1946
11902TIP3    H135659   5.514   1.078   6.036 -2.5266 -0.7486  2.3938
11902TIP3    H235660   5.422   1.198   6.050 -0.0304  1.7223 -1.4066
11903TIP3   OH235661   3.938   6.898   5.366  0.5294 -0.5238  0.3270
11903TIP3    H135662   4.022   6.854   5.352  0.3347 -1.0208  0.6973
11903TIP3    H235663   3.907   6.865   5.450 -0.2052 -0.6161  0.0271
11904TIP3   OH235664   0.771   1.042   3.598  0.7476  0.3140 -0.2358
11904TIP3    H135665   0.818   1.108   3.547  0.2843  0.8071 -0.0337
11904TIP3    H235666   0.748   0.974   3.534 -0.0985  1.0765 -0.7551
11905TIP3   OH235667   1.093   4.199   1.587  0.3691  0.5776 -0.5314
11905TIP3    H135668   1.084   4.293   1.573 -1.8400  0.3722 -0.6058
11905TIP3    H235669   1.005   4.164   1.573  1.3515 -1.6236 -1.4323
11906TIP3   OH235670   1.779   4.169   1.617  0.3405 -0.2583  0.1929
11906TIP3    H135671   1.821   4.092   1.655 -0.0539 -0.3382  0.4609
11906TIP3    H235672   1.832   4.189   1.539 -0.4021 -1.6439 -0.6792
11907TIP3   OH235673   4.425   6.475   5.665 -0.0978  0.0987 -0.1315
11907TIP3    H135674   4.345   6.520   5.638  0.1358  0.1759 -0.7055
11907TIP3    H235675   4.400   6.383   5.670  0.2552 -0.1115 -2.1484
11908TIP3   OH235676   3.318   1.684   1.081  0.1531  0.4227  0.7367
11908TIP3    H135677   3.374   1.663   1.006  0.5470  1.1598  0.8240
11908TIP3    H235678   3.265   1.605   1.094 -2.7266  1.5875 -2.7729
11909TIP3   OH235679   1.176   4.787   0.754 -0.1782 -0.1967  0.4008
11909TIP3    H135680   1.195   4.716   0.816  0.8412 -1.6551 -1.5394
11909TIP3    H235681   1.126   4.850   0.806 -0.0751 -1.7550  2.4969
11910TIP3   OH235682   3.444   7.230   6.245  0.3010  0.0796  0.1346
11910TIP3    H135683   3.441   7.303   6.183  2.4860 -0.5337 -0.7455
11910TIP3    H235684   3.495   7.263   6.318  0.0666 -0.1061  0.3833
11911TIP3   OH235685   1.677   1.286   1.014 -0.4889 -0.1966  0.4718
11911TIP3    H135686   1.728   1.257   0.939 -0.8596  2.6078 -0.9483
11911TIP3    H235687   1.736   1.277   1.089  0.2190 -2.0894 -0.2979
11912TIP3   OH235688   2.354   2.856   2.387  0.0507  0.1704  0.1155
11912TIP3    H135689   2.286   2.793   2.410  2.1482 -2.4242 -0.5336
11912TIP3    H235690   2.341   2.871   2.294 -1.2668  1.7629  0.5345
11913TIP3   OH235691   4.090   2.731   1.972 -0.4289 -0.8348  0.5026
11913TIP3    H135692   4.173   2.702   1.935 -0.2104 -1.3677  1.3810
11913TIP3    H235693   4.066   2.808   1.921  0.3081 -1.0317 -0.1451
11914TIP3   OH235694   5.905   5.814   4.866  0.6892  0.5833  0.7670
11914TIP3    H135695   5.926   5.874   4.794  1.3458 -1.3817 -0.7125
11914TIP3    H235696   5.855   5.867   4.928 -0.5145  2.1058 -1.4695
11915TIP3   OH235697   2.882   3.319   1.396  0.0925 -0.0522  0.1945
11915TIP3    H135698   2.907   3.268   1.318  1.8768 -1.2166  1.4891
11915TIP3    H235699   2.939   3.396   1.393  1.1450 -0.7829  1.0689
11916TIP3   OH235700   7.124   6.806   5.407  0.4352 -0.1306 -0.5060
11916TIP3    H135701   7.196   6.793   5.469 -1.2788  2.0340  2.0410
11916TIP3    H235702   7.128   6.899   5.385 -1.5194  0.0014 -0.3830
11917TIP3   OH235703   1.375   2.656   1.906  0.8532  0.3503 -0.7162
11917TIP3    H135704   1.443   2.696   1.852  0.0004  0.0343 -2.0494
11917TIP3    H235705   1.307   2.722   1.912  0.2371 -0.2142 -1.4009
11918TIP3   OH235706   7.682   1.757   0.430  0.0483 -0.2543 -0.1173
11918TIP3    H135707   7.656   1.772   0.521 -3.4358  1.9543 -1.3754
11918TIP3    H235708   7.765   1.804   0.420 -0.5793  1.1990  1.3635
11919TIP3   OH235709   1.102   2.216   0.674 -0.0049 -0.2585  0.1886
11919TIP3    H135710   1.141   2.133   0.699  0.3567 -0.8886 -2.3748
11919TIP3    H235711   1.031   2.193   0.613 -0.2128  1.2588 -0.1803
11920TIP3   OH235712   0.404   3.203   0.302 -0.0718 -0.1483 -0.0544
11920TIP3    H135713   0.391   3.280   0.357  1.7779 -0.0903  0.3438
11920TIP3    H235714   0.412   3.130   0.363  0.1246 -0.3583 -0.3253
11921TIP3   OH235715   1.830   5.994   4.951 -0.2621 -0.0824 -0.0947
11921TIP3    H135716   1.880   5.950   4.882  0.6514  0.4303  0.2295
11921TIP3    H235717   1.811   6.081   4.916  0.1931  0.1758  0.2789
11922TIP3   OH235718   2.852   6.515   5.659  0.4245  0.1321  0.7778
11922TIP3    H135719   2.849   6.421   5.671 -1.3488  0.1802  0.8298
11922TIP3    H235720   2.845   6.527   5.564 -1.2851  0.2460  0.8921
11923TIP3   OH235721   1.514   2.613   0.136 -0.1066 -0.0740  0.8364
11923TIP3    H135722   1.530   2.527   0.174 -2.0379 -1.7220 -1.9931
11923TIP3    H235723   1.594   2.633   0.088 -0.2901 -1.0204  0.1357
   7.90000   7.44819   6.45032   0.00000   0.00000  -2.63333   0.00000  -2.63333  -3.72410
