Title
29212
    1ASP      N    1   3.726   2.374   4.198  0.0867 -0.0848 -0.3809
    1ASP    HT1    2   3.827   2.349   4.199  0.3163  0.7314  1.7685
    1ASP    HT2    3   3.670   2.312   4.135  0.7589 -0.7348 -0.3461
    1ASP    HT3    4   3.690   2.352   4.293  0.5220  0.0860 -0.1772
    1ASP     CA    5   3.701   2.519   4.171 -0.5590 -0.3632  0.0847
    1ASP     HA    6   3.769   2.574   4.235 -0.8135 -0.9816  0.9002
    1ASP     CB    7   3.746   2.547   4.021  0.6852  0.0187 -0.2410
    1ASP    HB1    8   3.710   2.639   3.969  0.7750  0.0930 -0.1707
    1ASP    HB2    9   3.706   2.460   3.964  0.2648 -0.6322  1.0137
    1ASP     CG   10   3.894   2.556   4.009 -0.1356  0.1989 -0.2984
    1ASP    OD1   11   3.940   2.543   3.891  0.0292 -0.0515 -0.2305
    1ASP    OD2   12   3.971   2.579   4.104 -0.0109 -0.0189  0.6080
    1ASP      C   13   3.555   2.571   4.203 -0.2722  0.3374 -0.7528
    1ASP      O   14   3.460   2.493   4.200  0.5887 -0.4596 -0.3484
    2GLY      N   15   3.540   2.698   4.230  1.0196 -0.6194  0.0343
    2GLY     HN   16   3.616   2.761   4.242  0.1759  0.6022 -0.8639
    2GLY     CA   17   3.413   2.766   4.267  0.5864 -0.5179 -0.3641
    2GLY    HA1   18   3.329   2.726   4.214 -2.2414  0.1962  3.1661
    2GLY    HA2   19   3.416   2.872   4.250 -0.4621 -0.9143 -3.6621
    2GLY      C   20   3.376   2.748   4.409  0.8645 -0.2002 -0.2609
    2GLY      O   21   3.425   2.656   4.474  0.6392  0.2625 -0.2402
    3ASP      N   22   3.268   2.818   4.452  1.1952  0.3174 -0.0625
    3ASP     HN   23   3.220   2.887   4.399 -0.6337 -0.3421  0.6813
    3ASP     CA   24   3.223   2.807   4.587 -0.1123 -0.3863  0.2777
    3ASP     HA   25   3.307   2.794   4.655 -0.8973  0.8772  1.5343
    3ASP     CB   26   3.155   2.940   4.630  0.1762 -0.0934 -0.3093
    3ASP    HB1   27   3.085   2.929   4.716 -0.1481 -0.9522 -0.6705
    3ASP    HB2   28   3.088   2.977   4.549 -0.0009  0.0237 -0.1099
    3ASP     CG   29   3.258   3.051   4.651  0.6033 -0.7383 -0.2273
    3ASP    OD1   30   3.223   3.173   4.664 -0.0412  0.3145 -0.2115
    3ASP    OD2   31   3.374   3.015   4.674  0.1174 -0.3228 -0.1251
    3ASP      C   32   3.145   2.679   4.618  0.1713 -0.7498  0.2072
    3ASP      O   33   3.103   2.602   4.529  0.0986 -0.6158  0.7471
    4GLY      N   34   3.127   2.648   4.749  0.0116  0.1061  0.1426
    4GLY     HN   35   3.151   2.721   4.812 -1.0582  0.9336 -0.3908
    4GLY     CA   36   3.079   2.524   4.793 -0.2909 -0.1572  0.5032
    4GLY    HA1   37   3.128   2.514   4.889  0.3220 -1.4691  0.0700
    4GLY    HA2   38   3.098   2.443   4.725 -1.9433  0.7359 -1.1294
    4GLY      C   39   2.928   2.529   4.801 -0.1992  0.0142  0.5998
    4GLY      O   40   2.864   2.627   4.759 -0.2098 -0.8244  1.0256
    5PRO      N   41   2.864   2.417   4.853  0.3751 -0.2641 -0.3448
    5PRO     CD   42   2.927   2.305   4.919 -0.2631 -0.5729  0.3582
    5PRO    HD1   43   2.966   2.337   5.019 -0.5297  2.4888 -0.4195
    5PRO    HD2   44   3.014   2.282   4.854  0.9406 -0.0656  1.7137
    5PRO     CA   45   2.716   2.399   4.852 -0.4882 -0.2864  0.2456
    5PRO     HA   46   2.676   2.378   4.754 -1.2241 -3.6945  1.1579
    5PRO     CB   47   2.696   2.284   4.951  0.0545 -0.3591 -0.7396
    5PRO    HB1   48   2.602   2.233   4.921 -0.3590  0.9490 -1.7430
    5PRO    HB2   49   2.696   2.326   5.054  2.6250  2.5893 -1.7553
    5PRO     CG   50   2.821   2.203   4.927 -1.0758 -1.2390 -0.2192
    5PRO    HG1   51   2.851   2.133   5.008  1.9363  1.0309  0.8112
    5PRO    HG2   52   2.807   2.154   4.829  0.4332  0.2117 -1.1965
    5PRO      C   53   2.642   2.528   4.899  0.3872  0.0946 -0.0245
    5PRO      O   54   2.695   2.602   4.980  0.0790  0.4626  0.3924
    6GLY      N   55   2.516   2.540   4.855 -0.1483  0.1415 -0.3137
    6GLY     HN   56   2.475   2.479   4.787 -0.3794  0.3003 -0.3206
    6GLY     CA   57   2.429   2.645   4.898  0.6933 -0.2142 -0.5041
    6GLY    HA1   58   2.344   2.638   4.832 -0.4658 -0.5115  0.9613
    6GLY    HA2   59   2.485   2.737   4.895  1.0412 -0.4657 -2.4981
    6GLY      C   60   2.377   2.624   5.043 -0.0589  0.2730 -0.2727
    6GLY      O   61   2.350   2.519   5.091 -0.6409  0.3812 -0.0128
    7ASP      N   62   2.377   2.736   5.121 -0.1115  0.1735 -0.0441
    7ASP     HN   63   2.393   2.824   5.077 -3.3372  2.0148  2.1001
    7ASP     CA   64   2.338   2.744   5.261 -0.1420  0.0948  0.6654
    7ASP     HA   65   2.397   2.678   5.323  0.2305  0.7534  1.0286
    7ASP     CB   66   2.359   2.886   5.308 -0.5564 -0.7564 -0.3375
    7ASP    HB1   67   2.319   2.884   5.412  0.6218 -3.8285  0.1436
    7ASP    HB2   68   2.303   2.966   5.255  0.0440  0.9451  1.4339
    7ASP     CG   69   2.512   2.919   5.308  0.0582 -0.0359 -0.3363
    7ASP    OD1   70   2.547   3.009   5.230 -0.4418 -0.2777  0.1506
    7ASP    OD2   71   2.585   2.863   5.390 -0.5023 -0.3044 -0.0935
    7ASP      C   72   2.187   2.706   5.286  0.5685 -0.7878 -0.0119
    7ASP      O   73   2.112   2.728   5.189  0.2295  0.6510 -0.9475
    8PRO      N   74   2.145   2.649   5.399  0.1055  0.0827 -0.1121
    8PRO     CD   75   2.228   2.609   5.509 -0.8373 -0.3001 -0.6591
    8PRO    HD1   76   2.270   2.696   5.564 -0.9170 -0.1565 -0.8240
    8PRO    HD2   77   2.320   2.553   5.481 -0.3570  1.1713 -2.1354
    8PRO     CA   78   2.006   2.651   5.435 -0.0290  0.0372  0.0774
    8PRO     HA   79   1.964   2.587   5.359 -0.6266  0.1117  0.3383
    8PRO     CB   80   2.002   2.597   5.583 -0.5112  0.0548 -0.1703
    8PRO    HB1   81   1.914   2.533   5.605 -0.0805 -0.4803  0.0120
    8PRO    HB2   82   2.006   2.677   5.660 -2.0925 -0.3965  0.4345
    8PRO     CG   83   2.135   2.522   5.593  0.6823 -0.1319  0.3329
    8PRO    HG1   84   2.180   2.504   5.693 -1.4420 -2.6502  0.9200
    8PRO    HG2   85   2.116   2.425   5.544 -4.6185  0.1780  1.1981
    8PRO      C   86   1.931   2.781   5.415 -0.0205 -0.7064 -0.3395
    8PRO      O   87   1.985   2.885   5.450 -0.4741  0.0099  0.3852
    9GLY      N   88   1.811   2.771   5.360  0.3878 -0.6330  0.9990
    9GLY     HN   89   1.768   2.681   5.356 -1.5303  0.1497  2.3618
    9GLY     CA   90   1.719   2.875   5.310 -0.0367  0.2399 -0.0802
    9GLY    HA1   91   1.634   2.814   5.284  0.8950 -0.8564 -0.6379
    9GLY    HA2   92   1.758   2.938   5.232 -1.0027  3.4453  1.8146
    9GLY      C   93   1.675   2.976   5.417 -0.4792 -0.5303 -0.6027
    9GLY      O   94   1.658   2.935   5.531 -0.4040  0.6069 -0.5369
   10ASP      N   95   1.661   3.107   5.387 -0.2781 -0.3185  0.0299
   10ASP     HN   96   1.673   3.128   5.290  0.5108 -2.9782 -0.5297
   10ASP     CA   97   1.635   3.211   5.489 -0.3172  0.1123  0.1472
   10ASP     HA   98   1.716   3.203   5.560  0.5417 -4.7266 -1.0069
   10ASP     CB   99   1.640   3.346   5.409  0.7372 -0.9294 -0.0064
   10ASP    HB1  100   1.603   3.437   5.461  1.5010 -1.0693  0.8213
   10ASP    HB2  101   1.583   3.339   5.314 -0.9181  1.5803  0.6930
   10ASP     CG  102   1.785   3.366   5.365 -0.1042  0.1770  0.2699
   10ASP    OD1  103   1.879   3.316   5.432  0.5891 -0.0072 -0.1955
   10ASP    OD2  104   1.815   3.439   5.268 -0.3116 -0.4043  0.1678
   10ASP      C  105   1.513   3.188   5.576  0.6277  0.0192 -0.7440
   10ASP      O  106   1.401   3.154   5.534 -0.2134 -0.0675  0.8588
   11GLY      N  107   1.534   3.193   5.711  0.1722 -0.3665 -0.0996
   11GLY     HN  108   1.627   3.199   5.745 -0.2055  0.0620  0.9062
   11GLY     CA  109   1.423   3.189   5.805 -0.3283 -0.2182  0.8866
   11GLY    HA1  110   1.334   3.224   5.755  0.7969  0.7441 -0.5090
   11GLY    HA2  111   1.447   3.256   5.887  0.8782 -0.8473  1.0726
   11GLY      C  112   1.390   3.052   5.869 -0.1025  0.4480  0.2125
   11GLY    OT1  113   1.278   3.000   5.853  0.1551  0.3541  0.0333
   11GLY    OT2  114   1.475   2.984   5.928  0.1552 -0.5557  0.4640
   12LIT    LIT  115   0.316   6.087   4.658  1.4090  0.3963 -0.7962
   13LIT    LIT  116   1.823   5.907   2.872 -0.2704  0.2478  0.2555
   14LIT    LIT  117   0.488   6.587   1.247 -0.0777 -0.8947  0.3764
   15LIT    LIT  118   6.867   5.953   4.889 -0.0858  0.1742  0.8717
   16LIT    LIT  119   3.763   6.222   0.015  0.5445 -0.1946  1.6588
   17LIT    LIT  120   5.280   6.526   1.380 -0.1750  0.9343  1.1065
   18LIT    LIT  121   2.120   6.722   5.495 -1.0723 -0.0912  0.0394
   19LIT    LIT  122   4.914   5.517   3.452 -0.1789 -0.6604 -0.8445
   20LIT    LIT  123   5.243   2.986   2.645 -1.1575 -1.3673  1.7115
   21LIT    LIT  124   5.174   6.730   1.738  0.3980 -1.0043 -0.0536
   22LIT    LIT  125   4.430   6.750   1.550  1.5247  0.2198 -0.2827
   23LIT    LIT  126   0.612   0.410   3.262 -0.8989  0.4138  0.9688
   24LIT    LIT  127   2.100   4.985   0.827  0.7630 -0.7726  0.3267
   25LIT    LIT  128   2.490   1.758   5.696  0.2107 -0.4905 -0.7323
   26LIT    LIT  129   1.973   3.226   5.561 -0.7207  0.4703  0.9048
   27LIT    LIT  130   1.998   0.711   1.452 -0.0451  0.1018  0.1445
   28LIT    LIT  131   0.727   1.235   0.543 -0.0215 -0.0088 -0.5079
   29LIT    LIT  132   5.428   3.850   0.634 -0.1561  0.1322  0.5597
   30LIT    LIT  133   0.545   6.436   2.880  0.0526 -0.4776 -0.9244
   31LIT    LIT  134   5.544   1.149   5.321  0.4044  0.7152  0.3384
   32LIT    LIT  135   3.667   1.200   0.177 -0.8741  0.2605  0.6754
   33LIT    LIT  136   6.695   1.410   2.678  0.6040 -0.6777  0.0730
   34LIT    LIT  137   5.449   0.823   0.585  0.7543 -0.4649  1.5782
   35LIT    LIT  138   1.099   1.585   2.392 -0.9113  0.2381  0.9774
   36LIT    LIT  139   2.619   4.477   4.409 -0.6596 -0.3476 -0.0172
   37LIT    LIT  140   0.055   3.291   5.779 -0.3450  0.7486  0.2043
   38LIT    LIT  141   1.237   4.308   4.287  0.0823  0.2998 -1.0455
   39LIT    LIT  142   3.904   2.439   3.744 -0.3685 -0.0375  0.1604
   40LIT    LIT  143   0.033   5.938   3.046  0.0277  0.0145 -0.6818
   41LIT    LIT  144   5.303   4.612   2.542  1.2662 -0.3167 -0.2198
   42LIT    LIT  145   3.101   3.305   4.697 -0.0680  0.6060 -0.2281
   43CLA    CLA  146   4.281   5.817   5.096  0.4959  0.4428 -0.4638
   44CLA    CLA  147   6.089   0.042   1.707  0.0258  0.1383 -0.0024
   45CLA    CLA  148   1.697   5.215   3.575  0.2515  0.2712 -0.2596
   46CLA    CLA  149   6.712   5.531   2.549  0.2493  0.5497 -0.1665
   47CLA    CLA  150   5.713   2.829   0.119  0.2445  0.0251  0.2266
   48CLA    CLA  151   3.961   0.039   2.946 -0.0381 -0.1087 -0.2764
   49CLA    CLA  152   1.519   0.340   5.886 -0.2932 -0.3635  0.0873
   50CLA    CLA  153   0.955   2.301   2.788  0.2602 -0.0332 -0.1878
   51CLA    CLA  154   4.369   3.238   4.453  0.0354  0.0818 -0.4128
   52CLA    CLA  155   1.692   6.494   4.050 -0.1152 -0.5496 -0.2470
   53CLA    CLA  156   3.836   1.321   0.057 -0.0123 -0.0503  0.4795
   54CLA    CLA  157   3.619   2.170   3.994  0.0029 -0.0380  0.3383
   55CLA    CLA  158   2.981   3.155   3.593 -0.1062  0.0032 -0.0567
   56CLA    CLA  159   2.779   2.768   3.655 -0.3929 -0.1582 -0.2910
   57CLA    CLA  160   0.431   5.120   4.906  0.6038  0.3826 -0.2202
   58CLA    CLA  161   2.539   0.983   0.499 -0.2852 -0.2305 -0.2346
   59CLA    CLA  162   6.231   0.237   2.706  0.0076 -0.0272 -0.3492
   60CLA    CLA  163   6.949   6.324   4.560 -0.1892 -0.0555  0.5618
   61CLA    CLA  164   0.740   6.309   1.003  0.2131 -0.1904  0.0527
   62CLA    CLA  165   6.425   3.233   4.766 -0.2332 -0.4523 -0.0108
   63CLA    CLA  166   2.081   3.866   2.393  0.0699  0.5091 -0.5074
   64CLA    CLA  167   3.777   6.156   1.380  0.2694  0.1554 -0.1836
   65CLA    CLA  168   1.360   4.274   2.662  0.3470 -0.1505  0.1861
   66CLA    CLA  169   5.182   3.006   2.862 -0.0474  0.4065 -0.2359
   67CLA    CLA  170   3.462   3.535   5.663  0.2103  0.5196 -0.1503
   68CLA    CLA  171   4.943   6.566   2.275  0.3127  0.2368  0.2124
   69CLA    CLA  172   0.345   3.636   4.540 -0.4422 -0.1899 -0.4992
   70TIP3   OH2  173   4.109   6.487   2.654 -0.5028 -0.1594 -0.3783
   70TIP3    H1  174   4.110   6.465   2.747  0.3371  0.6065 -0.1898
   70TIP3    H2  175   4.106   6.583   2.652  2.9998  0.0698 -1.0432
   71TIP3   OH2  176   4.359   3.289   4.974 -0.3969  0.4225 -0.0568
   71TIP3    H1  177   4.365   3.206   5.021 -3.0476 -0.4658 -1.1111
   71TIP3    H2  178   4.308   3.346   5.031 -1.2538  0.2507 -0.6270
   72TIP3   OH2  179   1.402   2.828   0.321  0.1385  0.3064  0.2321
   72TIP3    H1  180   1.434   2.911   0.287 -1.4629  1.4813  1.4246
   72TIP3    H2  181   1.406   2.838   0.416 -0.3221 -0.8749  0.3983
   73TIP3   OH2  182   2.444   1.558   4.683 -0.7251  0.3649 -0.1690
   73TIP3    H1  183   2.364   1.543   4.633 -0.7616  0.2387 -0.0734
   73TIP3    H2  184   2.496   1.617   4.628 -0.4140 -0.4160 -0.7300
   74TIP3   OH2  185   6.165   1.165   0.500  0.3955  0.1376  0.1531
   74TIP3    H1  186   6.218   1.245   0.495  0.2205  0.2557  0.2098
   74TIP3    H2  187   6.086   1.191   0.547  0.2368 -0.0123 -0.0284
   75TIP3   OH2  188   6.477   5.427   3.991 -0.6305 -0.3978  0.5583
   75TIP3    H1  189   6.533   5.450   3.917 -1.0125 -0.4346  0.2534
   75TIP3    H2  190   6.506   5.339   4.016 -0.3693 -0.3065  0.5820
   76TIP3   OH2  191   2.964   3.253   2.868  0.3171 -0.2973 -0.2367
   76TIP3    H1  192   2.952   3.240   2.774 -1.0842 -1.1500  0.0389
   76TIP3    H2  193   2.961   3.166   2.905  1.3843 -0.0101  0.5730
   77TIP3   OH2  194   1.842   0.552   3.408 -0.0972 -0.3553 -0.3750
   77TIP3    H1  195   1.862   0.631   3.458 -0.1601 -1.4364  1.4679
   77TIP3    H2  196   1.748   0.560   3.388 -0.1610 -0.0661  0.0222
   78TIP3   OH2  197   6.971   3.578   5.189 -0.3416  0.0794 -0.2943
   78TIP3    H1  198   6.934   3.613   5.108  0.8142  1.4970 -0.2541
   78TIP3    H2  199   7.019   3.651   5.227  0.9443 -1.1612  0.5766
   79TIP3   OH2  200   5.579   1.691   0.193 -0.1188 -0.0210  0.0560
   79TIP3    H1  201   5.557   1.759   0.129  3.2860  0.7997 -0.4442
   79TIP3    H2  202   5.578   1.737   0.277 -0.0244  0.0835  0.0005
   80TIP3   OH2  203   6.703   5.964   2.350 -0.0853 -0.0367 -0.4172
   80TIP3    H1  204   6.693   5.954   2.444  0.9573 -0.7784 -0.3715
   80TIP3    H2  205   6.679   5.879   2.313  2.1746 -0.6654 -0.5721
   81TIP3   OH2  206   6.463   0.083   4.858  0.2108  0.3672 -0.1923
   81TIP3    H1  207   6.443   0.074   4.951  0.5373 -0.5190 -0.2022
   81TIP3    H2  208   6.496  -0.003   4.832  0.7784  0.8044 -0.9650
   82TIP3   OH2  209   6.972   3.778   4.082 -0.3562 -0.4445 -0.1111
   82TIP3    H1  210   7.012   3.701   4.042  1.1914 -0.2650  1.0069
   82TIP3    H2  211   7.045   3.828   4.117 -1.5611 -0.7444  3.2204
   83TIP3   OH2  212   0.991   3.006   3.581 -0.1121  0.0934  0.2924
   83TIP3    H1  213   0.992   2.964   3.496  1.1350  1.6059 -0.5125
   83TIP3    H2  214   1.051   3.080   3.571 -0.4504  0.6964  2.2880
   84TIP3   OH2  215   5.152   6.407   5.382 -0.0940  0.4109  0.6897
   84TIP3    H1  216   5.240   6.417   5.345 -1.5118  0.9357 -2.9326
   84TIP3    H2  217   5.122   6.497   5.397 -0.7732  0.3426 -0.1876
   85TIP3   OH2  218   2.413   6.222   4.905  0.0135 -0.1399  0.1109
   85TIP3    H1  219   2.483   6.194   4.845 -1.1020 -0.6462 -1.0117
   85TIP3    H2  220   2.370   6.294   4.860 -1.6845 -1.3871 -0.3634
   86TIP3   OH2  221   6.886   2.835   0.576  0.3582 -0.1278 -0.2646
   86TIP3    H1  222   6.894   2.767   0.509 -1.6423  1.9906 -2.8670
   86TIP3    H2  223   6.971   2.879   0.575  0.9221 -1.1960 -0.1677
   87TIP3   OH2  224   7.163   0.725   3.811  0.0234  0.0639 -0.3040
   87TIP3    H1  225   7.142   0.716   3.718 -3.1612  1.6224  0.1035
   87TIP3    H2  226   7.213   0.806   3.817 -0.5645  0.4644 -0.6239
   88TIP3   OH2  227   1.977   0.001   2.698 -0.5985  0.0958  0.2053
   88TIP3    H1  228   1.973   0.076   2.757 -0.5344  0.0409  0.2780
   88TIP3    H2  229   2.027  -0.065   2.745 -2.3040 -0.7178  0.9446
   89TIP3   OH2  230   4.881   6.213   2.573  0.0249  0.5664  0.1464
   89TIP3    H1  231   4.856   6.302   2.547 -2.6763 -0.3342 -0.6732
   89TIP3    H2  232   4.832   6.197   2.653 -0.7627 -0.6869 -0.5535
   90TIP3   OH2  233   5.094   1.167   5.265  0.5382  0.3100 -0.0455
   90TIP3    H1  234   5.041   1.196   5.339 -0.0175 -0.4142 -0.1404
   90TIP3    H2  235   5.031   1.151   5.195  0.9935  0.4166 -0.4855
   91TIP3   OH2  236   5.122   0.955   4.079  0.0375  0.6752  0.3892
   91TIP3    H1  237   5.128   0.886   4.145 -0.0802 -0.0180 -0.2973
   91TIP3    H2  238   5.178   1.025   4.111  0.6919 -0.0140  0.7879
   92TIP3   OH2  239   4.216   4.409   2.724 -0.2286  0.0542  0.2601
   92TIP3    H1  240   4.202   4.503   2.731 -0.2072  0.1373 -0.7191
   92TIP3    H2  241   4.144   4.370   2.774  0.7312  0.5865  2.1738
   93TIP3   OH2  242   4.587   0.943   4.358 -0.0594 -0.2177  0.3045
   93TIP3    H1  243   4.677   0.914   4.372 -0.0222 -0.0185  0.4818
   93TIP3    H2  244   4.533   0.868   4.383  0.0625 -0.3939  0.0443
   94TIP3   OH2  245   5.802   5.693   1.730  0.2613  0.3584 -0.3756
   94TIP3    H1  246   5.871   5.695   1.663  1.1488  3.0068  0.5020
   94TIP3    H2  247   5.721   5.683   1.680  1.0486  0.2957 -1.6922
   95TIP3   OH2  248   3.814   2.450   4.482 -0.5987  0.0773 -0.5423
   95TIP3    H1  249   3.778   2.531   4.519  0.9932  0.2893  0.6263
   95TIP3    H2  250   3.906   2.470   4.465  0.0052 -1.6730  0.4147
   96TIP3   OH2  251   0.491   6.670   2.544 -0.1871  0.2027  0.2030
   96TIP3    H1  252   0.438   6.592   2.527  0.0340  0.2792 -0.9099
   96TIP3    H2  253   0.428   6.739   2.564 -0.4736  0.1373 -0.4674
   97TIP3   OH2  254   5.437   2.329   2.128  0.0410  0.1362 -0.4705
   97TIP3    H1  255   5.505   2.267   2.155 -0.0834  0.2930  0.2190
   97TIP3    H2  256   5.472   2.371   2.049  1.4641  1.3967  0.7884
   98TIP3   OH2  257   1.637   2.200   1.315  0.0298 -0.0254  0.4378
   98TIP3    H1  258   1.578   2.126   1.298 -2.9370  1.7076  2.1895
   98TIP3    H2  259   1.698   2.167   1.382 -0.8594 -1.0685  0.7645
   99TIP3   OH2  260   5.584   1.636   2.769  0.7085  0.1200 -0.3173
   99TIP3    H1  261   5.540   1.720   2.754  1.8255  0.7447 -0.2011
   99TIP3    H2  262   5.590   1.629   2.865  0.7676 -0.0136 -0.3310
  100TIP3   OH2  263   5.656   1.654   3.421 -0.2469 -0.0972  0.5695
  100TIP3    H1  264   5.691   1.571   3.451  1.1676  1.2870  3.0063
  100TIP3    H2  265   5.675   1.716   3.491  0.8384  2.8380 -2.0568
  101TIP3   OH2  266   1.610   0.415   3.087 -0.1227 -0.4198 -0.1906
  101TIP3    H1  267   1.554   0.492   3.094  0.8792  0.2766  0.4564
  101TIP3    H2  268   1.587   0.362   3.164  1.6201  0.9446  1.3798
  102TIP3   OH2  269   4.991   0.225   0.430  0.1908 -0.4163  0.0045
  102TIP3    H1  270   5.057   0.216   0.499  0.6524  1.4716 -0.1327
  102TIP3    H2  271   4.945   0.306   0.451 -0.0633 -0.1225 -1.5576
  103TIP3   OH2  272   3.570   4.215   0.305 -0.3881 -0.8834 -0.5989
  103TIP3    H1  273   3.530   4.128   0.304 -1.6532 -0.3765  1.3186
  103TIP3    H2  274   3.620   4.218   0.386  1.0059 -0.3504 -1.4301
  104TIP3   OH2  275   5.589   5.561   3.048  0.1316 -0.5629 -0.5297
  104TIP3    H1  276   5.597   5.592   3.139 -1.4946  0.2966 -0.6399
  104TIP3    H2  277   5.571   5.468   3.057 -0.4948 -0.3971  0.0746
  105TIP3   OH2  278   1.483   3.158   1.174 -0.4809  0.1542  0.4413
  105TIP3    H1  279   1.554   3.119   1.224  0.2744  0.4812 -0.3517
  105TIP3    H2  280   1.515   3.246   1.151 -0.0921 -0.5595 -2.0119
  106TIP3   OH2  281   5.663   3.422   4.576  0.0215 -0.2911  0.1195
  106TIP3    H1  282   5.640   3.461   4.660 -1.7306  0.2520 -0.5613
  106TIP3    H2  283   5.756   3.442   4.564 -0.1824  1.3461  1.0302
  107TIP3   OH2  284   6.137   4.217   3.177  0.3028 -0.2302 -0.8315
  107TIP3    H1  285   6.103   4.128   3.169  1.6118 -0.7658 -0.6004
  107TIP3    H2  286   6.232   4.208   3.171  0.6860  0.8016  2.0120
  108TIP3   OH2  287   1.308   3.098   0.968 -0.1237 -0.2812  0.3277
  108TIP3    H1  288   1.361   3.087   1.047 -1.9934  0.0833  1.6960
  108TIP3    H2  289   1.285   3.191   0.967 -0.5240 -0.3786 -0.4105
  109TIP3   OH2  290   0.712   0.573   2.830 -0.4913  0.1342 -0.4459
  109TIP3    H1  291   0.717   0.521   2.910  0.7395  1.0349  0.0941
  109TIP3    H2  292   0.743   0.515   2.761 -0.0651 -0.1538 -0.0186
  110TIP3   OH2  293   4.395   6.403   1.708  0.1788  0.3605  0.1685
  110TIP3    H1  294   4.327   6.444   1.762  0.3735  1.2920 -0.2713
  110TIP3    H2  295   4.355   6.391   1.622  0.3823  0.3711  0.0702
  111TIP3   OH2  296   3.166   0.073   2.510 -0.0956  0.2414  0.1447
  111TIP3    H1  297   3.185   0.165   2.489  0.0633  0.0917 -0.3717
  111TIP3    H2  298   3.102   0.046   2.444 -0.4060  0.0791  0.5085
  112TIP3   OH2  299   3.454   5.937   3.661 -0.5295 -1.0357  0.0034
  112TIP3    H1  300   3.408   5.910   3.740  0.5508 -0.2116  0.9445
  112TIP3    H2  301   3.496   5.857   3.629 -0.6962 -1.3044  0.4432
  113TIP3   OH2  302   3.887   1.111   5.472 -0.2527  0.2595  0.1216
  113TIP3    H1  303   3.857   1.021   5.460  0.4256  0.0647 -0.1872
  113TIP3    H2  304   3.807   1.164   5.473 -0.7219 -0.4411  1.2497
  114TIP3   OH2  305   1.512   4.547   1.505 -0.1278 -0.1704 -0.4700
  114TIP3    H1  306   1.423   4.528   1.534  0.0298 -0.0953  0.0697
  114TIP3    H2  307   1.522   4.641   1.517 -0.1701 -0.0811 -1.0890
  115TIP3   OH2  308   1.525   4.320   3.365 -0.0462 -0.5591  0.8282
  115TIP3    H1  309   1.500   4.262   3.294  0.9582  1.5848 -1.3965
  115TIP3    H2  310   1.600   4.277   3.406 -0.0457 -1.3647  0.0072
  116TIP3   OH2  311   5.775   5.218   3.613  0.3051  0.3737 -0.4244
  116TIP3    H1  312   5.861   5.240   3.647 -0.4441  0.6712  1.4001
  116TIP3    H2  313   5.754   5.134   3.655 -1.3588  1.5751  1.3027
  117TIP3   OH2  314   3.209   4.862   4.174  0.5098 -0.1716 -0.4117
  117TIP3    H1  315   3.144   4.843   4.106  1.2980 -2.0274 -0.7159
  117TIP3    H2  316   3.158   4.872   4.254 -0.2568 -0.3206 -0.8724
  118TIP3   OH2  317   6.837   1.125   5.685 -0.2849  0.0836 -0.4002
  118TIP3    H1  318   6.785   1.058   5.641 -1.9856 -1.3336  3.3542
  118TIP3    H2  319   6.906   1.076   5.729  1.0393  1.3595 -0.9981
  119TIP3   OH2  320   1.803   2.633   3.081 -0.4495 -0.2290 -0.7196
  119TIP3    H1  321   1.861   2.628   3.158 -0.2426 -1.2778 -0.9418
  119TIP3    H2  322   1.823   2.555   3.030 -2.5367 -0.9679 -0.4793
  120TIP3   OH2  323   7.082   1.436   1.991 -0.1832  0.1749  0.4620
  120TIP3    H1  324   6.998   1.400   1.963  0.8762 -2.1242 -0.0036
  120TIP3    H2  325   7.075   1.441   2.087 -0.7357 -0.3551  0.4541
  121TIP3   OH2  326   3.716   4.012   5.368 -0.8145  0.5223 -0.2351
  121TIP3    H1  327   3.651   3.951   5.404 -1.9531  0.8635 -1.6341
  121TIP3    H2  328   3.705   4.092   5.420  0.5437 -0.3276  1.4678
  122TIP3   OH2  329   5.216   0.322   3.595 -0.0057  0.5300 -0.0729
  122TIP3    H1  330   5.276   0.249   3.612  0.4046  1.1662  1.3774
  122TIP3    H2  331   5.271   0.391   3.559 -0.3671  0.2013 -1.2978
  123TIP3   OH2  332   5.722   2.803   1.170 -0.6904  0.2959 -0.1292
  123TIP3    H1  333   5.803   2.840   1.205  0.0004 -1.3304  0.0617
  123TIP3    H2  334   5.703   2.857   1.093  0.6794  0.5876 -0.2957
  124TIP3   OH2  335   4.261   5.794   1.293 -0.1684  0.1259 -0.8080
  124TIP3    H1  336   4.311   5.876   1.294 -1.5448  1.0093 -1.4620
  124TIP3    H2  337   4.170   5.821   1.295 -0.7102 -1.4689  1.8541
  125TIP3   OH2  338   4.720  -0.031   4.265 -0.2623  0.4920 -0.5579
  125TIP3    H1  339   4.778  -0.011   4.339  0.5708  0.6566 -1.2381
  125TIP3    H2  340   4.673   0.050   4.249  1.0762  1.1182 -1.5223
  126TIP3   OH2  341   5.949   2.925   5.454 -0.0827  0.5506  0.7633
  126TIP3    H1  342   6.016   2.980   5.414  1.2053 -1.0211  0.6654
  126TIP3    H2  343   5.993   2.883   5.528 -0.3684 -1.9268 -0.3763
  127TIP3   OH2  344   0.981   5.542   4.446 -0.0327 -0.3866 -0.0920
  127TIP3    H1  345   0.942   5.552   4.359 -1.8356  1.3452  0.8042
  127TIP3    H2  346   1.073   5.565   4.434  0.0670 -1.4729 -1.7406
  128TIP3   OH2  347   2.007   3.354   5.707 -0.0754  0.1261  0.3122
  128TIP3    H1  348   1.967   3.440   5.720 -0.2926 -0.1380  1.5398
  128TIP3    H2  349   2.086   3.356   5.762 -0.2347 -0.5500  0.5759
  129TIP3   OH2  350   0.169   1.427   2.176  0.4666 -0.0150 -0.5349
  129TIP3    H1  351   0.160   1.521   2.190  1.1481  0.0655 -0.6064
  129TIP3    H2  352   0.247   1.418   2.122  0.4572 -0.6274 -0.4520
  130TIP3   OH2  353   4.203   5.329   3.185 -0.1765 -0.7231  0.0313
  130TIP3    H1  354   4.171   5.266   3.250 -0.2546 -0.3039  0.3986
  130TIP3    H2  355   4.292   5.299   3.166 -0.1919 -0.9153  0.2444
  131TIP3   OH2  356   2.056   0.453   3.762  0.7500 -0.0097 -0.0224
  131TIP3    H1  357   2.120   0.456   3.834  0.8434  2.1000 -0.1267
  131TIP3    H2  358   2.110   0.455   3.683  0.6914 -3.2654 -0.2636
  132TIP3   OH2  359   1.125   2.143   4.639 -0.3056 -0.3778 -0.3227
  132TIP3    H1  360   1.130   2.048   4.650 -0.1143 -0.2230  1.0137
  132TIP3    H2  361   1.032   2.164   4.646 -0.5064 -0.5804 -1.8808
  133TIP3   OH2  362   5.651   5.870   5.391 -0.1452 -0.0658 -0.1085
  133TIP3    H1  363   5.724   5.809   5.390  0.4138  0.5766  0.5398
  133TIP3    H2  364   5.635   5.887   5.483  0.0025  1.1080 -0.2885
  134TIP3   OH2  365   5.276   3.911   4.992  0.4906  0.0368 -0.7870
  134TIP3    H1  366   5.341   3.903   4.922  0.7441  1.9215 -0.8113
  134TIP3    H2  367   5.302   3.989   5.040  0.0058 -0.9019  1.1054
  135TIP3   OH2  368   0.126   1.218   4.176 -0.1409  0.5496  0.1887
  135TIP3    H1  369   0.154   1.168   4.100 -3.3077 -0.3428 -0.5409
  135TIP3    H2  370   0.076   1.291   4.140  0.6063  1.6893  1.3731
  136TIP3   OH2  371   6.692   4.332   5.259  0.3301  0.5988 -0.0879
  136TIP3    H1  372   6.652   4.353   5.175 -0.9187 -1.5015 -0.1026
  136TIP3    H2  373   6.785   4.327   5.241  0.1712  1.1491 -1.1259
  137TIP3   OH2  374   4.733   3.587   0.748 -0.0555  0.9609  0.6000
  137TIP3    H1  375   4.685   3.579   0.830 -0.1559  1.0223  0.5473
  137TIP3    H2  376   4.666   3.611   0.683  0.0758  1.2173  0.5603
  138TIP3   OH2  377   4.465   6.289   1.194 -0.3486 -0.2403 -0.3293
  138TIP3    H1  378   4.389   6.231   1.196 -1.4334  1.1076 -1.1832
  138TIP3    H2  379   4.432   6.373   1.226  0.9487  0.1977 -0.0818
  139TIP3   OH2  380   2.101   4.434   2.887  0.1769 -0.1964 -0.0199
  139TIP3    H1  381   2.058   4.379   2.822 -0.2603  1.2314 -0.9677
  139TIP3    H2  382   2.066   4.522   2.872 -0.8143  0.0234  2.8724
  140TIP3   OH2  383   6.342   4.549   3.915  0.8257 -0.3570  0.5925
  140TIP3    H1  384   6.301   4.505   3.989  0.1700 -1.0031 -0.1326
  140TIP3    H2  385   6.420   4.590   3.951  1.2226 -1.7568  1.3887
  141TIP3   OH2  386   0.852   0.274   3.620  0.3341 -1.0016 -0.5687
  141TIP3    H1  387   0.900   0.338   3.567  1.3275  0.1013  1.5022
  141TIP3    H2  388   0.920   0.223   3.664 -0.4216 -1.5318  0.0282
  142TIP3   OH2  389   6.299   0.834   2.796  0.3492  0.0799 -0.7069
  142TIP3    H1  390   6.311   0.767   2.729 -1.1848 -1.8468  0.7974
  142TIP3    H2  391   6.235   0.895   2.759 -0.7264 -1.1429 -0.9448
  143TIP3   OH2  392   5.920   1.180   1.607 -0.1309  0.1147 -0.3118
  143TIP3    H1  393   5.854   1.116   1.634 -1.5802  1.2886 -0.9345
  143TIP3    H2  394   5.973   1.134   1.541 -0.3941 -0.8096  0.1145
  144TIP3   OH2  395   2.577   1.180   1.157  0.5147 -0.1108  0.0725
  144TIP3    H1  396   2.579   1.190   1.061  0.8103 -1.3743 -0.0593
  144TIP3    H2  397   2.561   1.087   1.171 -2.6028  0.4759  1.2580
  145TIP3   OH2  398   0.161   3.140   4.963 -0.5160  0.5312 -0.4469
  145TIP3    H1  399   0.121   3.076   4.905 -0.5187 -0.4542  0.6117
  145TIP3    H2  400   0.119   3.223   4.940  0.6910  0.5113 -2.9901
  146TIP3   OH2  401   4.861   5.258   4.605 -0.7112  0.2551 -0.1937
  146TIP3    H1  402   4.919   5.279   4.679  0.2017  0.0538 -0.8391
  146TIP3    H2  403   4.817   5.177   4.632  0.3340 -0.3504 -0.2602
  147TIP3   OH2  404   4.563   2.328   4.053  0.3278 -0.1119  0.1349
  147TIP3    H1  405   4.516   2.408   4.033  0.6861  0.7801  2.5021
  147TIP3    H2  406   4.654   2.356   4.064  0.6829 -1.0740 -0.2852
  148TIP3   OH2  407   3.965   1.606   1.540  0.2156 -0.1411 -0.2370
  148TIP3    H1  408   3.964   1.696   1.507  1.2433 -0.1348 -0.2949
  148TIP3    H2  409   3.982   1.615   1.633  1.2216 -0.2883 -0.3906
  149TIP3   OH2  410   6.836   3.144   3.519  0.7139 -0.4272 -0.4638
  149TIP3    H1  411   6.848   3.238   3.504 -2.5066 -0.0183 -1.2097
  149TIP3    H2  412   6.892   3.101   3.454 -0.9313  1.1050 -3.0387
  150TIP3   OH2  413   5.788   3.636   3.562  0.2563  0.4313  0.1247
  150TIP3    H1  414   5.754   3.596   3.482 -0.0571  1.2755 -0.1805
  150TIP3    H2  415   5.722   3.616   3.629 -0.2067  0.9446 -0.1680
  151TIP3   OH2  416   5.288   6.759   2.392  0.0557 -0.1245  0.1652
  151TIP3    H1  417   5.334   6.781   2.311 -0.9277 -0.6869 -0.5824
  151TIP3    H2  418   5.253   6.671   2.376 -1.1711  0.2413  0.7348
  152TIP3   OH2  419   2.407   1.092   1.458  0.0958 -0.5602  0.2818
  152TIP3    H1  420   2.337   1.144   1.419  0.0457 -0.7737  0.0817
  152TIP3    H2  421   2.451   1.152   1.518  0.0434 -0.2855  0.0513
  153TIP3   OH2  422   1.912   1.425   3.980 -0.0410 -0.8095 -0.2536
  153TIP3    H1  423   1.868   1.346   3.947  0.7948 -2.0307  1.3795
  153TIP3    H2  424   1.876   1.437   4.068 -0.4473  0.9079 -0.6279
  154TIP3   OH2  425   3.835   6.177   0.449  0.6067 -0.0012 -0.0952
  154TIP3    H1  426   3.887   6.250   0.414  1.0654  0.0329  0.6309
  154TIP3    H2  427   3.900   6.112   0.474  0.1854 -0.7803 -0.9857
  155TIP3   OH2  428   5.814   5.587   4.747  0.1819 -0.0044  0.4619
  155TIP3    H1  429   5.731   5.539   4.745 -0.5576  1.2363  0.5537
  155TIP3    H2  430   5.881   5.518   4.739 -0.8311 -1.0492  0.6270
  156TIP3   OH2  431   6.034   4.908   5.801  0.0660  0.1941  0.5582
  156TIP3    H1  432   6.101   4.842   5.820  0.6789  0.7930  0.4881
  156TIP3    H2  433   5.954   4.857   5.787  1.0339 -0.7513 -2.1156
  157TIP3   OH2  434   3.288   4.169   0.438 -0.2511  0.4937  0.2162
  157TIP3    H1  435   3.352   4.214   0.493  0.7667 -1.2311  0.5162
  157TIP3    H2  436   3.341   4.118   0.376 -1.2787 -1.3715  0.7864
  158TIP3   OH2  437   0.430   2.644   5.025 -0.4231 -0.4013 -0.0967
  158TIP3    H1  438   0.346   2.663   4.983 -1.5116 -2.2366  1.0804
  158TIP3    H2  439   0.416   2.666   5.117  0.0170 -1.6680  0.2980
  159TIP3   OH2  440   0.996   6.425   0.842  0.0250 -0.2047  0.4841
  159TIP3    H1  441   1.065   6.363   0.865 -0.5088 -0.2666  2.0179
  159TIP3    H2  442   0.915   6.384   0.874 -0.5084  0.6509  0.2788
  160TIP3   OH2  443   2.345   6.663   4.962  0.1839  0.2650 -0.0456
  160TIP3    H1  444   2.383   6.720   5.029 -1.9044  1.5297  0.1507
  160TIP3    H2  445   2.367   6.575   4.990  1.1974  0.8640  1.1198
  161TIP3   OH2  446   3.152   5.384   1.337  0.0850 -0.1390 -0.5248
  161TIP3    H1  447   3.213   5.449   1.304  0.6856 -0.5622 -0.2603
  161TIP3    H2  448   3.084   5.435   1.382 -0.1107  0.3684 -1.3716
  162TIP3   OH2  449   5.239   3.113   5.086 -0.1229 -0.1907  0.3533
  162TIP3    H1  450   5.332   3.090   5.084 -0.2198 -0.7047  1.0565
  162TIP3    H2  451   5.200   3.064   5.014  0.1081 -0.2103  0.2418
  163TIP3   OH2  452   4.678   3.569   1.008 -0.3371  0.3789  0.6686
  163TIP3    H1  453   4.729   3.637   1.054 -0.0426 -0.6196  1.8947
  163TIP3    H2  454   4.647   3.512   1.078 -0.9554 -0.5012 -0.3008
  164TIP3   OH2  455   2.914   1.327   5.001 -0.3344 -0.1346  0.1322
  164TIP3    H1  456   2.867   1.410   5.003 -2.4897 -1.2399 -0.7974
  164TIP3    H2  457   2.879   1.282   4.924  0.6397 -1.9714  0.7078
  165TIP3   OH2  458   0.503   2.035   4.526  0.2640  0.0702  0.1841
  165TIP3    H1  459   0.582   2.086   4.506  0.5403 -0.2678  0.4122
  165TIP3    H2  460   0.526   1.945   4.505  0.0182 -0.0660  0.4917
  166TIP3   OH2  461   1.807   0.945   0.785 -0.3613 -0.3142  0.3254
  166TIP3    H1  462   1.829   0.973   0.696 -0.2532 -0.7627  0.2105
  166TIP3    H2  463   1.891   0.940   0.831 -0.1097 -2.5748 -0.2717
  167TIP3   OH2  464   6.136   4.168   1.895 -0.4766 -0.0859  0.0171
  167TIP3    H1  465   6.191   4.177   1.817 -0.2092  0.0027  0.2140
  167TIP3    H2  466   6.116   4.074   1.899 -0.6383 -0.0660 -0.2549
  168TIP3   OH2  467   2.634   0.808   0.213 -0.9795  0.0008  0.1452
  168TIP3    H1  468   2.709   0.756   0.241 -1.4174 -0.4437  0.5113
  168TIP3    H2  469   2.601   0.849   0.293 -1.4468 -0.2372  0.0839
  169TIP3   OH2  470   6.562   1.513   4.591 -0.4779 -0.1284 -0.1568
  169TIP3    H1  471   6.592   1.445   4.652 -0.2828 -1.6548 -1.8444
  169TIP3    H2  472   6.468   1.520   4.608  0.0261  1.7679  2.4018
  170TIP3   OH2  473   4.296   1.288   2.687  0.1077  0.2558 -0.8367
  170TIP3    H1  474   4.244   1.209   2.674  1.1282 -0.4185 -0.9630
  170TIP3    H2  475   4.260   1.329   2.766  0.0720 -0.7617 -0.3133
  171TIP3   OH2  476   2.954   4.319   1.436  0.2387 -0.1287 -0.0637
  171TIP3    H1  477   2.954   4.224   1.443  0.5314 -0.1931 -0.8231
  171TIP3    H2  478   2.922   4.350   1.521 -0.6935 -0.9263 -0.1137
  172TIP3   OH2  479   5.784   1.176   3.654  0.0970  0.3154  0.0434
  172TIP3    H1  480   5.756   1.140   3.570 -0.6009  1.0957 -0.0769
  172TIP3    H2  481   5.706   1.219   3.689  0.5925  0.6961  0.7176
  173TIP3   OH2  482   6.574   0.340   4.529 -0.1046  0.1537  0.7070
  173TIP3    H1  483   6.581   0.430   4.498  2.9388  0.3169  1.5297
  173TIP3    H2  484   6.622   0.339   4.612  1.4556 -2.5127 -0.0825
  174TIP3   OH2  485   6.453   0.639   3.987 -0.0555  0.0671 -0.7153
  174TIP3    H1  486   6.545   0.658   4.005 -0.3227  1.1412 -0.4340
  174TIP3    H2  487   6.452   0.607   3.896  0.6372 -0.3802 -0.5737
  175TIP3   OH2  488   6.858   2.117   0.244  0.1830  0.3273  0.0735
  175TIP3    H1  489   6.874   2.028   0.274  0.5743  0.7152  1.0677
  175TIP3    H2  490   6.944   2.149   0.218 -0.0157  0.2959 -0.6406
  176TIP3   OH2  491   6.717   0.097   2.761 -0.4624 -0.7211  0.5209
  176TIP3    H1  492   6.684   0.176   2.803  0.5850  0.6951 -1.1881
  176TIP3    H2  493   6.686   0.026   2.817  0.5983  0.9740  3.5307
  177TIP3   OH2  494   2.141   3.083   0.999  0.6236 -0.1502 -0.9003
  177TIP3    H1  495   2.123   3.117   0.912 -0.4195  0.2374 -0.5435
  177TIP3    H2  496   2.055   3.059   1.034  0.9821  0.1031  0.1897
  178TIP3   OH2  497  -0.003   1.400   2.871 -0.0421 -0.1939  0.1699
  178TIP3    H1  498   0.077   1.452   2.878 -0.0398 -0.1711 -0.0279
  178TIP3    H2  499  -0.021   1.396   2.778 -0.9592  0.8418  0.2852
  179TIP3   OH2  500   4.752   5.111   2.443 -0.0880  0.0482 -0.2276
  179TIP3    H1  501   4.708   5.138   2.363 -0.6089 -0.1482 -0.0164
  179TIP3    H2  502   4.844   5.099   2.418 -0.2360  0.0439 -0.7785
  180TIP3   OH2  503   2.212   5.941   2.226  0.2050  0.2647  0.1464
  180TIP3    H1  504   2.199   5.853   2.193 -0.1752  0.5238 -0.3965
  180TIP3    H2  505   2.261   5.986   2.157 -0.7813  0.8663 -0.1811
  181TIP3   OH2  506   0.139   6.448   3.544  0.6410  0.1186  0.2224
  181TIP3    H1  507   0.209   6.459   3.481  0.4845  0.2599  0.0715
  181TIP3    H2  508   0.119   6.537   3.573 -1.5843  0.4784 -2.0316
  182TIP3   OH2  509   2.251   2.928   2.701 -0.3761  0.7079  0.0211
  182TIP3    H1  510   2.289   2.992   2.762  0.2026  1.3479 -0.9800
  182TIP3    H2  511   2.326   2.881   2.666 -0.6686  0.6257 -0.4999
  183TIP3   OH2  512   1.687   5.897   2.498  0.4174  0.0340 -0.1114
  183TIP3    H1  513   1.739   5.880   2.419 -1.6608 -0.5959 -1.4215
  183TIP3    H2  514   1.596   5.887   2.470 -0.5795  3.1763  1.5661
  184TIP3   OH2  515   6.798   0.920   4.627 -0.2576 -0.7927  0.1074
  184TIP3    H1  516   6.819   1.006   4.662 -0.1007 -0.8818  0.2314
  184TIP3    H2  517   6.817   0.860   4.698 -0.5469 -0.9130  0.0861
  185TIP3   OH2  518   4.025   2.945   4.686 -0.0850  0.5947  0.3970
  185TIP3    H1  519   3.937   2.921   4.715  0.5405  0.3223  2.1717
  185TIP3    H2  520   4.029   2.916   4.595 -0.7867 -2.3540  1.2063
  186TIP3   OH2  521   3.014   6.539   3.330  1.0665 -0.4186  0.1740
  186TIP3    H1  522   2.920   6.519   3.323  1.2980 -1.6417  0.3458
  186TIP3    H2  523   3.036   6.580   3.246 -0.1973  2.5734  1.1568
  187TIP3   OH2  524   7.104   5.832   0.445 -0.2519  0.4940  0.4129
  187TIP3    H1  525   7.162   5.791   0.509 -0.0090  0.4952  0.1940
  187TIP3    H2  526   7.114   5.926   0.460  1.0514  0.5590 -0.7069
  188TIP3   OH2  527   2.777   6.779  -0.009 -0.1481  0.1070  0.0622
  188TIP3    H1  528   2.763   6.805   0.082  2.0145  0.6854  0.2827
  188TIP3    H2  529   2.804   6.687  -0.003  2.7405  0.8604  0.3774
  189TIP3   OH2  530   3.143   4.630   0.507 -0.4190 -0.2777  0.1285
  189TIP3    H1  531   3.112   4.559   0.563  0.2780 -0.6687  0.0231
  189TIP3    H2  532   3.220   4.664   0.553  1.2614 -1.7770 -1.4624
  190TIP3   OH2  533   0.507   3.954   4.199 -0.4040 -0.5700  0.4064
  190TIP3    H1  534   0.571   3.973   4.267  0.2704 -1.9483  0.1832
  190TIP3    H2  535   0.437   4.018   4.214  1.5985  1.9636 -0.1823
  191TIP3   OH2  536   1.235   1.421   2.795  0.3468 -0.0067 -0.4353
  191TIP3    H1  537   1.316   1.373   2.811  0.2332 -0.5943 -1.5386
  191TIP3    H2  538   1.166   1.358   2.815  0.1897 -0.0298 -1.0260
  192TIP3   OH2  539   4.235   0.526   4.376  0.1171  0.0056 -0.0129
  192TIP3    H1  540   4.204   0.500   4.289  0.5353  1.3984 -0.6052
  192TIP3    H2  541   4.165   0.499   4.436  0.0572 -1.4495 -0.7015
  193TIP3   OH2  542   4.532   6.096   5.791 -0.0142 -0.2641  0.0631
  193TIP3    H1  543   4.443   6.124   5.809  0.6835  0.5115  2.8570
  193TIP3    H2  544   4.568   6.164   5.734 -0.8311  0.0397 -0.1031
  194TIP3   OH2  545   0.847   6.107   1.550 -0.0226  0.4685  0.3474
  194TIP3    H1  546   0.823   6.060   1.470 -0.8424 -0.6512  1.2175
  194TIP3    H2  547   0.924   6.159   1.525 -1.5563  1.9265 -1.7722
  195TIP3   OH2  548   6.707   6.106   3.258  0.7306  0.0921 -0.3679
  195TIP3    H1  549   6.799   6.111   3.233  0.4623 -0.5087 -1.5303
  195TIP3    H2  550   6.681   6.016   3.236  0.3794 -0.4182  1.8068
  196TIP3   OH2  551   5.457   0.530   3.214 -0.9338  0.0372  0.0689
  196TIP3    H1  552   5.390   0.551   3.150  0.6381  2.5858 -0.8927
  196TIP3    H2  553   5.521   0.477   3.166 -0.9699 -0.1740  0.2493
  197TIP3   OH2  554   2.910   3.559   0.316  0.2790 -0.0386 -0.4006
  197TIP3    H1  555   2.835   3.503   0.292  0.0339 -0.2445  0.7849
  197TIP3    H2  556   2.939   3.525   0.400  0.3798  1.3833  0.1556
  198TIP3   OH2  557   5.054   3.079   0.084  0.4573 -0.4903  0.3426
  198TIP3    H1  558   5.137   3.122   0.105  1.1749 -2.0083  0.7762
  198TIP3    H2  559   5.062   3.054  -0.008 -0.8271  2.0850 -0.5682
  199TIP3   OH2  560   2.663   1.255   4.045 -0.0292  0.7197  0.1107
  199TIP3    H1  561   2.611   1.329   4.015 -0.0017  1.0591  0.8686
  199TIP3    H2  562   2.744   1.294   4.078  0.8417  0.1785 -1.2975
  200TIP3   OH2  563   2.988   4.892   0.483 -0.1214 -0.4356  0.3700
  200TIP3    H1  564   3.042   4.814   0.472  0.4923 -0.1305  1.1288
  200TIP3    H2  565   3.019   4.932   0.564  0.2192  1.1064 -0.4640
  201TIP3   OH2  566   1.760   1.203   2.503  0.7095 -0.0787 -0.6182
  201TIP3    H1  567   1.696   1.140   2.535 -0.7468  1.7188  0.2178
  201TIP3    H2  568   1.786   1.171   2.417  0.4100 -2.0447 -0.0128
  202TIP3   OH2  569   2.377   1.881   2.421 -0.4649 -0.1724 -0.2175
  202TIP3    H1  570   2.452   1.893   2.363  1.4103 -0.6559  1.9660
  202TIP3    H2  571   2.345   1.969   2.438 -1.8316 -0.0686 -2.8203
  203TIP3   OH2  572   6.555   3.121   3.354 -0.7065 -0.5103 -0.4282
  203TIP3    H1  573   6.566   3.210   3.388 -0.7709  0.6307 -3.1337
  203TIP3    H2  574   6.644   3.090   3.338 -0.7043  0.4495 -2.6036
  204TIP3   OH2  575   4.679   3.640   2.348  0.1008 -0.4319  0.2128
  204TIP3    H1  576   4.727   3.637   2.265  0.1654 -0.3335  0.2451
  204TIP3    H2  577   4.604   3.584   2.334 -0.1483 -0.0366 -0.0803
  205TIP3   OH2  578   4.467   4.009   0.980  0.2239  0.8983 -0.1683
  205TIP3    H1  579   4.471   4.094   0.936 -1.9592  1.1188 -0.0363
  205TIP3    H2  580   4.374   3.990   0.988  0.6175 -2.0201 -1.1433
  206TIP3   OH2  581   3.818   5.296   1.000 -0.3632  0.2180  0.1528
  206TIP3    H1  582   3.800   5.216   0.951  1.0413  0.2508 -0.4708
  206TIP3    H2  583   3.848   5.358   0.934  3.5053 -0.3174  1.1060
  207TIP3   OH2  584   6.565   1.143   2.451  0.4752 -0.1076 -0.6659
  207TIP3    H1  585   6.532   1.218   2.500  0.8156  0.3563 -1.1396
  207TIP3    H2  586   6.549   1.068   2.508 -0.9646  0.1617 -0.6776
  208TIP3   OH2  587   5.898   4.324   4.440  0.2250 -0.2599  0.2171
  208TIP3    H1  588   5.883   4.231   4.458 -2.0343  0.0589  0.2568
  208TIP3    H2  589   5.892   4.366   4.525  1.6707 -0.0763  0.2599
  209TIP3   OH2  590   4.242   6.216   4.150  0.3769 -0.0136  0.4658
  209TIP3    H1  591   4.171   6.159   4.180  1.3859 -1.3331  0.4781
  209TIP3    H2  592   4.313   6.155   4.128  0.2210  0.8886 -3.2599
  210TIP3   OH2  593   5.830   5.924   2.594 -0.3524  0.3370  0.1892
  210TIP3    H1  594   5.752   5.880   2.626 -2.8194  4.7263  0.9886
  210TIP3    H2  595   5.878   5.948   2.674  0.6258 -0.2512 -0.1981
  211TIP3   OH2  596   2.514   2.511   4.513  0.1894 -0.8325 -0.3650
  211TIP3    H1  597   2.528   2.487   4.421 -2.7302 -2.5578 -0.4802
  211TIP3    H2  598   2.494   2.429   4.556  1.8132 -0.0926  1.9449
  212TIP3   OH2  599   1.026   1.200   2.605 -0.2281  0.4359  0.2789
  212TIP3    H1  600   1.052   1.146   2.680 -0.3614  0.1134  0.0940
  212TIP3    H2  601   1.008   1.286   2.642 -2.3212 -0.2451  0.9366
  213TIP3   OH2  602   7.142   4.289   0.468  0.1866  0.1340  0.6436
  213TIP3    H1  603   7.210   4.309   0.532  0.2325  1.6315  0.1521
  213TIP3    H2  604   7.160   4.346   0.394 -0.8071 -0.4276 -0.0648
  214TIP3   OH2  605   5.455   0.415   2.788 -0.2388 -0.2929  0.2189
  214TIP3    H1  606   5.465   0.350   2.857 -0.5011 -0.0603  0.4788
  214TIP3    H2  607   5.538   0.463   2.788  0.0503 -0.7882 -0.1449
  215TIP3   OH2  608   1.968   6.803   1.792 -0.3158 -0.2396 -0.3996
  215TIP3    H1  609   1.978   6.766   1.880 -1.3772 -1.1769 -0.6569
  215TIP3    H2  610   1.977   6.728   1.733 -0.6260  0.2179 -1.0401
  216TIP3   OH2  611   3.070   0.541   2.191 -0.9188  0.1842 -0.6643
  216TIP3    H1  612   3.062   0.508   2.102 -1.2502  0.4522 -0.7367
  216TIP3    H2  613   3.056   0.636   2.182 -0.5545  0.2645 -0.3849
  217TIP3   OH2  614   7.006   5.981   2.380  0.1822  0.2910  0.6464
  217TIP3    H1  615   6.991   5.897   2.421  1.9407 -0.0722  0.6210
  217TIP3    H2  616   7.012   5.961   2.286  0.7056  0.4165  0.6500
  218TIP3   OH2  617   5.297   3.071   4.259 -0.4112  0.0055  0.2168
  218TIP3    H1  618   5.273   3.146   4.314  1.0283  1.2156 -0.6989
  218TIP3    H2  619   5.253   3.087   4.176  1.2662  0.8481 -0.5779
  219TIP3   OH2  620   6.898   1.965   0.943 -0.2020  0.1330 -0.2637
  219TIP3    H1  621   6.990   1.992   0.940 -1.2167  4.2605  0.3462
  219TIP3    H2  622   6.849   2.042   0.914 -3.5808 -1.4182  0.8003
  220TIP3   OH2  623   2.424   5.552   0.175 -0.0411 -0.1079 -0.3024
  220TIP3    H1  624   2.484   5.559   0.101 -0.3392 -0.1346 -0.5482
  220TIP3    H2  625   2.400   5.642   0.196 -0.4977 -0.1399 -0.6839
  221TIP3   OH2  626   3.907   5.081   0.407  0.6594  0.0761 -0.4193
  221TIP3    H1  627   3.914   5.020   0.481  1.4091 -1.0628 -1.3925
  221TIP3    H2  628   3.849   5.151   0.439  1.4949 -0.0341  1.4616
  222TIP3   OH2  629   6.895   3.273   4.174 -0.1109 -0.2122 -0.3384
  222TIP3    H1  630   6.896   3.365   4.147 -0.6512  0.4763  1.7569
  222TIP3    H2  631   6.825   3.268   4.240  0.3968 -1.9484  0.1267
  223TIP3   OH2  632   1.841   1.442   0.082 -0.0163 -0.2696  0.1260
  223TIP3    H1  633   1.799   1.358   0.098 -2.0416  0.5414 -0.5572
  223TIP3    H2  634   1.925   1.437   0.127 -0.5176 -2.2749  0.9144
  224TIP3   OH2  635   1.315   1.840   4.781  0.1208 -0.2293 -0.4123
  224TIP3    H1  636   1.381   1.904   4.753  0.3736 -1.5449 -3.1053
  224TIP3    H2  637   1.327   1.834   4.876  2.0264  1.5484 -0.4555
  225TIP3   OH2  638   2.179   3.194   4.957 -0.2653  0.0289 -0.0867
  225TIP3    H1  639   2.101   3.196   4.901  0.1720 -0.3095 -0.7210
  225TIP3    H2  640   2.152   3.240   5.037 -1.7110 -1.7205  0.4904
  226TIP3   OH2  641   1.116   1.679   2.830  0.5241  0.4366  0.1811
  226TIP3    H1  642   1.163   1.736   2.890 -0.0122  1.2729 -0.1725
  226TIP3    H2  643   1.137   1.590   2.859  1.2653  0.8146  0.8188
  227TIP3   OH2  644   0.262   4.422   2.958  0.1103 -0.3012 -0.3698
  227TIP3    H1  645   0.336   4.410   2.899 -0.2490 -0.5224 -0.7777
  227TIP3    H2  646   0.200   4.354   2.933  0.9890 -2.1132  1.9312
  228TIP3   OH2  647   1.992   5.931   1.052 -0.0176  0.0163  0.2699
  228TIP3    H1  648   2.029   6.004   1.101  1.4312  0.4088 -1.3146
  228TIP3    H2  649   2.068   5.882   1.021 -0.9084 -0.9403 -0.4814
  229TIP3   OH2  650   2.274   2.110   0.219 -0.6329 -0.2765  0.1369
  229TIP3    H1  651   2.353   2.098   0.166 -0.1117  2.5577  0.1262
  229TIP3    H2  652   2.201   2.103   0.157 -0.1355  0.9578 -0.6226
  230TIP3   OH2  653   0.771   6.533   1.638 -0.1283  0.0966 -0.8528
  230TIP3    H1  654   0.844   6.590   1.615 -0.6111  0.0296 -2.7465
  230TIP3    H2  655   0.695   6.593   1.642 -0.0446  0.1442  0.9462
  231TIP3   OH2  656   7.023   2.508   5.511  0.8318  0.0046 -0.7259
  231TIP3    H1  657   7.103   2.557   5.532 -0.7452  1.6370  1.9113
  231TIP3    H2  658   7.041   2.418   5.540  2.6121 -0.3545 -2.6919
  232TIP3   OH2  659   0.734   1.792   5.211 -0.2534 -0.0855 -0.0798
  232TIP3    H1  660   0.804   1.793   5.146 -0.0887  0.7952  0.1074
  232TIP3    H2  661   0.777   1.809   5.294 -0.5284 -0.7530  0.2051
  233TIP3   OH2  662   5.376   4.591   5.036  0.2902  0.5813  0.2595
  233TIP3    H1  663   5.292   4.593   4.990 -0.6276  2.2376  1.8488
  233TIP3    H2  664   5.436   4.547   4.975 -1.2380  1.1129 -1.7585
  234TIP3   OH2  665   4.506   0.502   5.326 -0.2941 -0.3392 -0.0967
  234TIP3    H1  666   4.451   0.575   5.352  1.4425  1.8245 -2.0469
  234TIP3    H2  667   4.592   0.520   5.365  0.0689 -1.5859 -0.2477
  235TIP3   OH2  668   3.121  -0.012   5.508  0.3561  0.2016 -0.3034
  235TIP3    H1  669   3.043  -0.051   5.549  0.2496  1.1074  0.3753
  235TIP3    H2  670   3.088   0.065   5.463  0.6870 -0.0614 -1.0042
  236TIP3   OH2  671   5.445   0.431   0.707 -0.3335 -0.4002  0.3262
  236TIP3    H1  672   5.502   0.421   0.784  0.0441 -0.7282  0.0058
  236TIP3    H2  673   5.390   0.352   0.708 -0.9213  0.0048  0.7417
  237TIP3   OH2  674   0.263   0.005   1.134  0.2580  0.0810 -0.1191
  237TIP3    H1  675   0.264   0.083   1.189 -1.6296  0.5453 -0.7043
  237TIP3    H2  676   0.203  -0.055   1.178 -0.2590 -0.0528 -0.9886
  238TIP3   OH2  677   5.411   2.248   5.710  0.2295  0.1970  0.4258
  238TIP3    H1  678   5.480   2.199   5.755 -1.0959 -1.7906  0.3836
  238TIP3    H2  679   5.371   2.185   5.651 -0.9408  1.5994 -0.3368
  239TIP3   OH2  680   3.483   0.563   3.475 -0.6205  0.2514 -0.2861
  239TIP3    H1  681   3.503   0.643   3.523 -1.2091  0.3800 -0.2505
  239TIP3    H2  682   3.545   0.562   3.402 -0.5268  0.6707 -0.2103
  240TIP3   OH2  683   2.238   6.052   3.087 -0.8126 -0.8673  0.5992
  240TIP3    H1  684   2.215   5.982   3.148  1.2547 -0.2467  2.1877
  240TIP3    H2  685   2.311   6.017   3.036 -0.0113 -0.0317  1.1476
  241TIP3   OH2  686   3.684   6.649   0.200 -0.5377 -0.6216 -0.1496
  241TIP3    H1  687   3.690   6.722   0.139 -0.8519 -0.2796  0.2238
  241TIP3    H2  688   3.601   6.606   0.178 -0.6552 -0.4931  0.0431
  242TIP3   OH2  689   6.788   1.216   0.861 -0.2621  0.0706  0.1775
  242TIP3    H1  690   6.839   1.282   0.814 -0.7895  1.0729  0.9906
  242TIP3    H2  691   6.755   1.261   0.938 -0.9428 -1.0508  0.5626
  243TIP3   OH2  692   6.984   0.766   5.544 -0.5271 -0.0985  0.0131
  243TIP3    H1  693   7.024   0.846   5.576 -0.5010 -0.8744  2.0245
  243TIP3    H2  694   6.909   0.751   5.601 -0.8132 -1.2682 -0.6190
  244TIP3   OH2  695   2.449   6.356   2.415  0.4557  0.3129 -0.6977
  244TIP3    H1  696   2.461   6.270   2.454  0.3503  0.8248  0.5049
  244TIP3    H2  697   2.384   6.342   2.346 -1.9280 -0.0925  1.4509
  245TIP3   OH2  698   2.450   3.695   2.625  0.2169  0.4375 -0.1996
  245TIP3    H1  699   2.419   3.773   2.578 -1.6711 -0.2552 -0.2037
  245TIP3    H2  700   2.512   3.729   2.690 -1.0061  2.0250  0.2056
  246TIP3   OH2  701   4.780   0.877   3.070 -0.4509  0.0541  0.3971
  246TIP3    H1  702   4.861   0.925   3.089 -0.3143  0.5234 -1.1924
  246TIP3    H2  703   4.804   0.785   3.078 -0.5846  0.1657  2.9838
  247TIP3   OH2  704   2.650   0.710   4.994  0.5249  0.2139  0.1426
  247TIP3    H1  705   2.623   0.618   4.999  0.4177  0.2885  1.1993
  247TIP3    H2  706   2.587   0.756   5.049  0.6307  0.9183 -0.3153
  248TIP3   OH2  707   4.691   5.016   3.329 -0.0908  0.5812 -0.7878
  248TIP3    H1  708   4.764   5.029   3.268  1.5794 -1.4800  0.5999
  248TIP3    H2  709   4.645   5.100   3.330  1.6255  1.6339 -2.5356
  249TIP3   OH2  710   1.816   3.339   1.846 -0.9459 -0.4252  0.2752
  249TIP3    H1  711   1.759   3.344   1.922 -1.3430  2.3834 -0.0644
  249TIP3    H2  712   1.850   3.428   1.836  2.7134 -1.7088 -0.1741
  250TIP3   OH2  713   6.426   1.617   0.204 -0.0138 -0.2824  0.3338
  250TIP3    H1  714   6.347   1.572   0.235 -0.3630  0.8403  1.1529
  250TIP3    H2  715   6.476   1.550   0.158  0.1573 -1.8955  2.6981
  251TIP3   OH2  716   4.195   1.964   2.541  0.2553 -0.1560  0.1379
  251TIP3    H1  717   4.246   2.000   2.468 -1.3166 -0.4451 -1.1421
  251TIP3    H2  718   4.167   1.878   2.511 -1.7002  0.3368  0.4390
  252TIP3   OH2  719   3.208   4.841   4.985  0.1355  0.2346  0.1408
  252TIP3    H1  720   3.295   4.879   4.987  0.4758 -0.5530  0.7453
  252TIP3    H2  721   3.149   4.916   4.997  0.7080  0.7895 -0.4497
  253TIP3   OH2  722   4.596   5.855   3.748 -0.0611  0.8432  0.0432
  253TIP3    H1  723   4.553   5.932   3.710  0.8285  1.1495 -0.3882
  253TIP3    H2  724   4.669   5.837   3.688 -1.0277 -1.1690 -0.6106
  254TIP3   OH2  725   0.129   3.530   2.592  0.3799  0.0113 -0.8833
  254TIP3    H1  726   0.101   3.442   2.570  0.1867 -0.5333  1.3302
  254TIP3    H2  727   0.191   3.519   2.664  0.4880  1.6617 -0.6677
  255TIP3   OH2  728   3.023   5.011   5.094 -0.2134  0.0558 -0.1095
  255TIP3    H1  729   2.941   5.046   5.061 -1.1935 -1.4243  0.6161
  255TIP3    H2  730   3.021   5.027   5.189 -0.3781 -1.2767  0.1363
  256TIP3   OH2  731   2.338   2.537   3.169 -0.0742  0.2213 -0.2506
  256TIP3    H1  732   2.385   2.555   3.089  2.1194  0.5372  1.0385
  256TIP3    H2  733   2.277   2.611   3.179  0.3361  0.6790 -1.0939
  257TIP3   OH2  734   4.486   4.866   0.613 -0.5210 -0.2513 -0.2917
  257TIP3    H1  735   4.431   4.886   0.689  1.8729 -0.0192  1.4596
  257TIP3    H2  736   4.514   4.952   0.581 -0.6190 -0.3965 -0.7833
  258TIP3   OH2  737   5.619   2.759   5.144  0.0858  0.6279  0.5724
  258TIP3    H1  738   5.669   2.793   5.070  2.5399 -1.9700  0.9058
  258TIP3    H2  739   5.649   2.811   5.218 -0.3508  1.4094  0.2140
  259TIP3   OH2  740   0.590   3.297   4.956  0.2765 -0.3408  0.2663
  259TIP3    H1  741   0.523   3.293   4.888  1.8867  1.2528 -1.5442
  259TIP3    H2  742   0.665   3.249   4.920  0.2079 -2.0223  2.2030
  260TIP3   OH2  743   2.582   0.126   0.222  0.2870  0.3060  0.3324
  260TIP3    H1  744   2.522   0.200   0.236 -1.1983 -0.5239 -1.2328
  260TIP3    H2  745   2.552   0.086   0.140  3.1752 -0.0263 -0.6784
  261TIP3   OH2  746   0.855   3.471   5.667  0.4464  0.0518 -0.0755
  261TIP3    H1  747   0.912   3.481   5.743 -0.2985  1.1830  0.3658
  261TIP3    H2  748   0.766   3.484   5.701  0.1985  2.5436 -1.3821
  262TIP3   OH2  749   1.336   3.555   2.334  0.9099 -0.5781 -0.2318
  262TIP3    H1  750   1.349   3.600   2.418 -0.0679 -0.0066 -0.3655
  262TIP3    H2  751   1.361   3.620   2.269  1.1681 -0.8423 -0.3970
  263TIP3   OH2  752   0.125   4.646   5.254  0.1162 -0.0146  0.5240
  263TIP3    H1  753   0.093   4.597   5.330 -1.4580  1.2190  0.7004
  263TIP3    H2  754   0.072   4.725   5.253  1.1176  0.6734 -1.0325
  264TIP3   OH2  755   6.660   1.749   4.486  0.1497 -0.0222 -0.6258
  264TIP3    H1  756   6.642   1.661   4.518  1.8341 -0.1635  0.0195
  264TIP3    H2  757   6.635   1.806   4.558  0.2023 -0.0549 -0.5817
  265TIP3   OH2  758   1.531   5.245   0.826  0.5256 -0.4318  0.1370
  265TIP3    H1  759   1.503   5.298   0.899  1.3961  0.2929 -0.0377
  265TIP3    H2  760   1.626   5.234   0.838  0.3033 -2.4575  0.4969
  266TIP3   OH2  761   6.451   6.076   2.260 -0.2104  0.1900  0.8960
  266TIP3    H1  762   6.531   6.025   2.269 -0.1160  0.0524 -0.4353
  266TIP3    H2  763   6.440   6.087   2.165 -1.4486  0.7063  1.0718
  267TIP3   OH2  764   7.016   3.288   4.446  0.5600 -0.1464  0.3319
  267TIP3    H1  765   7.000   3.195   4.429 -2.7496  0.3262  0.1591
  267TIP3    H2  766   7.016   3.329   4.359  0.1471  0.2209  0.5000
  268TIP3   OH2  767   6.119   5.608   5.112 -0.4217  0.1987 -0.1902
  268TIP3    H1  768   6.180   5.681   5.104  0.5273 -0.3347  1.5363
  268TIP3    H2  769   6.054   5.638   5.176 -0.0624 -0.4321  0.4806
  269TIP3   OH2  770   3.475   4.766   0.950  0.2542 -0.2288  0.4495
  269TIP3    H1  771   3.526   4.712   0.890  1.2112 -0.3222  1.3061
  269TIP3    H2  772   3.520   4.757   1.035 -1.0004 -0.0417  1.1657
  270TIP3   OH2  773   4.560   0.963   3.821 -0.0958 -0.3085 -0.3935
  270TIP3    H1  774   4.630   0.972   3.757 -0.2906 -1.0321 -0.7130
  270TIP3    H2  775   4.547   1.052   3.854  1.8614 -0.3590  0.6507
  271TIP3   OH2  776   3.047   1.839   2.877  0.8906  0.0569  0.8023
  271TIP3    H1  777   3.056   1.866   2.786 -0.4842 -0.8813  0.3593
  271TIP3    H2  778   3.106   1.896   2.925 -0.8859  2.9460 -0.2103
  272TIP3   OH2  779   0.293   2.260   0.861  0.1328  0.0258  0.4083
  272TIP3    H1  780   0.204   2.287   0.840  0.5926  2.0157  0.7393
  272TIP3    H2  781   0.348   2.326   0.817  1.3957 -0.5783  1.0306
  273TIP3   OH2  782   4.086   5.059   2.412 -0.1412  0.0511 -0.3420
  273TIP3    H1  783   4.135   4.993   2.462 -1.3143 -0.0203  0.7950
  273TIP3    H2  784   4.087   5.137   2.468  0.1956  0.6171 -1.1258
  274TIP3   OH2  785   6.031   1.263   2.972  0.3863 -0.0596  1.0096
  274TIP3    H1  786   6.039   1.191   2.910 -1.8967 -0.9093  1.6025
  274TIP3    H2  787   5.969   1.323   2.932 -2.3594 -1.3659  2.9744
  275TIP3   OH2  788   2.837   4.754   5.443  0.2026  0.2613 -0.0261
  275TIP3    H1  789   2.920   4.799   5.459 -0.4399  1.1779  0.8456
  275TIP3    H2  790   2.794   4.806   5.376 -0.1418  0.4215  0.3160
  276TIP3   OH2  791   7.190   5.957   1.308 -0.3092 -0.5035 -0.3160
  276TIP3    H1  792   7.210   5.916   1.223  0.5729 -0.0016 -0.3606
  276TIP3    H2  793   7.228   5.897   1.372  0.1431 -0.2545 -0.3419
  277TIP3   OH2  794   2.718   4.036   5.797  0.2011 -0.1891  0.0836
  277TIP3    H1  795   2.704   4.125   5.831 -0.3275 -0.3712  0.3453
  277TIP3    H2  796   2.641   4.020   5.741  0.9538  0.0327 -1.0488
  278TIP3   OH2  797   5.968   0.541   1.995  0.0731 -0.5638  0.6426
  278TIP3    H1  798   5.997   0.633   1.992  3.1121 -1.4370 -0.6580
  278TIP3    H2  799   5.919   0.529   1.914  1.6549 -0.6166 -0.3403
  279TIP3   OH2  800   7.026   3.853   2.815 -0.4524 -0.1405  0.2115
  279TIP3    H1  801   6.945   3.884   2.856 -0.5576 -2.8803  2.4094
  279TIP3    H2  802   6.999   3.821   2.729 -1.5304 -0.1612  0.5444
  280TIP3   OH2  803   0.041   5.493   5.030  0.1247  0.4851  0.3229
  280TIP3    H1  804  -0.017   5.568   5.035  0.1379  0.6607 -1.4082
  280TIP3    H2  805   0.050   5.476   4.936  0.5242 -1.3640  0.6493
  281TIP3   OH2  806   1.847   0.934   1.093 -0.0659 -0.1009  0.5621
  281TIP3    H1  807   1.915   0.879   1.054  1.2202  1.9453 -0.2378
  281TIP3    H2  808   1.765   0.897   1.061  0.8422 -0.1682 -1.8838
  282TIP3   OH2  809   5.812   2.198   5.610 -0.1589 -0.5389 -0.2106
  282TIP3    H1  810   5.777   2.283   5.585 -0.2119 -0.6962 -0.6725
  282TIP3    H2  811   5.757   2.169   5.683 -0.5632 -0.4834 -0.4952
  283TIP3   OH2  812   1.266   4.275   3.171 -0.4414  0.0650 -1.1029
  283TIP3    H1  813   1.172   4.257   3.167 -0.3899 -0.2243 -1.0159
  283TIP3    H2  814   1.286   4.316   3.087 -0.4989 -0.5690 -1.4308
  284TIP3   OH2  815   2.723   0.099   3.898  0.0189  0.0628  0.1510
  284TIP3    H1  816   2.649   0.052   3.935 -0.1556  0.5075  0.3762
  284TIP3    H2  817   2.694   0.190   3.894  1.0750  0.5183  1.6912
  285TIP3   OH2  818   0.336   6.040   4.845  0.2844 -0.3838  0.3718
  285TIP3    H1  819   0.293   5.968   4.892  0.6982 -0.0179  1.3461
  285TIP3    H2  820   0.333   6.114   4.906 -0.6971  0.6363 -0.8522
  286TIP3   OH2  821   2.128   3.164   5.435 -0.0811  0.0427  0.1504
  286TIP3    H1  822   2.099   3.087   5.385 -0.8737  0.4573 -0.0495
  286TIP3    H2  823   2.196   3.204   5.381 -0.5827  0.2060 -0.3689
  287TIP3   OH2  824   0.503   0.999   2.712 -0.1894 -0.4005 -0.2298
  287TIP3    H1  825   0.410   1.001   2.734 -0.2587 -0.7701 -0.4886
  287TIP3    H2  826   0.518   0.911   2.677  0.3462 -0.4793  0.1977
  288TIP3   OH2  827   6.694   1.113   1.652  0.0345  0.3946  0.0910
  288TIP3    H1  828   6.749   1.180   1.612  0.5256 -0.7869 -1.3145
  288TIP3    H2  829   6.612   1.116   1.602 -0.3449  0.6446  0.7165
  289TIP3   OH2  830   3.874   0.859   5.341 -0.6297 -0.0460 -0.1367
  289TIP3    H1  831   3.927   0.887   5.267 -1.4776 -1.3516 -1.2822
  289TIP3    H2  832   3.823   0.785   5.308 -1.8107 -0.0000  1.4487
  290TIP3   OH2  833   2.601   0.625   3.622 -0.2230 -0.7287 -0.4012
  290TIP3    H1  834   2.588   0.532   3.603 -0.2511 -0.6869 -0.5919
  290TIP3    H2  835   2.648   0.627   3.705  0.3663 -0.9322 -0.7245
  291TIP3   OH2  836   1.910   5.427   5.535 -0.1019 -0.1711  0.1072
  291TIP3    H1  837   1.880   5.404   5.447  0.5384 -1.6667  0.2387
  291TIP3    H2  838   1.869   5.361   5.592 -1.1540  1.2524  1.0624
  292TIP3   OH2  839   4.161   0.434   5.054  0.2421 -0.6057 -0.5140
  292TIP3    H1  840   4.154   0.349   5.097 -1.5719 -1.0834 -1.6150
  292TIP3    H2  841   4.192   0.413   4.966  1.0042  0.0202 -0.3971
  293TIP3   OH2  842   6.736   2.827   2.722  0.3346 -0.2962  0.5691
  293TIP3    H1  843   6.647   2.793   2.719 -0.1080  0.4917  2.9801
  293TIP3    H2  844   6.727   2.917   2.754  1.8684  0.4877 -1.0029
  294TIP3   OH2  845   2.950   0.432   5.169 -0.0574 -0.0808 -0.1710
  294TIP3    H1  846   2.923   0.382   5.092  1.3329  0.5792 -1.1325
  294TIP3    H2  847   3.019   0.380   5.209  0.5841  0.4750 -0.5169
  295TIP3   OH2  848   1.918   3.563   1.648 -0.3854 -0.2667 -0.0182
  295TIP3    H1  849   1.893   3.592   1.736 -0.9491  0.7009 -0.4793
  295TIP3    H2  850   1.971   3.485   1.662  0.7024  0.6725  1.2536
  296TIP3   OH2  851   5.620   1.229   4.636  0.5030  0.6648  0.5096
  296TIP3    H1  852   5.607   1.243   4.730 -2.7252  0.4333  0.2214
  296TIP3    H2  853   5.659   1.311   4.605 -1.0017  1.8935  1.6743
  297TIP3   OH2  854   2.852   3.352   0.811 -0.0889 -0.0577 -0.4165
  297TIP3    H1  855   2.881   3.391   0.893 -1.0695 -0.1860  0.0011
  297TIP3    H2  856   2.884   3.262   0.815  0.7204  0.2049 -0.6341
  298TIP3   OH2  857   3.564   0.327   2.176  0.3297  0.2264  0.5097
  298TIP3    H1  858   3.491   0.266   2.164 -1.0321  1.2604  2.8261
  298TIP3    H2  859   3.622   0.284   2.239  0.8016  0.1769  0.0499
  299TIP3   OH2  860   6.737   2.532   0.487  0.4490 -0.3014  0.3561
  299TIP3    H1  861   6.686   2.453   0.476 -0.9528  0.3911  1.6301
  299TIP3    H2  862   6.767   2.554   0.398 -0.3493 -1.4426 -0.2109
  300TIP3   OH2  863   2.928   6.080   4.174  0.2052  0.2770 -0.3543
  300TIP3    H1  864   3.014   6.101   4.137  1.2050  1.3444  2.2793
  300TIP3    H2  865   2.879   6.162   4.167 -0.0495  0.1131 -0.4846
  301TIP3   OH2  866   0.652   4.691   2.771  0.3526  0.3896 -0.4792
  301TIP3    H1  867   0.724   4.660   2.716  0.5191  1.1997 -0.7393
  301TIP3    H2  868   0.684   4.683   2.861  0.6679  0.4927 -0.5819
  302TIP3   OH2  869   0.615   4.392   3.163 -0.4673 -0.0810  0.2766
  302TIP3    H1  870   0.669   4.339   3.222  0.7871  2.3880  1.4886
  302TIP3    H2  871   0.542   4.421   3.218 -1.1660 -0.5293 -0.3911
  303TIP3   OH2  872   1.067   0.358   1.907 -0.2108  0.7859 -0.1469
  303TIP3    H1  873   1.112   0.376   1.824 -1.1530 -0.0355 -0.8683
  303TIP3    H2  874   1.070   0.262   1.915  1.5458  0.9476  1.7539
  304TIP3   OH2  875   4.957   5.466   2.998  0.7498 -0.0439  0.3727
  304TIP3    H1  876   4.867   5.498   2.996  0.2188 -1.4517 -1.5453
  304TIP3    H2  877   5.005   5.533   3.047 -1.1931  1.0784  0.8675
  305TIP3   OH2  878   7.004   0.715   3.586  0.1567 -0.5482 -0.1720
  305TIP3    H1  879   6.919   0.670   3.582 -0.0809 -0.1905  0.6047
  305TIP3    H2  880   7.030   0.726   3.495 -0.1776 -1.5135 -0.3905
  306TIP3   OH2  881   2.794   0.060   0.391  0.0246  0.1546  0.0822
  306TIP3    H1  882   2.714   0.071   0.339 -1.1129 -0.8757  1.5274
  306TIP3    H2  883   2.864   0.056   0.326 -0.9701  1.8371 -1.1907
  307TIP3   OH2  884   5.353   3.063   2.253 -0.0288  0.0213  0.3614
  307TIP3    H1  885   5.279   3.098   2.203 -2.2530 -2.0981  1.9310
  307TIP3    H2  886   5.360   3.119   2.330 -0.0857  0.1377  0.2818
  308TIP3   OH2  887   1.192   2.943   2.059  0.4501 -0.1569 -0.0687
  308TIP3    H1  888   1.161   2.971   2.146 -1.6024 -0.3762 -0.6900
  308TIP3    H2  889   1.287   2.953   2.064  0.1677  3.3622  1.0111
  309TIP3   OH2  890   3.475   2.689   0.499 -0.2865  0.3473  0.0618
  309TIP3    H1  891   3.507   2.759   0.442  0.6338 -0.0425  0.0879
  309TIP3    H2  892   3.407   2.730   0.552 -0.5428  0.9326 -0.7138
  310TIP3   OH2  893   2.261   4.548   0.322 -0.5818 -0.3922  0.1366
  310TIP3    H1  894   2.339   4.597   0.297 -0.5406 -0.5798 -0.1074
  310TIP3    H2  895   2.293   4.460   0.342 -0.8605 -0.7540 -0.9529
  311TIP3   OH2  896   5.432   3.625   5.624 -0.1043 -0.1684 -0.3164
  311TIP3    H1  897   5.359   3.564   5.621  0.0873 -0.3546 -1.5979
  311TIP3    H2  898   5.436   3.653   5.716 -0.7797 -1.3482  0.0927
  312TIP3   OH2  899   2.493   5.814   0.360 -0.3077  0.1936  0.0483
  312TIP3    H1  900   2.503   5.837   0.453  1.0957  1.5376 -0.3775
  312TIP3    H2  901   2.576   5.772   0.337  0.6260  2.5464 -1.2589
  313TIP3   OH2  902   1.488   4.812   1.311  0.6005 -0.2103 -0.2532
  313TIP3    H1  903   1.565   4.860   1.342  0.4363 -0.6136  0.7846
  313TIP3    H2  904   1.522   4.730   1.277  0.6409 -0.3513  0.1264
  314TIP3   OH2  905   5.935   5.516   5.573 -0.2689 -0.7939  0.4790
  314TIP3    H1  906   5.971   5.514   5.662 -0.1694 -0.2449  0.4572
  314TIP3    H2  907   5.878   5.439   5.568 -1.0920 -0.2578  1.3579
  315TIP3   OH2  908   1.138   0.796   5.819  0.2627  0.3226  0.0747
  315TIP3    H1  909   1.099   0.880   5.841  0.1401  0.8900 -2.0644
  315TIP3    H2  910   1.219   0.819   5.773  1.6530 -0.7986  1.8320
  316TIP3   OH2  911   5.426   3.191   2.946  0.1397 -0.0965 -0.2706
  316TIP3    H1  912   5.438   3.129   3.018 -1.7821  1.9997  1.9915
  316TIP3    H2  913   5.358   3.151   2.892 -0.4931 -0.3838  0.7051
  317TIP3   OH2  914   0.198   4.559   4.822 -0.4411  0.5170 -0.5132
  317TIP3    H1  915   0.162   4.586   4.737 -1.1761 -0.9450 -0.6972
  317TIP3    H2  916   0.271   4.502   4.800  0.1249  1.1020 -0.1520
  318TIP3   OH2  917   5.955   1.794   1.017  0.0638  0.2232  0.5545
  318TIP3    H1  918   5.957   1.817   1.110  0.7260  0.8195  0.4022
  318TIP3    H2  919   5.878   1.838   0.983 -0.1933 -0.0153  0.8207
  319TIP3   OH2  920   0.541   5.351   3.142 -0.4699 -0.3277 -0.0193
  319TIP3    H1  921   0.488   5.361   3.222  0.2567 -1.2208  0.5909
  319TIP3    H2  922   0.631   5.369   3.171 -0.2769 -0.0517 -0.7736
  320TIP3   OH2  923   3.489   1.537   2.710 -0.1075  0.2493  0.4070
  320TIP3    H1  924   3.531   1.481   2.776  1.2577  0.7760  0.0258
  320TIP3    H2  925   3.406   1.564   2.750  0.1766 -0.3460  1.4408
  321TIP3   OH2  926   4.812   0.607   2.548 -0.1921 -0.3535 -0.1354
  321TIP3    H1  927   4.817   0.520   2.589 -0.3315 -0.2654  0.0710
  321TIP3    H2  928   4.753   0.595   2.474  1.8871 -1.0813 -1.7776
  322TIP3   OH2  929   6.367   5.908   1.465 -0.2248  0.5331  0.6221
  322TIP3    H1  930   6.440   5.847   1.474 -0.1536  0.3041 -1.2705
  322TIP3    H2  931   6.393   5.984   1.517  2.2359  1.2327 -1.4349
  323TIP3   OH2  932   2.668   0.035   0.918  0.3856 -0.0172  0.3810
  323TIP3    H1  933   2.673   0.058   0.826 -0.0394  1.0893  0.6189
  323TIP3    H2  934   2.668   0.119   0.964  0.0308 -0.5340  1.3585
  324TIP3   OH2  935   0.031   0.040   4.245  0.0236  0.0148  0.3189
  324TIP3    H1  936   0.065  -0.037   4.292  1.6399 -0.3535 -1.3642
  324TIP3    H2  937  -0.064   0.026   4.244  0.2385 -1.6999  0.5103
  325TIP3   OH2  938   1.563   1.929   1.191  0.0417 -0.4135 -0.0348
  325TIP3    H1  939   1.543   1.836   1.180 -1.8899  0.1755 -2.5801
  325TIP3    H2  940   1.478   1.969   1.210  0.0556  1.2613 -2.9613
  326TIP3   OH2  941   1.671   5.333   2.590  0.1415  0.3711  0.5071
  326TIP3    H1  942   1.680   5.256   2.534  0.6306  1.0394 -0.3594
  326TIP3    H2  943   1.740   5.324   2.655 -0.6598 -0.5963  1.2578
  327TIP3   OH2  944   5.261   1.693   1.780 -0.1189  0.6886 -0.4896
  327TIP3    H1  945   5.349   1.706   1.746 -0.0478 -1.0995 -1.1121
  327TIP3    H2  946   5.254   1.598   1.795 -1.8112  0.8239 -0.1127
  328TIP3   OH2  947   0.556   1.910   1.796 -1.2351  0.5179 -0.3474
  328TIP3    H1  948   0.649   1.929   1.784 -1.3554  1.4686  0.1191
  328TIP3    H2  949   0.530   1.965   1.870 -1.8929 -0.6508  0.3044
  329TIP3   OH2  950   4.312   2.344   5.471  0.3668  0.6782  0.3129
  329TIP3    H1  951   4.346   2.263   5.435  0.3905  1.2301 -0.9465
  329TIP3    H2  952   4.390   2.396   5.491  0.3461  1.6144 -1.8080
  330TIP3   OH2  953   3.291   1.469   4.621 -0.6993 -0.0591 -0.7839
  330TIP3    H1  954   3.337   1.413   4.683 -0.0157 -0.6305 -1.7914
  330TIP3    H2  955   3.332   1.555   4.632 -2.4953  0.6046  1.5588
  331TIP3   OH2  956   4.625   1.737   1.964 -0.8275 -1.0512 -0.3278
  331TIP3    H1  957   4.600   1.825   1.991 -2.4446 -1.5217 -0.1641
  331TIP3    H2  958   4.669   1.749   1.880 -2.8304 -0.2173 -1.3161
  332TIP3   OH2  959   5.708   4.038   2.469  0.1733 -0.1816 -0.1496
  332TIP3    H1  960   5.653   4.055   2.393  0.4138 -2.5270 -0.9165
  332TIP3    H2  961   5.683   4.106   2.532  0.1029  1.9450 -2.3420
  333TIP3   OH2  962   2.144   0.844   5.810 -0.2151 -0.1517  0.2807
  333TIP3    H1  963   2.208   0.786   5.769 -0.2163  0.4636 -0.6373
  333TIP3    H2  964   2.059   0.812   5.778 -0.2453  0.0823  0.1229
  334TIP3   OH2  965   1.120   4.978   5.816  0.4991  0.0809 -0.4844
  334TIP3    H1  966   1.060   4.948   5.747 -1.0446  0.5031  0.6099
  334TIP3    H2  967   1.205   4.984   5.773 -0.6583  1.7269 -2.7656
  335TIP3   OH2  968   5.949   3.686   3.341  0.3512  0.4531  0.8559
  335TIP3    H1  969   5.913   3.671   3.428 -1.9208  0.2834 -0.0384
  335TIP3    H2  970   5.895   3.756   3.304 -1.2400 -1.9203 -1.7158
  336TIP3   OH2  971   3.913   4.906   2.000  0.1844  0.2834 -0.5117
  336TIP3    H1  972   3.992   4.915   2.054  1.3154 -1.0484 -1.8442
  336TIP3    H2  973   3.946   4.879   1.914 -1.6916  0.3919 -1.3155
  337TIP3   OH2  974   4.977   2.494   4.487  0.1411  0.4914  0.0865
  337TIP3    H1  975   4.902   2.436   4.478 -0.5237  1.1045  1.4559
  337TIP3    H2  976   5.040   2.462   4.423 -1.4148  0.1959 -1.3419
  338TIP3   OH2  977   5.474   2.756   1.885  0.6136  0.2611 -0.3501
  338TIP3    H1  978   5.475   2.662   1.905 -0.8206 -0.0029 -1.4056
  338TIP3    H2  979   5.510   2.762   1.797 -2.7361  0.2096 -1.8730
  339TIP3   OH2  980   6.427   3.775   0.166 -0.1237 -0.5646  0.6510
  339TIP3    H1  981   6.353   3.726   0.130 -0.6418 -0.9130  2.1405
  339TIP3    H2  982   6.487   3.708   0.199  0.5653 -0.2652  0.0423
  340TIP3   OH2  983   2.386   1.630   1.245 -0.3577  0.1874 -0.0884
  340TIP3    H1  984   2.370   1.701   1.184 -1.9587  0.3523  0.4776
  340TIP3    H2  985   2.361   1.551   1.197  0.9019  0.0370 -0.5289
  341TIP3   OH2  986   5.896   3.567   4.432 -0.7212  0.1515 -0.0900
  341TIP3    H1  987   5.923   3.502   4.367  0.7783  1.1398 -0.5190
  341TIP3    H2  988   5.804   3.584   4.413 -1.2663 -2.1220  0.3033
  342TIP3   OH2  989   0.893   6.475   5.227  0.5245 -0.1985  0.0773
  342TIP3    H1  990   0.958   6.407   5.243 -1.5308 -1.8588  2.0198
  342TIP3    H2  991   0.857   6.454   5.140 -1.4564 -2.9628  1.4222
  343TIP3   OH2  992   5.054   1.898   0.894 -0.0087  0.7461  0.1622
  343TIP3    H1  993   5.015   1.813   0.872  0.1635  0.7472 -0.1502
  343TIP3    H2  994   5.101   1.882   0.976  0.0262  0.5397  0.1022
  344TIP3   OH2  995   7.004   5.177   3.168  0.3563  0.4084  0.2687
  344TIP3    H1  996   7.046   5.211   3.088 -0.0843 -2.9725 -1.6038
  344TIP3    H2  997   7.068   5.193   3.237  1.4671  2.0438 -1.0512
  345TIP3   OH2  998   1.675   1.597   1.983 -0.5270 -0.1487 -0.5038
  345TIP3    H1  999   1.644   1.542   2.054 -1.1771 -0.1638 -0.7905
  345TIP3    H2 1000   1.761   1.629   2.012 -0.1819 -1.2223 -0.2861
  346TIP3   OH2 1001   1.215   6.462   3.815 -0.2361 -0.1932 -0.3328
  346TIP3    H1 1002   1.197   6.526   3.746 -1.3553  0.5161  0.5753
  346TIP3    H2 1003   1.130   6.446   3.856  0.4484 -0.2982  1.1294
  347TIP3   OH2 1004   3.513   2.527   2.838  0.2645 -0.3382  0.0703
  347TIP3    H1 1005   3.456   2.582   2.786  1.0550 -1.0542 -1.6101
  347TIP3    H2 1006   3.562   2.475   2.775  1.1561 -1.3667  1.5254
  348TIP3   OH2 1007   0.632   4.286   5.542  0.2365  0.3804 -0.1383
  348TIP3    H1 1008   0.654   4.361   5.597 -0.9458  0.2328  0.5670
  348TIP3    H2 1009   0.699   4.287   5.473  0.5362  1.7838  0.1348
  349TIP3   OH2 1010   1.983   2.881   5.017  0.1577  0.3503  0.3755
  349TIP3    H1 1011   2.011   2.829   5.091  0.6138  1.1836  0.8045
  349TIP3    H2 1012   1.971   2.969   5.052 -1.6750  0.3354 -0.0851
  350TIP3   OH2 1013   0.577   4.953   5.752 -0.1312  0.3310 -0.1239
  350TIP3    H1 1014   0.541   4.981   5.667  0.2830  0.8858 -0.1209
  350TIP3    H2 1015   0.506   4.904   5.793  0.0366 -0.9215 -1.2642
  351TIP3   OH2 1016   7.019   1.932   2.854 -0.4842  0.0336  0.1736
  351TIP3    H1 1017   6.969   2.013   2.857  1.5892  1.4102 -0.1786
  351TIP3    H2 1018   7.047   1.924   2.763  1.1790  0.1711  0.6277
  352TIP3   OH2 1019   1.766   3.748   2.431  0.5308  0.2971  0.1121
  352TIP3    H1 1020   1.701   3.819   2.431 -0.1528 -0.3118 -0.9060
  352TIP3    H2 1021   1.841   3.785   2.384  0.4257  0.5603  0.1471
  353TIP3   OH2 1022   5.054   1.438   4.944 -0.0674  1.1055 -0.2234
  353TIP3    H1 1023   5.078   1.348   4.922  1.0793  1.4382 -0.4044
  353TIP3    H2 1024   5.073   1.445   5.038 -0.5066  1.0591 -0.1282
  354TIP3   OH2 1025   0.384   0.289   1.534 -0.0806 -0.0399  0.5423
  354TIP3    H1 1026   0.447   0.346   1.578 -0.6087  1.8210 -0.9778
  354TIP3    H2 1027   0.428   0.261   1.454 -0.3077 -0.7143  0.6494
  355TIP3   OH2 1028   5.136   4.049   0.447 -0.0562 -0.8321 -0.1164
  355TIP3    H1 1029   5.121   4.029   0.540  0.1401 -0.0821  0.0839
  355TIP3    H2 1030   5.062   4.008   0.401  0.8061 -2.8096  0.1603
  356TIP3   OH2 1031   3.670   5.023   1.999  0.3866  0.4505  0.8071
  356TIP3    H1 1032   3.693   5.109   2.032  2.3040  0.4772 -0.4593
  356TIP3    H2 1033   3.747   4.968   2.018  0.3244 -0.2688 -0.8186
  357TIP3   OH2 1034   3.713   4.868   3.995  0.1020  0.1069 -0.2287
  357TIP3    H1 1035   3.628   4.908   4.013 -0.0311 -0.6598  0.9228
  357TIP3    H2 1036   3.749   4.920   3.923 -1.4688  0.2465 -0.9541
  358TIP3   OH2 1037   4.319   0.465   4.794 -0.3042 -0.1046 -0.0258
  358TIP3    H1 1038   4.304   0.375   4.766 -1.3225  1.1175 -4.0590
  358TIP3    H2 1039   4.412   0.481   4.777 -0.0790 -0.4360  0.8787
  359TIP3   OH2 1040   6.745   2.290   4.081  0.1586  0.2926 -0.5060
  359TIP3    H1 1041   6.724   2.380   4.056 -0.2901  1.3566  3.1174
  359TIP3    H2 1042   6.661   2.251   4.103  0.6325  0.0621  0.9696
  360TIP3   OH2 1043   1.955   0.418   2.472  0.3153  0.5547 -0.3398
  360TIP3    H1 1044   2.012   0.491   2.496 -0.8024  1.0818  0.8714
  360TIP3    H2 1045   1.887   0.458   2.418 -0.1914  0.3836  0.1655
  361TIP3   OH2 1046   2.007   0.896   2.637  0.3091  0.4184 -0.1858
  361TIP3    H1 1047   2.062   0.973   2.629  0.4854  0.2575 -0.5401
  361TIP3    H2 1048   1.931   0.915   2.582  0.7025  0.0367 -0.8833
  362TIP3   OH2 1049   1.623   5.624   1.134  0.0090 -0.1700  0.1863
  362TIP3    H1 1050   1.691   5.671   1.085 -1.5539  1.0284 -0.9647
  362TIP3    H2 1051   1.604   5.681   1.208  0.7016 -0.8271  0.8793
  363TIP3   OH2 1052   4.176   6.420   3.235 -0.1250  0.8419  0.1377
  363TIP3    H1 1053   4.152   6.487   3.170  3.9473 -0.8804 -3.6180
  363TIP3    H2 1054   4.221   6.469   3.304  0.1460  2.2832 -1.0076
  364TIP3   OH2 1055   0.070   3.410   4.895 -0.3267 -0.2797 -0.2581
  364TIP3    H1 1056   0.150   3.460   4.878 -1.7580  2.3652  0.2414
  364TIP3    H2 1057   0.034   3.393   4.808  1.0756 -2.1424 -0.5309
  365TIP3   OH2 1058   5.557   3.428   2.905  0.2702 -0.6142 -0.1012
  365TIP3    H1 1059   5.502   3.353   2.925 -0.4948 -0.1944 -0.5746
  365TIP3    H2 1060   5.514   3.471   2.831 -0.3674  1.3588  1.3300
  366TIP3   OH2 1061   0.730   2.911   1.424  0.0853 -0.2152 -0.4927
  366TIP3    H1 1062   0.679   2.980   1.380  0.4739 -0.5760 -1.5429
  366TIP3    H2 1063   0.672   2.835   1.424 -0.7475  0.3366  1.5900
  367TIP3   OH2 1064   6.053   3.510   5.082 -0.1923  0.1230  0.2150
  367TIP3    H1 1065   6.021   3.440   5.139  0.0574  0.0105  0.2173
  367TIP3    H2 1066   6.027   3.591   5.126 -0.4443  0.0332  0.2333
  368TIP3   OH2 1067   5.221   1.912   3.209 -0.0488 -0.4734  0.5976
  368TIP3    H1 1068   5.208   1.817   3.208  2.9408 -0.9895 -1.6270
  368TIP3    H2 1069   5.233   1.934   3.302  0.5941 -2.5018  1.0386
  369TIP3   OH2 1070   0.336   2.609   3.023 -0.0071  0.0715 -0.1774
  369TIP3    H1 1071   0.341   2.547   2.950  1.7925 -0.5722  0.4546
  369TIP3    H2 1072   0.393   2.682   2.997  1.2290 -0.4911  0.8477
  370TIP3   OH2 1073   5.019   4.616   2.346 -0.6668 -0.0164  0.2206
  370TIP3    H1 1074   5.047   4.661   2.266 -0.4345 -0.0026  0.3076
  370TIP3    H2 1075   4.975   4.537   2.315 -1.4318  0.4654  0.0545
  371TIP3   OH2 1076   6.113   1.559   3.724 -0.2084  0.0774  0.1999
  371TIP3    H1 1077   6.199   1.520   3.711 -0.5637 -1.4166  1.9707
  371TIP3    H2 1078   6.054   1.503   3.675 -0.1002  1.9944 -2.3478
  372TIP3   OH2 1079   6.588   5.708   2.323  0.1449 -0.5572 -0.1444
  372TIP3    H1 1080   6.639   5.687   2.401  0.1759 -0.9285 -0.2655
  372TIP3    H2 1081   6.509   5.654   2.331 -0.7286  0.7559  0.5606
  373TIP3   OH2 1082   2.520   1.487   0.834  0.7255 -0.9525  0.0506
  373TIP3    H1 1083   2.578   1.544   0.885 -0.4455 -0.4793  0.8860
  373TIP3    H2 1084   2.562   1.482   0.748  2.7156 -1.7551  1.0174
  374TIP3   OH2 1085   1.569   5.609   0.638  0.4509 -0.2604  0.4746
  374TIP3    H1 1086   1.526   5.648   0.714 -0.9864  1.1505 -0.9783
  374TIP3    H2 1087   1.657   5.646   0.639  0.0020  0.8606  0.7063
  375TIP3   OH2 1088   1.956   0.398   0.972  0.4563 -0.0759  0.0780
  375TIP3    H1 1089   1.990   0.417   0.884 -0.3902  1.4231  0.0488
  375TIP3    H2 1090   1.864   0.373   0.957  0.2488  0.3969  0.5509
  376TIP3   OH2 1091   0.133   1.607   0.851 -0.4685  0.4453  0.5442
  376TIP3    H1 1092   0.183   1.592   0.771  1.1227  1.1080  1.3593
  376TIP3    H2 1093   0.190   1.662   0.904 -1.4319 -0.0858  2.1933
  377TIP3   OH2 1094   4.804   3.618   4.747  0.3035 -0.5344  0.2848
  377TIP3    H1 1095   4.758   3.702   4.754 -0.1233 -0.8726  2.1105
  377TIP3    H2 1096   4.897   3.642   4.738  0.1880  0.1452  0.8342
  378TIP3   OH2 1097   4.294   5.403   4.196 -0.0633 -0.5046 -0.0294
  378TIP3    H1 1098   4.338   5.318   4.206  1.2287  0.0045 -1.0525
  378TIP3    H2 1099   4.348   5.464   4.246  0.0598  0.0253 -0.7898
  379TIP3   OH2 1100   3.127   3.776   5.850  0.2708  0.2899 -0.1577
  379TIP3    H1 1101   3.079   3.831   5.789  0.9145  0.5529 -0.4419
  379TIP3    H2 1102   3.099   3.805   5.936  0.1010  0.6071 -0.3176
  380TIP3   OH2 1103   0.178   5.286   4.865 -0.2725  0.0588  0.3486
  380TIP3    H1 1104   0.261   5.239   4.874  0.5170  0.6520 -2.7225
  380TIP3    H2 1105   0.112   5.223   4.894  0.9834 -1.9944 -0.9452
  381TIP3   OH2 1106   4.848   3.150   5.628 -0.0521  0.3973 -0.5535
  381TIP3    H1 1107   4.889   3.224   5.585 -0.7356  0.8739 -0.3966
  381TIP3    H2 1108   4.910   3.124   5.696  0.7037  0.0898 -1.3442
  382TIP3   OH2 1109   6.567   6.716   5.831 -0.6353 -0.2350 -0.0778
  382TIP3    H1 1110   6.479   6.685   5.851 -1.4430  2.3159  0.7535
  382TIP3    H2 1111   6.613   6.715   5.915 -0.4548  0.1141 -0.1669
  383TIP3   OH2 1112   1.287   5.791   0.225 -0.0587  0.3082 -0.8412
  383TIP3    H1 1113   1.365   5.735   0.215 -0.0313  0.4276 -1.3562
  383TIP3    H2 1114   1.310   5.872   0.178  0.3349  1.2095  0.8171
  384TIP3   OH2 1115   1.228   5.255   5.556  0.1501 -0.4183 -0.4546
  384TIP3    H1 1116   1.171   5.324   5.590  1.5933  0.3664  0.4930
  384TIP3    H2 1117   1.172   5.203   5.498 -0.8619  1.8587 -1.6351
  385TIP3   OH2 1118   6.920   2.184   1.243  0.6315  0.3705 -0.2460
  385TIP3    H1 1119   6.833   2.216   1.218 -0.2864 -0.0719  2.1413
  385TIP3    H2 1120   6.964   2.260   1.280  0.1749 -0.0234  1.1545
  386TIP3   OH2 1121   4.599   4.311   2.862 -0.3477  0.8111  0.1386
  386TIP3    H1 1122   4.552   4.313   2.779  0.6048  1.7153 -0.4059
  386TIP3    H2 1123   4.671   4.249   2.849 -0.9242  0.0046  0.7161
  387TIP3   OH2 1124   1.594   0.125   2.481  0.8673 -0.1789 -0.0326
  387TIP3    H1 1125   1.536   0.195   2.452  1.2229  0.4161  0.6611
  387TIP3    H2 1126   1.636   0.093   2.400  1.0816  0.7581 -0.2997
  388TIP3   OH2 1127   7.019   3.777   5.363 -0.5682 -0.4938  0.3313
  388TIP3    H1 1128   7.092   3.832   5.333 -1.5124  1.0522  0.7517
  388TIP3    H2 1129   7.029   3.773   5.458 -0.6017 -0.9174  0.3189
  389TIP3   OH2 1130   1.978   5.385   4.028 -0.1061  0.2316  0.1709
  389TIP3    H1 1131   1.912   5.419   4.088  0.7962  1.8901  0.2870
  389TIP3    H2 1132   1.933   5.377   3.944 -0.9922 -0.7436  0.7067
  390TIP3   OH2 1133   6.712   3.375   1.640 -0.1716 -0.2014  0.1244
  390TIP3    H1 1134   6.633   3.421   1.609 -0.4742  0.6620  1.9961
  390TIP3    H2 1135   6.678   3.297   1.683 -0.0189  0.0931  0.7956
  391TIP3   OH2 1136   0.296   5.536   4.949  0.0331 -0.3893  0.8126
  391TIP3    H1 1137   0.260   5.456   4.910  0.0264  0.2143 -0.4426
  391TIP3    H2 1138   0.225   5.570   5.004 -0.8068 -0.0350 -0.4390
  392TIP3   OH2 1139   4.145   0.764   1.816 -0.3077  0.1851 -0.4269
  392TIP3    H1 1140   4.178   0.728   1.734 -1.2875 -2.3546  0.1975
  392TIP3    H2 1141   4.196   0.720   1.884 -2.0487 -0.6222  0.4134
  393TIP3   OH2 1142   1.967   5.859   4.056  0.3453  0.5843 -0.2294
  393TIP3    H1 1143   1.982   5.788   3.993 -1.0614 -0.1364  0.2054
  393TIP3    H2 1144   1.875   5.883   4.044  0.0338  0.4176  1.5495
  394TIP3   OH2 1145   4.456   1.474   0.057 -0.7708 -0.1943  0.5661
  394TIP3    H1 1146   4.441   1.407  -0.010 -1.0918  1.2824 -0.8906
  394TIP3    H2 1147   4.369   1.499   0.086 -0.9373  2.4686 -1.8937
  395TIP3   OH2 1148   5.161   0.676   3.728 -0.2007 -0.6363  0.4935
  395TIP3    H1 1149   5.228   0.611   3.749 -0.1676 -1.4152 -1.7740
  395TIP3    H2 1150   5.078   0.629   3.731 -0.4829 -0.1170  1.4352
  396TIP3   OH2 1151   0.645   2.668   2.499  0.1001  0.6212  0.5197
  396TIP3    H1 1152   0.621   2.760   2.486  0.2088  0.7857  1.4004
  396TIP3    H2 1153   0.602   2.621   2.427 -0.0789  1.3424  0.1522
  397TIP3   OH2 1154   4.872   1.523   4.285  0.0594  0.2841  0.0243
  397TIP3    H1 1155   4.869   1.471   4.204 -0.9346 -0.5645  0.5790
  397TIP3    H2 1156   4.906   1.463   4.351  0.1043  0.7337  0.4188
  398TIP3   OH2 1157   1.077   6.550   1.254  0.3428 -0.3939  0.2682
  398TIP3    H1 1158   1.073   6.457   1.231 -1.1661 -0.7219  1.7114
  398TIP3    H2 1159   1.160   6.580   1.217  0.5164 -2.1213 -0.8730
  399TIP3   OH2 1160   5.278   1.784   2.036 -0.2482 -0.3296  0.0006
  399TIP3    H1 1161   5.265   1.787   1.942 -0.8636 -3.7008 -0.1666
  399TIP3    H2 1162   5.190   1.795   2.073 -0.1607 -0.0475  0.1284
  400TIP3   OH2 1163   6.559   0.027   3.397 -0.0608  0.1361  0.1118
  400TIP3    H1 1164   6.569   0.097   3.332  0.0998  0.6328  0.6612
  400TIP3    H2 1165   6.618   0.052   3.468 -0.6144 -0.1350  0.6770
  401TIP3   OH2 1166   0.974   0.119   1.244  0.3944  0.0435 -0.6286
  401TIP3    H1 1167   0.965   0.210   1.274  1.3524  1.0144 -3.0527
  401TIP3    H2 1168   0.966   0.125   1.149  0.6305 -2.4257 -0.8457
  402TIP3   OH2 1169   2.866   2.513   0.469 -0.2485  0.6070 -0.2695
  402TIP3    H1 1170   2.959   2.525   0.449 -0.2274  0.2728 -0.3893
  402TIP3    H2 1171   2.820   2.547   0.392 -0.1335 -1.7742 -1.4824
  403TIP3   OH2 1172   0.855   5.809   4.930 -0.2829  0.6951 -0.5185
  403TIP3    H1 1173   0.859   5.713   4.930 -0.3567  0.6783  0.7787
  403TIP3    H2 1174   0.897   5.834   4.848  1.3328 -0.3981 -0.0790
  404TIP3   OH2 1175   0.403   1.993   1.058  0.0653 -0.3859  0.6170
  404TIP3    H1 1176   0.392   2.064   1.121  1.1791 -0.5614  1.0321
  404TIP3    H2 1177   0.488   2.009   1.018 -0.0534 -1.0093  0.0916
  405TIP3   OH2 1178   4.326   2.533   2.391  0.0914  0.6484 -0.1048
  405TIP3    H1 1179   4.301   2.441   2.383 -0.4312  0.7594  0.2181
  405TIP3    H2 1180   4.320   2.567   2.302 -0.7319  0.6265 -0.0665
  406TIP3   OH2 1181   3.195   3.322   3.460  0.2025 -0.1294  0.0718
  406TIP3    H1 1182   3.172   3.235   3.494  1.4311 -0.8811 -0.9061
  406TIP3    H2 1183   3.113   3.370   3.459 -0.6164 -1.4815  0.0978
  407TIP3   OH2 1184   2.700   4.293   1.952  0.2265  0.5111  0.2507
  407TIP3    H1 1185   2.766   4.287   2.021 -0.9834 -2.3216  1.3255
  407TIP3    H2 1186   2.640   4.362   1.981 -0.0333 -0.3610  1.8953
  408TIP3   OH2 1187   0.650   5.963   1.073  0.4543  0.3577 -0.5133
  408TIP3    H1 1188   0.659   6.044   1.023  1.4295 -0.0908 -1.1009
  408TIP3    H2 1189   0.710   5.901   1.030 -1.3762 -1.1435 -1.0284
  409TIP3   OH2 1190   2.718   1.577   3.057 -0.9378 -0.3821  0.0274
  409TIP3    H1 1191   2.739   1.486   3.080 -0.9197  0.0122  1.6753
  409TIP3    H2 1192   2.625   1.586   3.078 -1.1347 -0.2080 -0.8520
  410TIP3   OH2 1193   1.726   5.721   2.857  1.1711  0.6322  0.1073
  410TIP3    H1 1194   1.659   5.671   2.810  0.8682  0.7686  0.3923
  410TIP3    H2 1195   1.747   5.666   2.933 -0.9403  1.9968  1.7975
  411TIP3   OH2 1196   1.930   4.292   1.012 -0.1278 -0.0335  0.4160
  411TIP3    H1 1197   1.985   4.221   1.044  0.2119  0.7532  1.6811
  411TIP3    H2 1198   1.841   4.256   1.013  0.0877 -0.5758  0.6368
  412TIP3   OH2 1199   3.615   5.719   3.576  0.2071  0.0250  0.6694
  412TIP3    H1 1200   3.693   5.733   3.631 -1.6993  0.1442  3.5629
  412TIP3    H2 1201   3.649   5.677   3.497  3.2353  0.3914  1.6219
  413TIP3   OH2 1202   2.074   0.541   1.492 -0.1473 -0.2193 -0.2156
  413TIP3    H1 1203   2.087   0.511   1.401  2.9479  0.6252 -0.1645
  413TIP3    H2 1204   2.155   0.517   1.536 -0.7041  1.3769  1.7787
  414TIP3   OH2 1205   3.157   0.375   2.743  0.1570 -0.3229  0.1079
  414TIP3    H1 1206   3.114   0.342   2.664 -1.3718  1.6412  0.0534
  414TIP3    H2 1207   3.235   0.419   2.711  0.3645 -0.8532 -0.1354
  415TIP3   OH2 1208   5.774   1.608   2.593 -0.4288  0.2383  0.3778
  415TIP3    H1 1209   5.721   1.618   2.514  1.2058 -0.8596 -0.9129
  415TIP3    H2 1210   5.714   1.632   2.664 -2.4006 -0.1391 -1.0555
  416TIP3   OH2 1211   1.019   4.399   5.634 -0.6117 -0.6566  0.7337
  416TIP3    H1 1212   0.929   4.389   5.666 -1.3777 -1.3860 -1.4844
  416TIP3    H2 1213   1.064   4.446   5.705 -3.0378  0.8458  1.4183
  417TIP3   OH2 1214   3.601   5.537   3.064 -0.7239 -0.1896 -0.6724
  417TIP3    H1 1215   3.513   5.571   3.078 -0.8271 -1.3971  2.2513
  417TIP3    H2 1216   3.590   5.443   3.054  0.2706 -0.5256  0.9961
  418TIP3   OH2 1217   1.494   2.286   1.030  0.1339  0.0410 -0.2534
  418TIP3    H1 1218   1.538   2.249   1.106  0.7906 -0.5630 -0.9083
  418TIP3    H2 1219   1.564   2.329   0.980 -0.7551  3.3602  1.0902
  419TIP3   OH2 1220   0.937   4.743   0.971  0.6318 -0.8902 -0.1492
  419TIP3    H1 1221   0.918   4.724   1.063 -1.9520  0.7519 -0.2417
  419TIP3    H2 1222   0.923   4.837   0.963  0.4177 -1.0543 -2.2960
  420TIP3   OH2 1223   0.239   0.921   2.573 -0.3694 -0.2236 -0.0591
  420TIP3    H1 1224   0.152   0.906   2.537 -0.8630 -1.4945  1.5443
  420TIP3    H2 1225   0.276   0.833   2.583 -0.3649  0.0171  2.6480
  421TIP3   OH2 1226   2.279   3.282   1.879  0.4669  0.6373  0.2069
  421TIP3    H1 1227   2.267   3.188   1.862  0.9893  0.6511 -0.2354
  421TIP3    H2 1228   2.215   3.325   1.821  0.0391  0.5457  0.6072
  422TIP3   OH2 1229   3.162   6.134   0.092 -0.3753  0.1807  0.2490
  422TIP3    H1 1230   3.171   6.139  -0.003  1.3819  0.1503  0.3821
  422TIP3    H2 1231   3.079   6.088   0.106 -0.4847 -0.1279 -1.2593
  423TIP3   OH2 1232   6.029   4.348   5.517  0.3077  0.5283 -0.3842
  423TIP3    H1 1233   6.036   4.262   5.476 -2.4946 -0.1983  0.4301
  423TIP3    H2 1234   6.086   4.343   5.594  1.8346  0.2038 -1.5030
  424TIP3   OH2 1235   7.013   0.561   4.795  0.5127  0.0910 -0.0119
  424TIP3    H1 1236   7.018   0.616   4.873  1.9331  2.2154 -1.4873
  424TIP3    H2 1237   6.930   0.586   4.754 -0.2023 -0.9789  0.7273
  425TIP3   OH2 1238   2.625   2.589   1.945 -0.0683  0.3097 -0.0461
  425TIP3    H1 1239   2.682   2.655   1.905  0.0988 -0.0663 -0.4446
  425TIP3    H2 1240   2.606   2.623   2.032 -1.6014  1.8323 -0.9321
  426TIP3   OH2 1241   4.773   5.356   1.831 -0.1556  0.0660  0.0312
  426TIP3    H1 1242   4.854   5.381   1.877 -0.5532 -1.5377  1.6833
  426TIP3    H2 1243   4.799   5.353   1.739  1.2371  1.2036  0.3402
  427TIP3   OH2 1244   2.932   1.617   0.255 -0.0100 -0.7936 -0.1526
  427TIP3    H1 1245   2.943   1.527   0.285  1.5465  0.1764  2.5905
  427TIP3    H2 1246   3.021   1.651   0.250 -0.5353  0.4656 -1.7151
  428TIP3   OH2 1247   5.777   2.064   3.590  0.3048  0.5071 -0.1568
  428TIP3    H1 1248   5.727   2.100   3.662  1.3990  1.2790  0.2330
  428TIP3    H2 1249   5.788   2.136   3.528  1.5292  0.5639  0.0947
  429TIP3   OH2 1250   4.308   0.979   3.742  0.2429 -0.0807  0.3461
  429TIP3    H1 1251   4.401   0.973   3.765  0.2758  1.9001  0.9199
  429TIP3    H2 1252   4.263   0.975   3.826 -0.2956 -1.8180  0.0227
  430TIP3   OH2 1253   4.528   2.432   5.044 -0.1234  0.0946  0.3367
  430TIP3    H1 1254   4.460   2.487   5.007  0.5915  0.7045 -0.0964
  430TIP3    H2 1255   4.590   2.493   5.083  1.5147 -0.2536 -1.5421
  431TIP3   OH2 1256   4.217   5.712   0.503 -0.1370 -0.1947  0.5244
  431TIP3    H1 1257   4.235   5.774   0.573 -0.6583  1.7541 -0.9509
  431TIP3    H2 1258   4.302   5.673   0.482  0.5349  1.2991  0.3712
  432TIP3   OH2 1259   2.647   0.268   1.583  0.5615  0.0692  0.5339
  432TIP3    H1 1260   2.690   0.287   1.500  2.5202  0.1291  1.4935
  432TIP3    H2 1261   2.668   0.344   1.638  0.7684 -0.7301  1.5911
  433TIP3   OH2 1262   4.693   6.393   1.446  0.2702  0.3370 -0.4527
  433TIP3    H1 1263   4.687   6.308   1.489  0.0408  0.8608  0.5801
  433TIP3    H2 1264   4.754   6.379   1.374  0.7976 -0.5250  0.1439
  434TIP3   OH2 1265   2.705   4.019   5.145 -0.4719 -0.4840  1.1507
  434TIP3    H1 1266   2.690   4.078   5.071  1.3340 -1.0532  0.2629
  434TIP3    H2 1267   2.724   3.935   5.104 -0.9020 -1.1741  2.3305
  435TIP3   OH2 1268   1.179   4.656   3.330 -0.0199 -0.1673  0.0914
  435TIP3    H1 1269   1.125   4.664   3.409 -0.7406 -0.9868 -0.3104
  435TIP3    H2 1270   1.129   4.600   3.271  0.7604 -0.0186 -0.7438
  436TIP3   OH2 1271   1.071   1.938   4.321 -0.3011 -0.2287 -0.0293
  436TIP3    H1 1272   1.004   1.985   4.271 -0.3871  2.2723  2.1946
  436TIP3    H2 1273   1.038   1.938   4.411  1.5989 -1.0616  0.7163
  437TIP3   OH2 1274   4.540   3.990   3.672 -0.6105 -0.0669 -0.2120
  437TIP3    H1 1275   4.590   3.946   3.741 -0.4045  1.5289  0.6850
  437TIP3    H2 1276   4.567   3.945   3.591  0.5094 -0.7666  0.5189
  438TIP3   OH2 1277   5.307   5.625   4.965 -0.6148 -0.0541 -0.1521
  438TIP3    H1 1278   5.322   5.662   5.052 -0.3097 -0.7199  0.0824
  438TIP3    H2 1279   5.323   5.532   4.975 -0.2809 -0.0957 -0.9889
  439TIP3   OH2 1280   0.448   2.937   3.774  0.3265 -0.0359  0.3809
  439TIP3    H1 1281   0.457   3.025   3.737 -2.4016  0.5137  0.7843
  439TIP3    H2 1282   0.366   2.904   3.735 -0.2894 -1.1726  2.5061
  440TIP3   OH2 1283   1.500   5.390   1.046 -0.1818 -0.0289  0.4936
  440TIP3    H1 1284   1.539   5.464   1.092  2.0330  0.4401 -1.9085
  440TIP3    H2 1285   1.406   5.397   1.065  0.4249  0.7400  3.8505
  441TIP3   OH2 1286   6.781   4.113   0.345 -0.1408  0.0542  0.0296
  441TIP3    H1 1287   6.813   4.111   0.254  1.3913 -0.5660  0.5559
  441TIP3    H2 1288   6.711   4.179   0.344  1.0811  1.4201 -1.2239
  442TIP3   OH2 1289   1.132   1.983   3.424  0.5539 -0.0002 -0.2392
  442TIP3    H1 1290   1.094   1.988   3.511 -0.3004 -0.1488 -0.5956
  442TIP3    H2 1291   1.164   1.893   3.417  0.5963  0.0030 -0.0937
  443TIP3   OH2 1292   6.338   3.902   3.255 -0.6251  0.2158 -0.1976
  443TIP3    H1 1293   6.373   3.840   3.192  1.7226  2.9200 -1.8364
  443TIP3    H2 1294   6.251   3.925   3.223 -0.6574 -0.6592 -0.7381
  444TIP3   OH2 1295   3.325   5.547   2.639  0.2115 -0.2904  0.0013
  444TIP3    H1 1296   3.277   5.548   2.722 -1.0918  3.1247 -0.6192
  444TIP3    H2 1297   3.265   5.508   2.577  0.3752 -0.9600  0.2609
  445TIP3   OH2 1298   6.506   0.210   1.380  0.0488 -0.2733 -0.5029
  445TIP3    H1 1299   6.477   0.301   1.378 -0.7625 -0.5160 -2.3535
  445TIP3    H2 1300   6.433   0.161   1.341  0.5578 -1.6949  0.2565
  446TIP3   OH2 1301   5.225   4.229   5.049  0.2795 -0.1331  0.2975
  446TIP3    H1 1302   5.276   4.245   4.970 -1.5171  0.7019 -0.7573
  446TIP3    H2 1303   5.277   4.268   5.119  1.5027 -0.1139 -0.5935
  447TIP3   OH2 1304   6.789   1.512   0.186 -0.2398  0.1053  0.1147
  447TIP3    H1 1305   6.747   1.488   0.269 -1.5904  1.3798 -0.1685
  447TIP3    H2 1306   6.716   1.525   0.125  0.6752  0.4461 -0.9355
  448TIP3   OH2 1307   2.796   1.857   1.471  0.1786 -0.5044 -0.1963
  448TIP3    H1 1308   2.881   1.902   1.467  0.4209 -0.7097  1.5138
  448TIP3    H2 1309   2.796   1.798   1.397  1.4721 -0.3692 -0.3235
  449TIP3   OH2 1310   6.789   3.368   2.966  0.6900 -0.3115 -0.4338
  449TIP3    H1 1311   6.756   3.446   2.922  0.9362 -1.1915 -2.3138
  449TIP3    H2 1312   6.721   3.344   3.028  0.1717  0.8297 -0.5403
  450TIP3   OH2 1313   6.238   3.710   1.214  0.0460  0.1589 -0.2920
  450TIP3    H1 1314   6.192   3.794   1.219 -0.2013  0.0336 -0.4211
  450TIP3    H2 1315   6.293   3.718   1.136 -0.6527 -0.1287 -0.8216
  451TIP3   OH2 1316   6.817   3.984   1.522  0.2453 -0.3152 -0.0508
  451TIP3    H1 1317   6.878   3.917   1.553  0.1740 -0.1756  0.4113
  451TIP3    H2 1318   6.801   4.039   1.599 -0.7141 -0.5417 -0.0732
  452TIP3   OH2 1319   5.155   1.022   0.635 -0.5631  0.5534  0.0700
  452TIP3    H1 1320   5.078   1.078   0.637  0.8062  2.4919  1.0169
  452TIP3    H2 1321   5.122   0.934   0.655 -3.1470  0.4083 -3.7578
  453TIP3   OH2 1322   3.121   1.169   4.782  0.3251 -0.1906  0.4238
  453TIP3    H1 1323   3.135   1.209   4.867 -1.3925 -1.4626  1.3906
  453TIP3    H2 1324   3.087   1.239   4.727 -0.6483  0.1892  1.4661
  454TIP3   OH2 1325   6.755   4.466   0.983 -0.1309 -0.3762 -0.4278
  454TIP3    H1 1326   6.838   4.470   0.934 -0.2910  0.7683 -0.6376
  454TIP3    H2 1327   6.766   4.392   1.042  0.9667 -0.3686 -0.5938
  455TIP3   OH2 1328   7.138   4.881   3.392 -0.9976  0.5009 -0.1481
  455TIP3    H1 1329   7.099   4.907   3.309 -0.2001  0.0951 -0.6711
  455TIP3    H2 1330   7.227   4.853   3.369 -0.2495  1.7402  1.0466
  456TIP3   OH2 1331   3.899   4.754   2.640 -0.2027  0.1401  0.2044
  456TIP3    H1 1332   3.901   4.675   2.587  0.0157 -0.5965  1.2612
  456TIP3    H2 1333   3.970   4.743   2.703  0.0833  1.3628  0.1368
  457TIP3   OH2 1334   2.041   3.363   5.167  0.4517  0.1854 -0.2700
  457TIP3    H1 1335   2.087   3.412   5.234  0.8240 -0.9126  0.2953
  457TIP3    H2 1336   1.949   3.366   5.193  0.6496 -0.6212  0.5482
  458TIP3   OH2 1337   4.427   0.560   4.067 -0.1578  0.3253  0.3579
  458TIP3    H1 1338   4.511   0.605   4.058 -0.0035  0.2302  1.2046
  458TIP3    H2 1339   4.372   0.622   4.115 -0.4227  0.2052  0.2098
  459TIP3   OH2 1340   0.591   3.050   4.208  0.5510  0.0708  0.1417
  459TIP3    H1 1341   0.687   3.052   4.209  0.5697 -0.6209  0.2465
  459TIP3    H2 1342   0.569   2.957   4.198 -0.1094  0.2161  0.2001
  460TIP3   OH2 1343   2.487   2.000   2.729 -0.2249  0.8282 -0.0401
  460TIP3    H1 1344   2.543   2.051   2.788 -0.4474  1.2169 -0.1567
  460TIP3    H2 1345   2.533   1.917   2.717 -0.0439  0.8542  0.4630
  461TIP3   OH2 1346   4.869   0.829   0.844  0.6362  0.0322  0.1039
  461TIP3    H1 1347   4.843   0.855   0.756 -0.4953 -0.2484  0.3425
  461TIP3    H2 1348   4.801   0.866   0.901 -0.0148 -1.8378  0.6208
  462TIP3   OH2 1349   4.466   0.699   3.745  0.8399 -0.6052 -0.5024
  462TIP3    H1 1350   4.395   0.696   3.680 -3.3403 -0.4721  3.5185
  462TIP3    H2 1351   4.485   0.792   3.756  0.0691 -0.4728 -0.1997
  463TIP3   OH2 1352   6.206   5.111   5.664  0.1701  0.4682  0.1176
  463TIP3    H1 1353   6.282   5.067   5.703  0.5051  0.3689 -0.6197
  463TIP3    H2 1354   6.130   5.070   5.704  0.5010  0.9460  1.2814
  464TIP3   OH2 1355   4.617   3.725   4.214  0.8636 -0.1868 -0.2312
  464TIP3    H1 1356   4.640   3.658   4.150 -1.3781 -1.0279 -0.2637
  464TIP3    H2 1357   4.685   3.720   4.281  1.2927 -1.8020 -0.7433
  465TIP3   OH2 1358   6.759   2.477   2.871  0.0489 -0.4000  0.5694
  465TIP3    H1 1359   6.767   2.563   2.912  0.5697 -0.2586  0.1942
  465TIP3    H2 1360   6.784   2.415   2.939  1.9446 -0.1102  0.2131
  466TIP3   OH2 1361   1.473   5.506   4.822 -0.0878 -0.2201  0.1303
  466TIP3    H1 1362   1.535   5.502   4.895  0.1637 -0.5120 -0.1007
  466TIP3    H2 1363   1.457   5.415   4.799 -1.1311 -0.1768  0.6314
  467TIP3   OH2 1364   2.247   2.090   4.703 -0.8521 -0.4887 -0.0400
  467TIP3    H1 1365   2.295   2.007   4.709 -0.6228 -0.3652 -0.1484
  467TIP3    H2 1366   2.155   2.065   4.709 -0.7665 -0.7055  0.4137
  468TIP3   OH2 1367   3.918   1.394   0.757 -0.1959  0.2856 -0.1133
  468TIP3    H1 1368   3.885   1.477   0.722 -0.7665 -0.4326 -1.3465
  468TIP3    H2 1369   3.842   1.336   0.753  0.5133 -0.6332 -0.4063
  469TIP3   OH2 1370   6.681   4.425   0.101 -0.3030 -0.7892  0.4575
  469TIP3    H1 1371   6.597   4.464   0.076 -0.3816 -1.1465  0.1385
  469TIP3    H2 1372   6.662   4.331   0.110 -0.0749 -0.7848  1.0037
  470TIP3   OH2 1373   4.063   3.037   0.534  0.1907  0.3792  0.7683
  470TIP3    H1 1374   4.103   3.085   0.607  0.1390  0.2511  0.8828
  470TIP3    H2 1375   4.122   2.964   0.518  0.4190  0.6454  0.4011
  471TIP3   OH2 1376   3.510   6.586   4.643 -0.2014  0.3197  0.1829
  471TIP3    H1 1377   3.590   6.536   4.660  1.3313  2.1676 -1.0724
  471TIP3    H2 1378   3.469   6.596   4.729 -0.1407 -2.2585  0.5901
  472TIP3   OH2 1379   3.407   3.379   4.683 -0.2120  0.3759  0.8121
  472TIP3    H1 1380   3.468   3.333   4.741  0.4773  0.6765  0.3279
  472TIP3    H2 1381   3.340   3.313   4.662  0.2306 -0.1127  0.9217
  473TIP3   OH2 1382   6.462   0.378   1.623  0.0329  0.3189 -0.5537
  473TIP3    H1 1383   6.488   0.458   1.577 -1.1271  0.3521 -1.1884
  473TIP3    H2 1384   6.379   0.401   1.665  0.0481 -0.3447 -0.1421
  474TIP3   OH2 1385   1.994   0.121   0.399  0.3088 -0.5761  0.0295
  474TIP3    H1 1386   2.041   0.063   0.338 -0.3506  0.4571 -1.5245
  474TIP3    H2 1387   2.009   0.209   0.364  0.0009  0.0688  1.4553
  475TIP3   OH2 1388   1.957   1.872   5.039 -0.3009  0.3090 -0.4742
  475TIP3    H1 1389   1.927   1.853   5.128 -1.2097  1.6629 -0.4699
  475TIP3    H2 1390   1.920   1.802   4.986 -1.9552  0.9030 -0.1667
  476TIP3   OH2 1391   4.517   4.951   4.234 -0.1309 -0.0071 -0.7798
  476TIP3    H1 1392   4.602   4.909   4.244 -0.1330  0.3311  1.0547
  476TIP3    H2 1393   4.453   4.880   4.237  0.0659 -0.2818 -2.3668
  477TIP3   OH2 1394   1.130   0.427   0.687 -0.8071 -0.0433 -0.2753
  477TIP3    H1 1395   1.213   0.454   0.648 -1.0420  0.3788 -0.4829
  477TIP3    H2 1396   1.156   0.372   0.761 -0.3060  1.0625  0.4015
  478TIP3   OH2 1397   5.965   4.048   2.548 -0.2068  0.7669 -0.2474
  478TIP3    H1 1398   5.986   3.959   2.520  0.3908  1.2831 -1.5480
  478TIP3    H2 1399   5.870   4.054   2.540 -0.5021 -0.3062  1.6888
  479TIP3   OH2 1400   2.052   0.023   2.400 -0.5531 -0.6232 -0.0496
  479TIP3    H1 1401   2.019   0.050   2.486 -0.9256 -0.7857 -0.1387
  479TIP3    H2 1402   2.076   0.105   2.357  0.4171 -0.6014  0.5185
  480TIP3   OH2 1403   5.341   0.899   0.118  0.2257 -0.1613  0.4259
  480TIP3    H1 1404   5.318   0.883   0.026 -1.8913  0.6869  0.7496
  480TIP3    H2 1405   5.341   0.812   0.158  2.3901 -0.6928 -0.5684
  481TIP3   OH2 1406   6.422   3.103   4.395  0.7241 -0.3033 -0.3920
  481TIP3    H1 1407   6.386   3.070   4.312  0.3846  1.4520 -0.9986
  481TIP3    H2 1408   6.345   3.132   4.444  0.9299 -1.3063  0.5400
  482TIP3   OH2 1409   4.828   1.354   4.042 -0.1289  0.4540 -0.2707
  482TIP3    H1 1410   4.827   1.261   4.020 -1.8574  0.3823 -0.0498
  482TIP3    H2 1411   4.813   1.398   3.959 -0.0809  0.4939 -0.2578
  483TIP3   OH2 1412   6.288   5.425   4.694 -0.1753  0.0735  0.5653
  483TIP3    H1 1413   6.345   5.438   4.770 -0.3932 -1.7830  1.0968
  483TIP3    H2 1414   6.347   5.425   4.619  0.0342  2.0142  0.6907
  484TIP3   OH2 1415   3.185   4.572   3.326  0.3013 -0.0029  0.3224
  484TIP3    H1 1416   3.186   4.530   3.412 -0.2504  2.0599  1.4209
  484TIP3    H2 1417   3.132   4.651   3.339  1.7835  1.3812 -1.4039
  485TIP3   OH2 1418   1.244   1.409   5.530  0.6223  0.6472  0.4684
  485TIP3    H1 1419   1.161   1.441   5.496  0.7300  0.7386  0.2924
  485TIP3    H2 1420   1.248   1.444   5.619  1.4900  2.5228 -0.2594
  486TIP3   OH2 1421   5.727   6.559   0.787 -0.4195  0.6698 -0.0939
  486TIP3    H1 1422   5.819   6.533   0.783 -0.6656 -1.0022  2.5266
  486TIP3    H2 1423   5.707   6.564   0.881 -3.0367  0.8566 -0.5749
  487TIP3   OH2 1424   6.973   0.740   3.298  0.2359 -0.4244  0.1891
  487TIP3    H1 1425   6.937   0.670   3.243 -0.1185  0.2154 -0.4236
  487TIP3    H2 1426   7.048   0.773   3.248  1.2792 -1.2974  1.1428
  488TIP3   OH2 1427   2.111   3.946   5.875  0.0294  0.1251 -0.3087
  488TIP3    H1 1428   2.148   3.863   5.845  0.0073  0.8864 -2.5946
  488TIP3    H2 1429   2.027   3.922   5.914  0.2157 -0.9583 -0.5313
  489TIP3   OH2 1430   5.226   0.874   1.217  0.2972  0.5005 -0.0469
  489TIP3    H1 1431   5.161   0.804   1.210  0.2179  0.5104  0.5808
  489TIP3    H2 1432   5.238   0.905   1.127 -1.0412  0.9270 -0.1002
  490TIP3   OH2 1433   3.650   3.647   3.223  0.5116  0.6584 -0.4968
  490TIP3    H1 1434   3.577   3.669   3.165 -0.3074  0.9028  0.6025
  490TIP3    H2 1435   3.725   3.691   3.184  0.0329  0.6276 -1.5006
  491TIP3   OH2 1436   6.390   4.349   5.551  0.2151  0.0175 -0.3417
  491TIP3    H1 1437   6.468   4.302   5.581  0.1265 -0.5007 -0.9098
  491TIP3    H2 1438   6.420   4.400   5.476 -0.0837 -0.5131 -0.8256
  492TIP3   OH2 1439   6.719   3.137   1.128 -0.4411  0.0764 -0.2765
  492TIP3    H1 1440   6.673   3.213   1.163 -0.4091  0.3202 -0.7554
  492TIP3    H2 1441   6.802   3.170   1.096 -0.6023 -0.0727 -0.8790
  493TIP3   OH2 1442   6.539   3.262   5.221  0.0180  0.2294  0.4307
  493TIP3    H1 1443   6.582   3.231   5.141  1.3042 -1.0265  1.5547
  493TIP3    H2 1444   6.572   3.351   5.233  0.9744 -0.1037  0.3429
  494TIP3   OH2 1445   1.233   3.821   1.969 -0.2221  0.2487  0.3673
  494TIP3    H1 1446   1.159   3.761   1.977 -0.8406  0.7945 -0.9621
  494TIP3    H2 1447   1.255   3.818   1.876 -0.5639  2.4018  0.1814
  495TIP3   OH2 1448   3.063   5.557  -0.004 -0.3943  0.1049  0.5237
  495TIP3    H1 1449   3.088   5.576   0.087  2.6518 -2.3175  0.3455
  495TIP3    H2 1450   3.041   5.464  -0.004  1.9798 -0.5653 -1.5599
  496TIP3   OH2 1451   6.265   3.527   4.279  0.4022 -0.2447  0.0247
  496TIP3    H1 1452   6.260   3.486   4.365  1.6179 -0.1979  0.1439
  496TIP3    H2 1453   6.334   3.593   4.288 -0.3406  0.6523 -0.6330
  497TIP3   OH2 1454   1.164   1.333   5.226 -0.3043 -0.3989  0.5816
  497TIP3    H1 1455   1.222   1.350   5.151 -0.2533 -0.3102  0.6414
  497TIP3    H2 1456   1.173   1.410   5.281  0.9963 -1.2138  1.5555
  498TIP3   OH2 1457   0.462   5.105   5.519  0.1558 -0.1561  0.4298
  498TIP3    H1 1458   0.411   5.179   5.551  1.2289  1.1776 -0.8137
  498TIP3    H2 1459   0.535   5.144   5.470  1.4109 -2.0063  0.6766
  499TIP3   OH2 1460   4.089   5.113   1.547 -0.0412 -0.5458  0.0370
  499TIP3    H1 1461   4.084   5.031   1.596 -1.5962  0.0041  0.8735
  499TIP3    H2 1462   4.005   5.156   1.563  1.0116  1.5927  0.2696
  500TIP3   OH2 1463   1.015   6.417   4.218 -0.1708 -0.1943 -0.1946
  500TIP3    H1 1464   0.930   6.449   4.187  0.0115  0.1083 -0.3893
  500TIP3    H2 1465   1.079   6.477   4.179  0.0338  0.6090  1.2921
  501TIP3   OH2 1466   1.589   3.188   3.440 -0.2436  0.3133 -0.2389
  501TIP3    H1 1467   1.670   3.172   3.391  0.6195  0.2117  1.1691
  501TIP3    H2 1468   1.549   3.263   3.395  0.4581  0.1669 -1.1451
  502TIP3   OH2 1469   3.290   4.394   1.111 -0.4291  0.5618 -0.0103
  502TIP3    H1 1470   3.218   4.366   1.168 -0.4526 -0.1649 -0.3871
  502TIP3    H2 1471   3.366   4.345   1.142 -0.0835  1.3448  0.4016
  503TIP3   OH2 1472   5.569   1.405   0.175  0.4873 -0.0127 -0.4794
  503TIP3    H1 1473   5.584   1.385   0.268  0.3214 -0.4608 -0.5460
  503TIP3    H2 1474   5.595   1.496   0.166  2.6402 -0.5919 -0.4883
  504TIP3   OH2 1475   0.140   6.500   4.742 -0.5023 -0.0160 -0.7519
  504TIP3    H1 1476   0.050   6.511   4.713 -0.7900 -1.5342 -0.5229
  504TIP3    H2 1477   0.135   6.504   4.838  0.0820  2.4696 -0.7573
  505TIP3   OH2 1478   4.555   0.241   3.618 -0.1630  0.4472 -0.6064
  505TIP3    H1 1479   4.466   0.207   3.611  0.0787 -0.0869 -1.1254
  505TIP3    H2 1480   4.554   0.295   3.697 -0.0398 -2.3821  1.4732
  506TIP3   OH2 1481   6.930   6.195   1.780  0.1544 -0.1081 -0.4552
  506TIP3    H1 1482   7.023   6.174   1.779 -0.1393 -1.5921  0.6543
  506TIP3    H2 1483   6.915   6.241   1.697  1.5582 -1.2216 -1.3788
  507TIP3   OH2 1484   0.885   3.646   0.185 -0.2294  0.0416 -0.5752
  507TIP3    H1 1485   0.808   3.703   0.190 -2.1382 -2.4563  2.8229
  507TIP3    H2 1486   0.947   3.683   0.248 -0.6975 -0.5289  0.2425
  508TIP3   OH2 1487   6.268   5.382   0.046  0.2342  0.4570  0.6528
  508TIP3    H1 1488   6.280   5.455   0.106  0.1739  1.5984 -0.6668
  508TIP3    H2 1489   6.351   5.335   0.048  0.4400  0.8376  1.1747
  509TIP3   OH2 1490   7.052   1.722   1.066  0.1254  0.0428 -0.0850
  509TIP3    H1 1491   7.004   1.784   1.120  0.5808  0.1891  0.1514
  509TIP3    H2 1492   7.007   1.725   0.981 -1.9207 -1.7319  0.8430
  510TIP3   OH2 1493   1.625   1.631   5.629  0.6194 -0.4384 -0.6024
  510TIP3    H1 1494   1.574   1.703   5.664  0.8050  0.8761 -2.8594
  510TIP3    H2 1495   1.707   1.634   5.678  0.4046  0.5359 -0.2803
  511TIP3   OH2 1496   5.883   0.623   4.183  0.1865 -0.5478 -0.2673
  511TIP3    H1 1497   5.866   0.667   4.100 -0.3028  1.1160  0.6757
  511TIP3    H2 1498   5.833   0.672   4.247 -1.1222 -3.0177  0.7617
  512TIP3   OH2 1499   6.156   3.635   4.053 -0.0441 -0.1836  0.3185
  512TIP3    H1 1500   6.200   3.615   4.136 -0.4084  0.5199  0.6949
  512TIP3    H2 1501   6.116   3.721   4.068 -2.3515 -1.1797  0.3324
  513TIP3   OH2 1502   5.204   0.847   2.551 -0.0669  0.1387  0.3500
  513TIP3    H1 1503   5.247   0.801   2.623  0.6230 -0.3474 -0.3623
  513TIP3    H2 1504   5.151   0.780   2.509 -0.7769  0.5116  0.6280
  514TIP3   OH2 1505   1.738   1.569   1.496  0.3301 -0.3039 -0.0917
  514TIP3    H1 1506   1.657   1.619   1.482 -0.0124 -0.7314  0.3099
  514TIP3    H2 1507   1.742   1.557   1.591  1.0406 -0.0114 -0.0775
  515TIP3   OH2 1508   3.294   3.618   4.736  0.0218 -0.3945  0.4084
  515TIP3    H1 1509   3.341   3.536   4.720  0.1574 -0.3551  0.6017
  515TIP3    H2 1510   3.297   3.629   4.831  0.3914  0.0616  0.3459
  516TIP3   OH2 1511   0.679   3.640   4.075  0.3502 -0.6995 -0.2595
  516TIP3    H1 1512   0.774   3.648   4.085  0.3821  0.7952 -1.3242
  516TIP3    H2 1513   0.643   3.697   4.143  0.2908  0.2731 -1.0804
  517TIP3   OH2 1514   5.455   6.548   3.155  0.2036  0.1828  0.6583
  517TIP3    H1 1515   5.459   6.629   3.105  0.0550  0.0614  0.4409
  517TIP3    H2 1516   5.389   6.495   3.108  1.7262 -0.8655 -0.4222
  518TIP3   OH2 1517   6.928   5.423   5.318 -0.2089 -0.0805  0.0198
  518TIP3    H1 1518   6.948   5.478   5.394 -2.0167  1.3321 -0.4474
  518TIP3    H2 1519   7.007   5.429   5.263 -0.5352  2.6721 -0.3214
  519TIP3   OH2 1520   4.603   5.460   3.769  0.0760  1.0133 -0.5828
  519TIP3    H1 1521   4.511   5.439   3.751  0.6745 -1.2823 -1.2515
  519TIP3    H2 1522   4.630   5.394   3.832  2.0299 -0.2033 -2.5838
  520TIP3   OH2 1523   3.948   5.364   1.829 -0.4238 -0.4103 -0.2331
  520TIP3    H1 1524   3.933   5.448   1.873 -2.3141 -0.8860  0.1130
  520TIP3    H2 1525   3.996   5.312   1.894 -1.3543 -0.3862  0.5037
  521TIP3   OH2 1526   6.474   2.929   2.974 -0.3779 -1.1745 -0.2017
  521TIP3    H1 1527   6.423   2.992   3.024  0.4669 -1.2355  0.7761
  521TIP3    H2 1528   6.426   2.918   2.892 -1.0038  0.0587 -0.0174
  522TIP3   OH2 1529   5.973   5.196   4.547 -0.6431 -0.7131 -0.0102
  522TIP3    H1 1530   5.967   5.246   4.466  0.3202  1.8141  1.3623
  522TIP3    H2 1531   6.024   5.118   4.524 -0.5518 -0.1460 -1.8637
  523TIP3   OH2 1532   3.775   4.098   0.439  0.2514 -0.2590 -0.2006
  523TIP3    H1 1533   3.846   4.066   0.495 -0.2128 -2.2200 -0.6533
  523TIP3    H2 1534   3.770   4.034   0.368 -1.6839  0.0576 -0.4063
  524TIP3   OH2 1535   4.278   0.874   1.445 -0.1491  0.0431 -0.4074
  524TIP3    H1 1536   4.235   0.921   1.517 -0.6143 -0.9005 -0.0506
  524TIP3    H2 1537   4.334   0.940   1.404 -0.2549  0.7301  0.5065
  525TIP3   OH2 1538   3.093   4.588   2.203  0.3393 -0.1425 -0.6043
  525TIP3    H1 1539   3.121   4.500   2.226  0.5892 -0.2417 -1.2660
  525TIP3    H2 1540   3.165   4.645   2.230 -0.4567  0.0519  1.2363
  526TIP3   OH2 1541   4.551   0.878   5.625  0.3067  0.1612  0.0771
  526TIP3    H1 1542   4.560   0.865   5.531  1.1640  0.5084  0.1071
  526TIP3    H2 1543   4.638   0.860   5.661 -0.3490 -1.4172  0.9841
  527TIP3   OH2 1544   2.780   5.453   3.517  0.0939 -0.7198 -0.2607
  527TIP3    H1 1545   2.737   5.538   3.508  1.8848  0.1385 -1.2576
  527TIP3    H2 1546   2.803   5.448   3.610 -0.6747 -0.4583 -0.0481
  528TIP3   OH2 1547   3.477   2.167   0.264  0.3038  0.1303 -0.1510
  528TIP3    H1 1548   3.565   2.147   0.298  1.0691  1.5965 -1.1849
  528TIP3    H2 1549   3.434   2.213   0.336  0.7175  0.2243  0.0449
  529TIP3   OH2 1550   1.981   6.449   1.378 -0.4660 -0.2113  0.1744
  529TIP3    H1 1551   2.070   6.462   1.410 -0.6457  0.8008  0.2795
  529TIP3    H2 1552   1.977   6.499   1.296 -1.4051  1.1142  0.9946
  530TIP3   OH2 1553   2.865   2.094   5.809 -0.2603 -0.0935 -0.6886
  530TIP3    H1 1554   2.787   2.131   5.849  0.3548 -0.3673  0.8602
  530TIP3    H2 1555   2.883   2.150   5.734 -0.8863  1.1009  0.0250
  531TIP3   OH2 1556   6.323   2.446   2.551  0.0213 -0.2713 -0.0129
  531TIP3    H1 1557   6.400   2.442   2.608 -0.2463 -0.8230  0.3258
  531TIP3    H2 1558   6.346   2.508   2.482 -0.8588  3.1575  2.5007
  532TIP3   OH2 1559   7.229   6.232   4.436  0.0541 -0.1058 -0.0571
  532TIP3    H1 1560   7.204   6.151   4.393  0.5044 -0.6740  0.7259
  532TIP3    H2 1561   7.159   6.248   4.500 -0.3546  0.4628 -0.6394
  533TIP3   OH2 1562   0.310   0.076   0.674  0.3724 -0.6179 -0.0277
  533TIP3    H1 1563   0.291   0.101   0.583 -1.7811 -1.5564  0.0913
  533TIP3    H2 1564   0.406   0.072   0.678  0.5644  0.5277 -1.9381
  534TIP3   OH2 1565   5.450   5.174   2.686  0.1930 -0.2939  0.6903
  534TIP3    H1 1566   5.429   5.086   2.655 -0.5641  0.2222 -0.3086
  534TIP3    H2 1567   5.495   5.160   2.770 -0.8328 -1.5820  1.0530
  535TIP3   OH2 1568   1.924   4.812   0.452  0.0332 -0.2054 -0.5932
  535TIP3    H1 1569   1.830   4.823   0.466  0.0488 -0.8182  0.0886
  535TIP3    H2 1570   1.939   4.841   0.362 -0.7369  0.2874 -0.5740
  536TIP3   OH2 1571   3.774   6.505   2.909 -0.8207 -0.5374  0.0435
  536TIP3    H1 1572   3.787   6.438   2.842  0.1173 -0.2438 -0.0802
  536TIP3    H2 1573   3.699   6.555   2.879 -0.0729 -0.0612 -1.0929
  537TIP3   OH2 1574   2.558   4.294   4.440 -0.9029  0.4077  0.5449
  537TIP3    H1 1575   2.542   4.252   4.356 -1.4429  1.6693 -0.0060
  537TIP3    H2 1576   2.517   4.236   4.504 -0.2540 -0.7013 -0.0191
  538TIP3   OH2 1577   2.728   4.836   2.619 -0.3567 -0.5914 -0.1112
  538TIP3    H1 1578   2.692   4.792   2.695 -0.8660 -0.0765 -0.0459
  538TIP3    H2 1579   2.794   4.776   2.585 -1.1407 -1.4684 -0.1190
  539TIP3   OH2 1580   2.418   0.935   0.130  0.3142 -0.4859  0.0495
  539TIP3    H1 1581   2.484   0.868   0.143  0.6458 -0.3866 -1.0555
  539TIP3    H2 1582   2.396   0.964   0.219  0.7954 -1.4286  0.4922
  540TIP3   OH2 1583   3.414   3.513   1.821 -0.4847  0.5618 -0.4557
  540TIP3    H1 1584   3.395   3.435   1.874 -0.7382  0.1785 -1.1047
  540TIP3    H2 1585   3.361   3.582   1.861 -1.9224 -0.0860 -1.1648
  541TIP3   OH2 1586   0.251   2.177   0.137  0.3568 -0.1040 -0.4764
  541TIP3    H1 1587   0.226   2.236   0.066  1.2331 -2.2302 -2.7098
  541TIP3    H2 1588   0.283   2.099   0.092  2.4201 -0.9910  2.2576
  542TIP3   OH2 1589   1.311   1.542   4.708 -0.4190 -0.2593  0.2477
  542TIP3    H1 1590   1.238   1.517   4.651  0.6135  0.2118 -1.3275
  542TIP3    H2 1591   1.318   1.636   4.698 -0.0382 -0.2094  0.9552
  543TIP3   OH2 1592   1.471   1.769   1.919  0.0487 -0.4044  0.1043
  543TIP3    H1 1593   1.541   1.707   1.942  1.3966  0.3520 -1.6794
  543TIP3    H2 1594   1.430   1.731   1.841 -3.4065 -2.1612  2.5010
  544TIP3   OH2 1595   4.490   3.279   3.342  0.3873 -0.5326  0.3592
  544TIP3    H1 1596   4.484   3.340   3.268  0.9536 -1.2035 -0.2662
  544TIP3    H2 1597   4.400   3.251   3.357  0.3706 -1.1526 -0.7561
  545TIP3   OH2 1598   1.884   3.063   1.079  0.3301 -0.0335 -0.2542
  545TIP3    H1 1599   1.838   3.134   1.123  0.8184  1.1836 -1.6347
  545TIP3    H2 1600   1.814   3.006   1.046 -0.0589 -0.2300  0.8451
  546TIP3   OH2 1601   3.837   3.827   1.132 -0.2719  0.7162 -0.3613
  546TIP3    H1 1602   3.876   3.836   1.219  0.1240  1.3653 -0.5960
  546TIP3    H2 1603   3.744   3.846   1.145 -0.2206  0.7730 -0.0734
  547TIP3   OH2 1604   4.960   3.386   5.497  0.0012 -0.0783  0.5520
  547TIP3    H1 1605   4.905   3.418   5.426  0.8893  1.7117  0.6169
  547TIP3    H2 1606   4.958   3.456   5.562  1.2792 -0.5544  1.1239
  548TIP3   OH2 1607   6.108   0.466   2.500  0.3079  0.0661 -0.4342
  548TIP3    H1 1608   6.142   0.390   2.546 -0.1097  0.5546  0.7295
  548TIP3    H2 1609   6.025   0.436   2.463  0.2897 -0.1404 -0.2338
  549TIP3   OH2 1610   1.149   4.696   1.910 -0.1644  0.3997  0.1799
  549TIP3    H1 1611   1.173   4.742   1.990  0.6599 -1.4824  1.0701
  549TIP3    H2 1612   1.231   4.660   1.877 -0.3488  1.8218 -2.0174
  550TIP3   OH2 1613   1.075   1.336   0.865 -0.3491  0.2420  0.1780
  550TIP3    H1 1614   1.108   1.250   0.838  0.1377  1.1488 -2.4622
  550TIP3    H2 1615   1.152   1.383   0.896 -0.4655  0.0353  0.7982
  551TIP3   OH2 1616   4.706   0.264   5.893  0.0591  0.5615  0.2331
  551TIP3    H1 1617   4.661   0.312   5.824 -0.8389 -0.3784  0.1459
  551TIP3    H2 1618   4.734   0.182   5.851 -0.3069  0.0771  0.9266
  552TIP3   OH2 1619   4.709   4.786   3.067  0.3928  0.3871  0.2281
  552TIP3    H1 1620   4.790   4.829   3.093  1.4089 -1.0429 -0.4564
  552TIP3    H2 1621   4.734   4.727   2.996 -1.4145  0.5707 -0.6298
  553TIP3   OH2 1622   5.369   4.408   3.635 -0.0553 -0.6731 -0.7285
  553TIP3    H1 1623   5.332   4.474   3.577  0.6394 -1.4432 -2.1017
  553TIP3    H2 1624   5.302   4.394   3.702 -0.4682  0.9552 -0.7575
  554TIP3   OH2 1625   0.319   0.354   4.684 -0.1986  0.3379 -0.3975
  554TIP3    H1 1626   0.306   0.445   4.711  0.6601 -0.3792  2.9357
  554TIP3    H2 1627   0.410   0.350   4.654 -0.1712  0.5372 -0.3429
  555TIP3   OH2 1628   3.647   6.484   5.682  0.3280  0.0170  0.3276
  555TIP3    H1 1629   3.642   6.410   5.743  0.5699 -0.3160 -0.0525
  555TIP3    H2 1630   3.699   6.451   5.609  1.6727  1.0290  0.7938
  556TIP3   OH2 1631   2.748   0.519   4.597  0.0502 -0.5958  0.3062
  556TIP3    H1 1632   2.745   0.553   4.507 -0.1214  4.1888  1.8528
  556TIP3    H2 1633   2.822   0.459   4.597 -0.0348 -0.9222 -3.0367
  557TIP3   OH2 1634   2.106   2.215   0.582  0.0905  0.0727  0.1061
  557TIP3    H1 1635   2.136   2.184   0.667  0.9475  2.2250  0.6524
  557TIP3    H2 1636   2.022   2.259   0.601 -0.3572 -0.5531 -0.3899
  558TIP3   OH2 1637   3.002   1.816   0.506 -0.3490 -0.6814 -0.0825
  558TIP3    H1 1638   3.059   1.801   0.431 -1.4426  0.9321 -1.2984
  558TIP3    H2 1639   2.944   1.887   0.479 -0.7231  0.0344  2.3355
  559TIP3   OH2 1640   5.624   2.554   2.525 -0.1609 -0.7066  0.5913
  559TIP3    H1 1641   5.714   2.537   2.552 -0.7147 -3.1020  1.1664
  559TIP3    H2 1642   5.577   2.473   2.545 -2.8733  1.0687  2.0997
  560TIP3   OH2 1643   6.998   4.178   1.699 -0.0857 -0.1058  0.6562
  560TIP3    H1 1644   6.974   4.253   1.646 -0.2840 -1.6755 -1.6131
  560TIP3    H2 1645   7.001   4.212   1.789  0.6748  2.7578 -0.3551
  561TIP3   OH2 1646   1.602   1.908   4.536 -0.5461  0.1943  0.2340
  561TIP3    H1 1647   1.579   1.917   4.628  0.7145 -2.0296  0.8483
  561TIP3    H2 1648   1.683   1.856   4.536 -0.9537 -0.5911 -2.1373
  562TIP3   OH2 1649   4.761   0.056   3.782 -0.1507  0.1461  0.3582
  562TIP3    H1 1650   4.714   0.095   3.708 -0.7028  0.0755  0.6637
  562TIP3    H2 1651   4.743   0.115   3.855 -0.9419 -0.6403  0.8084
  563TIP3   OH2 1652   6.290   5.922   5.675 -0.1785  0.6261 -0.4984
  563TIP3    H1 1653   6.289   5.829   5.696  0.7342  0.6456 -0.3611
  563TIP3    H2 1654   6.261   5.927   5.583 -0.3117  0.2244 -0.4782
  564TIP3   OH2 1655   3.503   2.079   2.231 -0.7010  0.2139  0.1919
  564TIP3    H1 1656   3.536   2.141   2.166 -0.3319  1.4577  1.5184
  564TIP3    H2 1657   3.563   2.087   2.305 -1.9524 -0.0744  1.2729
  565TIP3   OH2 1658   0.248   5.174   1.461 -0.2259  0.3658  0.3696
  565TIP3    H1 1659   0.247   5.078   1.458 -0.5676  0.3672  0.3833
  565TIP3    H2 1660   0.296   5.200   1.383 -0.3433  0.1876  0.2373
  566TIP3   OH2 1661   5.425   5.601   0.594 -0.0237  0.3673 -0.1546
  566TIP3    H1 1662   5.507   5.629   0.554 -1.0805  2.6749 -0.8801
  566TIP3    H2 1663   5.415   5.659   0.670 -0.0461 -1.2407  1.1205
  567TIP3   OH2 1664   0.195   6.789   5.409 -0.7172  0.0247 -0.0808
  567TIP3    H1 1665   0.150   6.742   5.340  1.8486 -0.4860 -1.5234
  567TIP3    H2 1666   0.201   6.727   5.481 -0.6730 -0.5448 -0.5731
  568TIP3   OH2 1667   2.437   1.132   2.654  0.3834 -0.0337  0.0976
  568TIP3    H1 1668   2.461   1.074   2.582  0.5271  1.1461 -0.8409
  568TIP3    H2 1669   2.441   1.077   2.732  1.5949 -0.9943 -0.6168
  569TIP3   OH2 1670   0.009   6.567   3.260 -0.8153  0.0695 -0.1171
  569TIP3    H1 1671  -0.032   6.653   3.272  1.1146  0.9344  0.6843
  569TIP3    H2 1672   0.093   6.574   3.304 -0.3305 -2.0564 -0.5821
  570TIP3   OH2 1673   7.165   3.104   4.238  0.6220  0.2670  0.4379
  570TIP3    H1 1674   7.084   3.087   4.286  0.9885  1.4309  1.5382
  570TIP3    H2 1675   7.138   3.160   4.165  0.1307 -1.1339 -0.4887
  571TIP3   OH2 1676   5.212   2.359   5.061 -0.3924 -0.3599 -0.0814
  571TIP3    H1 1677   5.117   2.355   5.066 -0.8340  2.0121 -3.3241
  571TIP3    H2 1678   5.237   2.274   5.024 -1.3241 -0.6971  0.0343
  572TIP3   OH2 1679   5.742   2.947   0.936 -0.4922 -0.2888 -0.7880
  572TIP3    H1 1680   5.718   2.906   0.853 -1.2922  0.5706 -1.0014
  572TIP3    H2 1681   5.826   2.991   0.917  0.0575 -1.2814 -0.7255
  573TIP3   OH2 1682   6.315   6.553   3.102 -0.6782 -0.3135 -0.6523
  573TIP3    H1 1683   6.240   6.511   3.060  0.8682 -1.8870 -2.0024
  573TIP3    H2 1684   6.375   6.573   3.030  0.5305  0.2242  0.4607
  574TIP3   OH2 1685   6.103   2.416  -0.007 -0.3546  0.4385  0.0408
  574TIP3    H1 1686   6.167   2.474   0.033  0.7017 -1.0203  0.5668
  574TIP3    H2 1687   6.126   2.329   0.026 -0.5884 -0.5804 -2.3087
  575TIP3   OH2 1688   4.990   4.523   3.746  0.8639  0.4681 -0.3772
  575TIP3    H1 1689   4.993   4.517   3.650  1.4556  0.1238 -0.3420
  575TIP3    H2 1690   5.078   4.553   3.770  0.7448  0.4584  0.0631
  576TIP3   OH2 1691   1.813   1.994   3.174  0.0794  0.2310  0.2333
  576TIP3    H1 1692   1.859   1.953   3.101 -0.5891 -2.9646  1.4264
  576TIP3    H2 1693   1.874   2.060   3.207  1.3177  0.1661 -1.7602
  577TIP3   OH2 1694   0.023   6.209   4.014 -0.2505 -0.4223 -0.6366
  577TIP3    H1 1695  -0.067   6.220   3.983 -0.3671  0.2129 -0.0806
  577TIP3    H2 1696   0.077   6.244   3.943 -0.5643  3.0571  0.6466
  578TIP3   OH2 1697   3.739   1.552   5.191 -0.1064  0.0216 -0.5253
  578TIP3    H1 1698   3.646   1.546   5.213 -0.4534  1.9489 -1.2558
  578TIP3    H2 1699   3.748   1.638   5.151  1.8331 -0.5085 -1.3244
  579TIP3   OH2 1700   5.889   1.907   4.587  0.2759  0.2348  0.1686
  579TIP3    H1 1701   5.868   1.863   4.505  2.0803  1.5387 -1.0656
  579TIP3    H2 1702   5.933   1.840   4.640  0.3358 -0.2551 -0.4880
  580TIP3   OH2 1703   6.743   4.055   2.632 -0.0830  0.3280 -0.0762
  580TIP3    H1 1704   6.800   3.979   2.615 -2.0994 -0.9921 -1.3034
  580TIP3    H2 1705   6.657   4.017   2.648 -0.8075  2.3111  1.0049
  581TIP3   OH2 1706   0.079   2.490   5.029 -0.3170  0.2573  0.0953
  581TIP3    H1 1707   0.117   2.574   5.004 -0.6025  0.4629  0.3371
  581TIP3    H2 1708   0.088   2.435   4.951  3.3735 -0.7961  1.0849
  582TIP3   OH2 1709   3.503   1.123   4.494 -0.9150  0.4685 -0.1332
  582TIP3    H1 1710   3.575   1.143   4.434 -1.7937 -0.0897 -1.4208
  582TIP3    H2 1711   3.537   1.054   4.550  0.6407  2.3955  1.4577
  583TIP3   OH2 1712   4.603   3.090   4.803 -0.1447 -0.2977  0.6537
  583TIP3    H1 1713   4.640   3.027   4.741 -0.1116  0.9194 -0.6051
  583TIP3    H2 1714   4.518   3.113   4.767 -0.2644  0.1932  1.2303
  584TIP3   OH2 1715   5.041   2.689   3.126  0.0365  0.0767 -0.2554
  584TIP3    H1 1716   5.070   2.660   3.213  2.2556 -0.7490 -1.1783
  584TIP3    H2 1717   4.966   2.633   3.106  0.0212 -0.3007  0.7758
  585TIP3   OH2 1718   0.914   0.598   2.567  0.2636 -0.7158 -0.3972
  585TIP3    H1 1719   0.947   0.624   2.653 -0.8476 -1.6039  0.3400
  585TIP3    H2 1720   0.987   0.614   2.507  1.1035 -0.1849  0.7264
  586TIP3   OH2 1721   0.960   1.024   4.971 -0.3727  0.3885 -0.0496
  586TIP3    H1 1722   0.907   0.988   5.042  2.3726 -0.9734  1.4657
  586TIP3    H2 1723   0.910   1.004   4.891 -0.8461 -3.4433  1.0043
  587TIP3   OH2 1724   7.132   4.497   3.625 -0.4125 -0.4830  0.3231
  587TIP3    H1 1725   7.174   4.518   3.541 -0.6625 -0.4994  0.1928
  587TIP3    H2 1726   7.172   4.415   3.652 -0.5094 -0.6050  0.0984
  588TIP3   OH2 1727   2.592   5.713   5.782  0.0574 -0.3148 -0.3662
  588TIP3    H1 1728   2.652   5.661   5.729 -1.9251 -1.3687 -1.7351
  588TIP3    H2 1729   2.506   5.672   5.767 -1.2944  2.1805  0.0581
  589TIP3   OH2 1730   1.430   3.918   5.235 -1.0062 -0.0331  0.3470
  589TIP3    H1 1731   1.444   3.862   5.158  1.0478  1.1333 -0.2388
  589TIP3    H2 1732   1.380   3.864   5.296 -1.5249 -1.4846 -1.2741
  590TIP3   OH2 1733   6.846   2.164   2.004  0.0145  0.3348 -0.1103
  590TIP3    H1 1734   6.841   2.073   2.034 -3.7460  0.1499 -0.8095
  590TIP3    H2 1735   6.875   2.213   2.081  2.5688 -1.4063  0.1663
  591TIP3   OH2 1736   0.231   0.970   2.238  0.4467  0.4015 -0.5022
  591TIP3    H1 1737   0.224   0.970   2.333  1.4092 -0.4924 -0.4087
  591TIP3    H2 1738   0.155   1.020   2.208 -0.4832 -0.2500  0.6832
  592TIP3   OH2 1739   5.262   5.239   1.852  0.4865 -0.2022 -0.4229
  592TIP3    H1 1740   5.345   5.204   1.820  1.0881  1.0274 -0.2922
  592TIP3    H2 1741   5.203   5.164   1.855  1.6666 -1.1493 -0.2931
  593TIP3   OH2 1742   0.936   1.907   0.133  0.2239 -0.2623  0.3306
  593TIP3    H1 1743   0.940   1.995   0.170  1.3501 -0.3470  0.4457
  593TIP3    H2 1744   0.986   1.912   0.051  0.3002 -0.7859  0.3388
  594TIP3   OH2 1745   4.434   1.327   5.476 -0.2820  0.8318 -0.3075
  594TIP3    H1 1746   4.515   1.291   5.440 -0.2703 -1.8201  1.9902
  594TIP3    H2 1747   4.372   1.325   5.403  1.2437  1.2458 -1.6515
  595TIP3   OH2 1748   2.567   5.036   4.924 -0.0931  0.6835  0.0637
  595TIP3    H1 1749   2.555   5.047   4.830  0.1091 -0.0786 -0.0618
  595TIP3    H2 1750   2.511   5.103   4.964 -0.4999  0.7415 -0.5900
  596TIP3   OH2 1751   5.294   0.160   5.513  0.3687 -0.0644 -0.2110
  596TIP3    H1 1752   5.268   0.215   5.587  2.0721 -0.9310  1.1001
  596TIP3    H2 1753   5.388   0.173   5.504  0.7269 -2.2243 -0.2525
  597TIP3   OH2 1754   2.767   3.763   5.032  0.0969 -0.3357  0.7074
  597TIP3    H1 1755   2.737   3.674   5.049 -0.0399 -0.7070 -1.2651
  597TIP3    H2 1756   2.863   3.758   5.035  0.0913 -0.5908  0.4928
  598TIP3   OH2 1757   1.337   3.779   5.451 -0.6738 -0.1175 -0.5166
  598TIP3    H1 1758   1.281   3.838   5.501 -1.3430 -0.1441 -1.2096
  598TIP3    H2 1759   1.390   3.735   5.517  1.0402  2.4084 -0.0464
  599TIP3   OH2 1760   5.833   1.236   1.207 -0.2634 -0.7425  0.1618
  599TIP3    H1 1761   5.819   1.307   1.269 -1.4485  0.0955 -1.0016
  599TIP3    H2 1762   5.910   1.263   1.157 -0.1594 -0.7305  0.3287
  600TIP3   OH2 1763   0.745   4.415   5.268  0.4218  0.4551 -0.0737
  600TIP3    H1 1764   0.682   4.475   5.308 -0.1188 -0.4603  0.4990
  600TIP3    H2 1765   0.728   4.421   5.174  1.0417  1.9084 -0.1054
  601TIP3   OH2 1766   2.049   6.354   4.585 -0.5107  0.2498  0.4600
  601TIP3    H1 1767   2.126   6.300   4.566 -0.5564 -0.0643  1.1458
  601TIP3    H2 1768   2.066   6.437   4.541  0.7475  0.5975  1.5532
  602TIP3   OH2 1769   1.837   2.146   2.868 -0.1343  0.0435 -0.2377
  602TIP3    H1 1770   1.797   2.083   2.808 -0.2872 -0.1487  0.0665
  602TIP3    H2 1771   1.922   2.166   2.828 -0.7632  0.9004 -1.2007
  603TIP3   OH2 1772   1.099   1.095   1.562 -0.1482  0.1062  0.1503
  603TIP3    H1 1773   1.088   1.169   1.502  0.0634 -0.1299 -0.1795
  603TIP3    H2 1774   1.009   1.066   1.580 -0.2179  0.2562  0.0490
  604TIP3   OH2 1775   5.453   1.111   2.606  0.5651 -0.1748 -0.1645
  604TIP3    H1 1776   5.434   1.062   2.686  0.5582 -0.2171 -0.1918
  604TIP3    H2 1777   5.496   1.047   2.549  0.3397 -0.2166 -0.2906
  605TIP3   OH2 1778   6.696   3.471   2.521 -0.3433 -0.2268  0.4928
  605TIP3    H1 1779   6.608   3.448   2.492 -0.1891 -0.0555 -0.1276
  605TIP3    H2 1780   6.684   3.503   2.611 -0.8314 -0.7379  0.6121
  606TIP3   OH2 1781   5.726   2.101   0.106  0.1704  0.4077 -0.3708
  606TIP3    H1 1782   5.691   2.086   0.193  2.2144 -0.3299  0.3906
  606TIP3    H2 1783   5.700   2.024   0.056  0.4076  0.0199  0.0943
  607TIP3   OH2 1784   3.550   2.956   2.154 -0.2521  0.6507  0.0053
  607TIP3    H1 1785   3.539   3.037   2.104 -0.0618  0.9413  0.4337
  607TIP3    H2 1786   3.557   2.888   2.087 -0.4702  0.9797 -0.3561
  608TIP3   OH2 1787   4.831   6.484   2.552  0.2867 -0.4108 -0.4313
  608TIP3    H1 1788   4.851   6.520   2.465  1.6141  1.0563  0.4369
  608TIP3    H2 1789   4.742   6.514   2.570 -0.1112 -0.9772 -1.3996
  609TIP3   OH2 1790   2.000   4.622   1.725 -0.6902 -0.7276  0.1004
  609TIP3    H1 1791   2.064   4.631   1.655 -1.6602 -0.5467 -0.7836
  609TIP3    H2 1792   2.026   4.687   1.790  0.5199 -1.2467  0.1698
  610TIP3   OH2 1793   4.577   2.704   1.727 -0.1648 -0.0392  0.0510
  610TIP3    H1 1794   4.533   2.776   1.683 -1.9442 -0.9750  0.2168
  610TIP3    H2 1795   4.668   2.711   1.699 -0.4827  1.6785 -0.6875
  611TIP3   OH2 1796   2.246   5.854   3.585 -1.0734  0.3356  0.3137
  611TIP3    H1 1797   2.312   5.924   3.583 -1.1331  0.4105  0.8643
  611TIP3    H2 1798   2.171   5.893   3.630 -1.8348  0.5359 -1.0685
  612TIP3   OH2 1799   6.885   1.015   1.827  0.0255  0.2581  0.0329
  612TIP3    H1 1800   6.830   1.038   1.751  0.9503  0.0907 -0.7034
  612TIP3    H2 1801   6.930   0.935   1.801  1.0014  0.6658  0.4190
  613TIP3   OH2 1802   3.484   4.108   2.187 -0.1434  0.2335  0.2656
  613TIP3    H1 1803   3.542   4.149   2.252  0.0452  2.7199 -1.3415
  613TIP3    H2 1804   3.490   4.165   2.110 -0.4362 -2.5305 -1.9522
  614TIP3   OH2 1805   6.579   5.045   2.177  0.4020 -0.2592 -0.3640
  614TIP3    H1 1806   6.601   5.022   2.267  0.5036 -1.6632 -0.7232
  614TIP3    H2 1807   6.597   5.139   2.170 -0.3348  0.0294  1.2781
  615TIP3   OH2 1808   3.300   1.913   2.086 -0.6032  0.7184  0.0654
  615TIP3    H1 1809   3.319   1.978   2.154 -0.0072 -0.4547  1.0602
  615TIP3    H2 1810   3.206   1.921   2.071 -0.7989  0.7989  1.2517
  616TIP3   OH2 1811   0.611   2.678   0.589  0.0747  0.0408  0.1561
  616TIP3    H1 1812   0.526   2.706   0.623 -1.7303 -1.5473 -2.6506
  616TIP3    H2 1813   0.610   2.704   0.497  2.6095 -0.2247 -0.0333
  617TIP3   OH2 1814   5.254   6.639   0.795  0.0823 -0.1111  0.4599
  617TIP3    H1 1815   5.167   6.679   0.782 -0.3969 -1.5043 -0.9826
  617TIP3    H2 1816   5.293   6.690   0.865 -2.2785 -0.0057  1.8252
  618TIP3   OH2 1817   4.733   4.291   1.925 -0.0234 -0.1654 -0.5726
  618TIP3    H1 1818   4.800   4.245   1.976 -0.0289  0.6955  0.2449
  618TIP3    H2 1819   4.764   4.287   1.835  0.5882 -0.7024 -0.3447
  619TIP3   OH2 1820   3.590   6.055   5.478  0.6876  0.3188 -0.2655
  619TIP3    H1 1821   3.601   6.143   5.516  0.1097  0.0707  0.4894
  619TIP3    H2 1822   3.580   5.997   5.553  1.8495 -0.5302 -0.7262
  620TIP3   OH2 1823   3.980   5.933   3.650 -0.0767  0.6210 -0.0048
  620TIP3    H1 1824   3.960   5.839   3.649 -0.8212  0.7726 -0.4051
  620TIP3    H2 1825   3.960   5.961   3.739 -0.9870  0.6123 -0.1892
  621TIP3   OH2 1826   2.655   3.150   1.229 -0.5356 -0.2417  0.1159
  621TIP3    H1 1827   2.588   3.186   1.171  1.1814  2.1371 -0.5862
  621TIP3    H2 1828   2.694   3.078   1.178 -2.3958 -1.6104  0.5120
  622TIP3   OH2 1829   2.033   5.246   2.444 -0.3536  0.5117 -0.1196
  622TIP3    H1 1830   2.016   5.169   2.498  1.9623  0.6355  0.9370
  622TIP3    H2 1831   2.021   5.321   2.503  2.2896  0.6457  0.4053
  623TIP3   OH2 1832   6.354   5.873   3.930 -0.5362 -0.1205 -0.0984
  623TIP3    H1 1833   6.272   5.919   3.943 -0.7361 -0.6550  0.5713
  623TIP3    H2 1834   6.379   5.842   4.017  1.0609  1.1725 -0.0495
  624TIP3   OH2 1835   1.722   2.389   4.529  0.5139  0.2332 -0.2352
  624TIP3    H1 1836   1.662   2.315   4.517  0.8396 -0.1788  0.5935
  624TIP3    H2 1837   1.760   2.375   4.616  0.8505  1.1836 -0.2210
  625TIP3   OH2 1838   3.776   5.142   5.613  0.3218  0.6485 -0.5348
  625TIP3    H1 1839   3.813   5.155   5.525  0.3485  1.6175 -0.3964
  625TIP3    H2 1840   3.845   5.171   5.672  1.0619 -1.8298 -0.0899
  626TIP3   OH2 1841   0.749   3.647   1.499 -0.3761 -0.0721 -0.2720
  626TIP3    H1 1842   0.778   3.618   1.585 -1.1038 -0.8915 -0.2959
  626TIP3    H2 1843   0.821   3.625   1.440 -0.0957  0.0182  0.0333
  627TIP3   OH2 1844   1.294   5.114   1.910 -0.5649  0.0806  0.0998
  627TIP3    H1 1845   1.237   5.179   1.951 -1.2940 -1.4165  1.5614
  627TIP3    H2 1846   1.281   5.126   1.816 -0.2257  2.4169  0.2898
  628TIP3   OH2 1847   4.498   4.602   2.851  0.0299  0.4018 -0.5150
  628TIP3    H1 1848   4.591   4.612   2.829  0.2499  2.4870  1.0808
  628TIP3    H2 1849   4.486   4.507   2.856  1.7410  0.0393 -1.9830
  629TIP3   OH2 1850   4.746   2.411   5.351  0.2520  0.4746 -0.4938
  629TIP3    H1 1851   4.745   2.320   5.321  1.2436 -0.3877  1.8887
  629TIP3    H2 1852   4.838   2.428   5.373 -0.0574  1.8144 -0.1620
  630TIP3   OH2 1853   5.301   5.156   4.316 -0.2899 -0.1358 -0.0999
  630TIP3    H1 1854   5.334   5.118   4.398 -0.1487 -1.3950 -0.7188
  630TIP3    H2 1855   5.220   5.108   4.299  0.0220 -0.3454 -1.0360
  631TIP3   OH2 1856   6.508   2.039   1.235  0.0822 -0.1846  0.1059
  631TIP3    H1 1857   6.497   2.024   1.329  0.0475  0.0199  0.1350
  631TIP3    H2 1858   6.420   2.030   1.198  0.1038 -0.3172  0.0842
  632TIP3   OH2 1859   2.625   3.551   0.285 -0.1465  0.6771 -0.0621
  632TIP3    H1 1860   2.583   3.617   0.230 -0.8510 -1.9903 -3.0671
  632TIP3    H2 1861   2.552   3.497   0.317  0.5250 -0.1295  0.1461
  633TIP3   OH2 1862   2.850   2.299   0.121 -0.0929 -0.2492  0.0900
  633TIP3    H1 1863   2.855   2.391   0.147 -0.9883 -0.5390  1.3844
  633TIP3    H2 1864   2.851   2.301   0.025 -2.5041  1.3045  0.0097
  634TIP3   OH2 1865   6.967   0.957   4.418 -0.3612 -0.7562  0.0463
  634TIP3    H1 1866   6.928   1.011   4.349  0.2011 -0.9828 -0.4550
  634TIP3    H2 1867   6.895   0.941   4.479 -0.5348  0.5471  0.2066
  635TIP3   OH2 1868   3.376   1.324   5.239 -0.6776 -0.5200 -0.4286
  635TIP3    H1 1869   3.417   1.408   5.257 -2.5076  0.2265  0.5094
  635TIP3    H2 1870   3.295   1.346   5.193 -2.4950 -1.4657  2.0364
  636TIP3   OH2 1871   0.951   0.306   4.872 -0.4951  0.7354  0.0482
  636TIP3    H1 1872   0.921   0.260   4.950 -0.0389  0.3464 -0.0026
  636TIP3    H2 1873   0.882   0.291   4.807 -1.1979  1.6197  0.5717
  637TIP3   OH2 1874   0.838   5.008   3.804 -0.1040  0.0086 -0.2917
  637TIP3    H1 1875   0.891   5.081   3.773  4.0499 -1.5072  2.4187
  637TIP3    H2 1876   0.883   4.930   3.772 -2.9446 -1.4826 -0.9694
  638TIP3   OH2 1877   4.921   1.131   0.349 -0.7327  0.2133 -0.2730
  638TIP3    H1 1878   4.941   1.174   0.432 -2.0970  1.2591 -0.4513
  638TIP3    H2 1879   4.957   1.189   0.282 -2.0223  0.7966 -0.4903
  639TIP3   OH2 1880   7.190   4.904   1.445 -0.7816 -0.0371  0.8317
  639TIP3    H1 1881   7.147   4.822   1.420 -3.0148  1.2507  0.1051
  639TIP3    H2 1882   7.283   4.882   1.452 -1.0107 -2.1701 -1.4185
  640TIP3   OH2 1883   1.081   4.036   1.417 -0.2877  0.0682  0.3332
  640TIP3    H1 1884   1.065   3.960   1.473 -1.2421 -0.2201 -0.3028
  640TIP3    H2 1885   1.119   3.999   1.337  1.2582  0.4974  0.8353
  641TIP3   OH2 1886   2.608   1.912   4.367  0.1209  0.6371 -0.2687
  641TIP3    H1 1887   2.632   1.997   4.328  1.4054  0.0274 -0.8798
  641TIP3    H2 1888   2.642   1.847   4.305 -2.1496 -0.3456 -0.5636
  642TIP3   OH2 1889   5.139   2.834   1.283  0.0913 -0.4045  0.0077
  642TIP3    H1 1890   5.163   2.767   1.220  1.9748 -2.1599  2.4293
  642TIP3    H2 1891   5.090   2.787   1.351  0.0906  0.9620  1.0027
  643TIP3   OH2 1892   7.176   5.655   2.695  0.1199 -0.5807 -0.0906
  643TIP3    H1 1893   7.085   5.669   2.723  0.1850 -0.2261 -0.0565
  643TIP3    H2 1894   7.169   5.643   2.600  0.0180 -0.7414 -0.0645
  644TIP3   OH2 1895   0.510   2.294   4.787 -0.2510 -0.1773 -0.5960
  644TIP3    H1 1896   0.587   2.247   4.817  0.4312  1.2031 -0.0822
  644TIP3    H2 1897   0.545   2.368   4.737 -1.2120  0.8431  0.1967
  645TIP3   OH2 1898   2.594   6.610   4.401 -0.4453 -0.3780  0.1644
  645TIP3    H1 1899   2.507   6.573   4.415 -0.3184 -1.6681 -2.0173
  645TIP3    H2 1900   2.584   6.703   4.422 -1.7557 -0.9054  2.0959
  646TIP3   OH2 1901   5.427   6.130   3.811 -0.1030 -0.1511 -0.4204
  646TIP3    H1 1902   5.362   6.149   3.743 -1.1206  0.0911  0.5835
  646TIP3    H2 1903   5.392   6.054   3.858  0.2100  0.1179  0.2683
  647TIP3   OH2 1904   6.731   4.706   2.119 -0.0875 -0.0641 -0.0752
  647TIP3    H1 1905   6.718   4.629   2.064 -0.6281 -0.9614  1.2396
  647TIP3    H2 1906   6.645   4.724   2.157 -0.5537  2.6683 -2.1232
  648TIP3   OH2 1907   1.184   0.526   3.093 -0.0759  0.1082  0.4962
  648TIP3    H1 1908   1.252   0.592   3.098  0.0202  0.1302 -0.6664
  648TIP3    H2 1909   1.217   0.452   3.144 -0.1505  0.9026  1.7374
  649TIP3   OH2 1910   2.299   3.205   2.309  0.1584  0.5627 -0.2686
  649TIP3    H1 1911   2.297   3.114   2.282  1.7978  0.3032  0.3342
  649TIP3    H2 1912   2.302   3.202   2.405 -1.0055  1.2970 -0.1962
  650TIP3   OH2 1913   0.399   3.797   0.155 -0.2481  0.0415  0.1437
  650TIP3    H1 1914   0.310   3.786   0.124 -0.2070  0.8917 -0.3167
  650TIP3    H2 1915   0.390   3.816   0.248 -0.4337 -1.5326  0.4713
  651TIP3   OH2 1916   1.322   4.853   4.221 -0.1710  0.3513  0.0667
  651TIP3    H1 1917   1.267   4.924   4.188 -0.5483  0.3953  0.7722
  651TIP3    H2 1918   1.398   4.897   4.258 -0.2573  0.3725  0.2211
  652TIP3   OH2 1919   5.792   5.201   5.102 -0.2108  0.3428 -0.0938
  652TIP3    H1 1920   5.854   5.268   5.072 -0.4378  0.8656  0.5679
  652TIP3    H2 1921   5.834   5.162   5.178  0.6536 -1.4275 -1.3982
  653TIP3   OH2 1922   2.549   0.557   1.923  0.3099  0.1125 -0.0704
  653TIP3    H1 1923   2.578   0.644   1.894  3.4793  0.2241  2.7604
  653TIP3    H2 1924   2.455   0.566   1.935  0.5664  3.3210  0.5134
  654TIP3   OH2 1925   3.684   6.543   5.113 -0.0064  0.2302 -0.4472
  654TIP3    H1 1926   3.739   6.518   5.187  0.5863  0.6478 -0.7427
  654TIP3    H2 1927   3.616   6.475   5.109  0.3866 -0.1905  0.0271
  655TIP3   OH2 1928   1.659   4.842   0.515 -0.5056  0.3009  0.6043
  655TIP3    H1 1929   1.621   4.779   0.454  1.8585  0.9289 -1.6887
  655TIP3    H2 1930   1.622   4.926   0.488  2.8910  1.0932 -2.3749
  656TIP3   OH2 1931   0.367   4.274   4.537 -0.0824 -0.4865  0.3894
  656TIP3    H1 1932   0.398   4.296   4.449  0.2656 -1.1800  0.3339
  656TIP3    H2 1933   0.403   4.187   4.554  0.3638 -0.1090  1.4566
  657TIP3   OH2 1934   1.639   5.800   1.350 -0.7193 -0.4967 -0.1871
  657TIP3    H1 1935   1.708   5.809   1.417 -0.2428 -0.9661 -0.6020
  657TIP3    H2 1936   1.557   5.803   1.400 -0.6091  3.3363  0.0408
  658TIP3   OH2 1937   7.147   4.813   3.691  0.2324  0.4284  0.0470
  658TIP3    H1 1938   7.146   4.742   3.627  2.1380 -0.4614  0.9048
  658TIP3    H2 1939   7.178   4.889   3.643  1.5304 -0.2030 -0.1515
  659TIP3   OH2 1940   6.144   1.504   1.954 -0.2366  0.3502  0.2588
  659TIP3    H1 1941   6.189   1.507   1.870 -0.3176 -1.5388  0.1006
  659TIP3    H2 1942   6.067   1.559   1.942  1.2288  2.4937  0.0876
  660TIP3   OH2 1943   6.774   5.793   0.819  0.1923 -0.3135 -0.5534
  660TIP3    H1 1944   6.760   5.753   0.905 -0.7320 -2.7542 -1.7244
  660TIP3    H2 1945   6.869   5.804   0.813  0.2656 -0.0941  0.7727
  661TIP3   OH2 1946   6.090   4.935   1.342  0.4997  0.0388  0.3901
  661TIP3    H1 1947   6.001   4.922   1.375  0.7239 -1.3288  0.5079
  661TIP3    H2 1948   6.081   4.929   1.247  0.7754 -2.6167  0.4542
  662TIP3   OH2 1949   5.770   0.116   1.311  0.4593 -0.0526  0.8058
  662TIP3    H1 1950   5.821   0.190   1.342 -0.9250  0.4623  1.9568
  662TIP3    H2 1951   5.800   0.042   1.363  0.1949  0.2059  1.3338
  663TIP3   OH2 1952   2.654   0.316   0.927 -0.1056 -0.3051  0.8544
  663TIP3    H1 1953   2.626   0.365   0.850 -0.8432 -2.5695 -0.4335
  663TIP3    H2 1954   2.630   0.371   1.001  1.2528  2.2855 -0.4743
  664TIP3   OH2 1955   5.876   0.680   0.255 -0.4854 -0.3762  0.1828
  664TIP3    H1 1956   5.948   0.662   0.194  0.2286 -3.3817  1.6882
  664TIP3    H2 1957   5.821   0.743   0.209  1.4439 -0.3507 -2.3593
  665TIP3   OH2 1958   3.868   1.124   2.314 -0.2843  0.1215 -0.7188
  665TIP3    H1 1959   3.910   1.050   2.269 -0.6783 -0.2528 -0.4700
  665TIP3    H2 1960   3.814   1.084   2.381  1.5560  0.7225  1.2281
  666TIP3   OH2 1961   1.136   2.939   4.016 -0.0889 -0.5135 -0.3156
  666TIP3    H1 1962   1.229   2.958   4.006  0.1095 -1.4825 -0.3495
  666TIP3    H2 1963   1.131   2.844   4.020 -0.8204 -0.4500  2.0101
  667TIP3   OH2 1964   6.845   4.967   4.121 -0.5076  0.3783  0.2456
  667TIP3    H1 1965   6.884   4.912   4.189  0.7612  0.2777 -0.5192
  667TIP3    H2 1966   6.889   4.939   4.040 -0.9624  1.4528 -0.3920
  668TIP3   OH2 1967   4.604   0.471   0.522 -0.0484 -0.8459 -0.3000
  668TIP3    H1 1968   4.694   0.470   0.487 -0.0136  0.6550 -0.3077
  668TIP3    H2 1969   4.614   0.499   0.613 -0.5301 -0.3528 -0.3928
  669TIP3   OH2 1970   7.170   0.139   2.606 -0.2704 -0.1827 -0.1432
  669TIP3    H1 1971   7.232   0.072   2.634  0.3628  0.5647  0.2738
  669TIP3    H2 1972   7.224   0.210   2.573 -0.8579  0.8081  0.9498
  670TIP3   OH2 1973   5.819   3.204   2.031 -0.0993 -0.0211 -0.2170
  670TIP3    H1 1974   5.744   3.148   2.050 -0.0369 -0.2712 -0.7019
  670TIP3    H2 1975   5.790   3.260   1.958  0.2100 -0.1685 -0.4533
  671TIP3   OH2 1976   6.920   6.716   5.618  0.3294 -0.6494  0.0147
  671TIP3    H1 1977   7.013   6.696   5.611  0.4201  0.0061 -0.8954
  671TIP3    H2 1978   6.893   6.735   5.529 -0.4028  0.3143  0.4166
  672TIP3   OH2 1979   5.045   4.696   3.980 -0.6295 -0.0396 -0.2315
  672TIP3    H1 1980   4.967   4.743   3.950 -1.9126 -1.8207  0.1572
  672TIP3    H2 1981   5.035   4.608   3.944  0.4213 -0.7413  1.1103
  673TIP3   OH2 1982   3.981   4.530   3.649  0.7257  0.0294 -0.3937
  673TIP3    H1 1983   4.003   4.559   3.737  2.0516  0.8591 -0.9811
  673TIP3    H2 1984   4.065   4.521   3.604  0.1609 -1.5717 -1.2340
  674TIP3   OH2 1985   4.546   2.174   3.426  0.3107 -0.7863 -0.5453
  674TIP3    H1 1986   4.559   2.079   3.438  0.8019 -0.5609  0.8817
  674TIP3    H2 1987   4.624   2.203   3.379  0.3435 -1.0238 -0.6402
  675TIP3   OH2 1988   0.461   5.542   1.415  0.3009  0.0908 -0.2446
  675TIP3    H1 1989   0.514   5.492   1.477 -0.9339 -0.1921  0.6209
  675TIP3    H2 1990   0.477   5.634   1.438 -0.2986 -0.0160  0.6413
  676TIP3   OH2 1991   3.995   2.058   0.448  0.3574 -0.0592  0.2783
  676TIP3    H1 1992   3.933   2.027   0.383 -1.0402  2.3308  0.3591
  676TIP3    H2 1993   4.080   2.028   0.417 -0.5402 -1.1275 -1.2665
  677TIP3   OH2 1994   0.393   5.361   3.360 -0.0376  0.4078 -0.7576
  677TIP3    H1 1995   0.328   5.429   3.341  0.5480  1.1028 -0.3165
  677TIP3    H2 1996   0.341   5.282   3.376 -0.6970  0.5415 -2.0592
  678TIP3   OH2 1997   0.865   6.175   0.649 -0.0678  0.4481  0.5680
  678TIP3    H1 1998   0.790   6.138   0.694 -0.3060  0.3244  0.0739
  678TIP3    H2 1999   0.830   6.248   0.599 -0.0737 -0.3206 -0.5867
  679TIP3   OH2 2000   0.389   5.365   0.752  0.6803  0.2710  0.5261
  679TIP3    H1 2001   0.416   5.445   0.705 -0.7636  0.0913 -0.6794
  679TIP3    H2 2002   0.316   5.393   0.806  1.4946  0.1760  1.7193
  680TIP3   OH2 2003   5.611   2.548   3.464  0.2180  0.0025  0.3782
  680TIP3    H1 2004   5.666   2.533   3.541  0.6237 -1.0349 -0.0985
  680TIP3    H2 2005   5.544   2.610   3.494 -0.8375 -1.8616  2.1513
  681TIP3   OH2 2006   3.936   2.356   1.439  0.4436  0.2632 -0.4905
  681TIP3    H1 2007   3.985   2.437   1.421  0.9785  0.3674  1.2531
  681TIP3    H2 2008   3.998   2.301   1.487 -0.8836  0.1031  1.1189
  682TIP3   OH2 2009   3.606   6.096   0.869  0.0998 -0.1305 -0.6091
  682TIP3    H1 2010   3.680   6.075   0.812  0.0018  1.2254 -1.2877
  682TIP3    H2 2011   3.645   6.151   0.938 -0.0814 -0.3666 -0.3156
  683TIP3   OH2 2012   5.520   5.087   3.478 -0.0983 -0.1468  0.4527
  683TIP3    H1 2013   5.467   5.159   3.511  1.1050  1.3341 -0.6929
  683TIP3    H2 2014   5.607   5.125   3.465  0.3819 -1.5963 -0.9105
  684TIP3   OH2 2015   7.105   4.708   0.926 -0.6287  0.0392 -0.0536
  684TIP3    H1 2016   7.062   4.784   0.887  2.2622  1.4466 -0.7052
  684TIP3    H2 2017   7.097   4.721   1.020  0.0690  1.3200 -0.1560
  685TIP3   OH2 2018   4.285   3.571   1.270  0.4589 -0.5686 -0.0258
  685TIP3    H1 2019   4.355   3.550   1.209  0.4926 -0.0193 -0.1811
  685TIP3    H2 2020   4.206   3.571   1.217  0.3323 -1.2136  0.1541
  686TIP3   OH2 2021   4.348   6.777   4.481 -0.1031  0.5067  0.1121
  686TIP3    H1 2022   4.268   6.816   4.446  0.1286  0.7191 -0.1786
  686TIP3    H2 2023   4.317   6.713   4.545 -0.5541 -0.2756 -0.8648
  687TIP3   OH2 2024   2.654   2.248   5.821 -0.0059 -0.1478  0.2407
  687TIP3    H1 2025   2.663   2.339   5.794 -0.6362  0.7461  2.7583
  687TIP3    H2 2026   2.573   2.219   5.779  0.0282  0.5513 -0.3258
  688TIP3   OH2 2027   3.687   4.495   4.863  0.1320  0.5042 -0.8771
  688TIP3    H1 2028   3.725   4.427   4.808  0.5046 -0.0337  0.0400
  688TIP3    H2 2029   3.604   4.517   4.820 -0.3648 -1.0758 -0.7577
  689TIP3   OH2 2030   5.416   5.354   4.612 -0.1288  0.1136  0.3477
  689TIP3    H1 2031   5.417   5.433   4.559  1.6256 -0.0034  0.1477
  689TIP3    H2 2032   5.337   5.362   4.666 -0.2681  1.7244 -0.0471
  690TIP3   OH2 2033   5.420   1.356   4.370 -0.4765  0.4494 -0.5174
  690TIP3    H1 2034   5.333   1.389   4.392 -1.0084 -2.0800  1.6285
  690TIP3    H2 2035   5.480   1.423   4.405 -1.5264  0.0045  2.4064
  691TIP3   OH2 2036   3.481   6.708   3.763 -0.5412 -0.2213 -0.1064
  691TIP3    H1 2037   3.531   6.654   3.824  2.2457  0.1232 -1.8722
  691TIP3    H2 2038   3.476   6.794   3.804 -0.1166 -0.4035  0.3352
  692TIP3   OH2 2039   2.692   0.268   5.434  0.1313  0.2744 -0.1838
  692TIP3    H1 2040   2.646   0.185   5.417 -1.6331  1.3194 -0.7667
  692TIP3    H2 2041   2.692   0.275   5.529  0.2476 -0.3818 -0.1297
  693TIP3   OH2 2042   4.177   1.870   1.443 -0.0359 -0.5916 -0.2257
  693TIP3    H1 2043   4.103   1.847   1.387 -0.2760  2.1204 -1.1867
  693TIP3    H2 2044   4.254   1.839   1.396 -0.2633  1.2964 -1.9637
  694TIP3   OH2 2045   7.035   1.765   4.785  0.0543 -0.1787 -0.4105
  694TIP3    H1 2046   7.129   1.753   4.770  0.5694  0.7222  1.6770
  694TIP3    H2 2047   7.013   1.698   4.849 -0.4484  0.3681 -0.0062
  695TIP3   OH2 2048   7.153   2.867   2.850  0.5403  0.2080  0.0819
  695TIP3    H1 2049   7.226   2.831   2.799  0.4715  2.0696 -1.4663
  695TIP3    H2 2050   7.088   2.892   2.785 -0.0388  1.6555  1.1591
  696TIP3   OH2 2051   0.312   6.685   3.088  0.0097  0.3363 -0.0952
  696TIP3    H1 2052   0.245   6.736   3.133 -3.3310 -2.5298 -1.3759
  696TIP3    H2 2053   0.391   6.697   3.140 -1.8175  2.7076  2.4050
  697TIP3   OH2 2054   1.278   5.136   4.659 -0.7691 -0.4639 -0.5267
  697TIP3    H1 2055   1.313   5.212   4.613 -1.5100  0.3184  0.1747
  697TIP3    H2 2056   1.356   5.089   4.689 -0.3015  0.5370 -0.1249
  698TIP3   OH2 2057   6.066   1.384   3.980  1.0604 -0.4658  1.3175
  698TIP3    H1 2058   6.127   1.444   4.023  0.8058  0.5743  0.2914
  698TIP3    H2 2059   6.122   1.325   3.930  1.3236  2.1990 -1.8877
  699TIP3   OH2 2060   0.918   6.664   0.506  0.1848 -0.1187 -0.0433
  699TIP3    H1 2061   0.967   6.684   0.587  1.0263 -1.8007 -0.0909
  699TIP3    H2 2062   0.985   6.661   0.438  0.1901 -2.9935 -0.0230
  700TIP3   OH2 2063   2.132   5.429   1.301  0.1795  0.2159  0.0168
  700TIP3    H1 2064   2.184   5.478   1.365  0.3771 -0.9982  0.8065
  700TIP3    H2 2065   2.049   5.478   1.297  0.0047  0.0946  1.5194
  701TIP3   OH2 2066   3.770   1.332   4.444  0.4103  0.2117  0.0672
  701TIP3    H1 2067   3.708   1.360   4.376 -0.5057 -0.8551  0.4365
  701TIP3    H2 2068   3.811   1.413   4.474  0.1230  0.8000 -1.0686
  702TIP3   OH2 2069   3.639   4.259   4.326 -0.1204  0.2760 -0.5970
  702TIP3    H1 2070   3.597   4.216   4.251  1.3508 -1.5096 -0.4581
  702TIP3    H2 2071   3.666   4.344   4.292 -1.5206  0.4420 -1.3984
  703TIP3   OH2 2072   5.467   0.914   4.902 -0.1661  0.0412  0.0781
  703TIP3    H1 2073   5.388   0.941   4.949 -0.9614  0.3934 -1.4255
  703TIP3    H2 2074   5.536   0.971   4.937 -0.5340 -0.3355  1.4715
  704TIP3   OH2 2075   3.633   1.282   5.519 -0.3825  0.7471  0.5937
  704TIP3    H1 2076   3.606   1.219   5.452 -1.4649  0.5372  1.2029
  704TIP3    H2 2077   3.551   1.308   5.562  0.1379  1.9820  0.8660
  705TIP3   OH2 2078   3.558   4.846   1.226  0.2676 -0.3146 -0.0167
  705TIP3    H1 2079   3.634   4.797   1.258  0.3072  0.7490  1.6343
  705TIP3    H2 2080   3.543   4.912   1.293 -2.0294 -0.3957 -0.3919
  706TIP3   OH2 2081   2.303   6.316   1.112  0.4101 -0.2043  0.4959
  706TIP3    H1 2082   2.312   6.223   1.095  0.5634 -0.2653  0.8885
  706TIP3    H2 2083   2.209   6.333   1.104  0.3028 -0.5196  1.0347
  707TIP3   OH2 2084   0.723   5.335   0.590  0.0069  0.9156 -0.0201
  707TIP3    H1 2085   0.638   5.325   0.547  2.0594 -0.0070 -4.4526
  707TIP3    H2 2086   0.746   5.427   0.575  0.0643  1.0100  0.6286
  708TIP3   OH2 2087   4.006   4.916   3.483 -0.3142 -0.1941  0.2623
  708TIP3    H1 2088   4.085   4.882   3.525 -0.5155 -0.2529  0.5965
  708TIP3    H2 2089   3.936   4.858   3.514 -0.3570 -0.6755 -0.7147
  709TIP3   OH2 2090   5.497   1.515   1.113 -0.1061  0.0470  0.2613
  709TIP3    H1 2091   5.550   1.593   1.129  0.8543 -0.9274  2.1150
  709TIP3    H2 2092   5.409   1.549   1.096  0.4179  1.5472  0.4141
  710TIP3   OH2 2093   6.906   1.716   2.984 -0.0957  1.0781  0.4550
  710TIP3    H1 2094   6.962   1.781   2.941  0.0089 -0.0650 -1.2279
  710TIP3    H2 2095   6.825   1.764   3.004  0.3061  1.9485  0.0460
  711TIP3   OH2 2096   0.273   4.678   4.245 -0.3634 -0.1652  0.1135
  711TIP3    H1 2097   0.359   4.699   4.209  0.5191 -1.4902  1.3419
  711TIP3    H2 2098   0.254   4.590   4.213 -1.0359 -0.0831  0.2621
  712TIP3   OH2 2099   3.522   2.030   5.661 -0.4477  0.4005  0.4341
  712TIP3    H1 2100   3.454   2.008   5.725 -0.7692  1.8500  0.6190
  712TIP3    H2 2101   3.589   1.962   5.673 -0.4940  0.6282  2.3234
  713TIP3   OH2 2102   6.166   6.182   3.077  0.3518 -0.1362 -0.4431
  713TIP3    H1 2103   6.162   6.263   3.027  0.5845  0.6962  0.8223
  713TIP3    H2 2104   6.086   6.136   3.055 -0.5160  1.1449 -0.0515
  714TIP3   OH2 2105   7.022   2.060   1.532  0.1011 -0.6566  0.3918
  714TIP3    H1 2106   6.971   2.011   1.466 -1.3737  0.2904  0.7640
  714TIP3    H2 2107   6.981   2.147   1.533  0.4973 -0.4593  2.1145
  715TIP3   OH2 2108   0.781   6.181   4.734 -0.1473 -0.0573  0.1494
  715TIP3    H1 2109   0.871   6.151   4.719 -0.1307 -0.2570  0.6184
  715TIP3    H2 2110   0.739   6.107   4.779 -0.3205  0.3261  0.6260
  716TIP3   OH2 2111   0.884   1.384   1.228  0.3241  0.4535  0.0815
  716TIP3    H1 2112   0.824   1.375   1.302  0.7863 -0.5029  0.3448
  716TIP3    H2 2113   0.846   1.328   1.160  0.5024  0.4504 -0.0157
  717TIP3   OH2 2114   3.396   0.584   1.534  0.2227  0.7687  0.0227
  717TIP3    H1 2115   3.308   0.554   1.511  0.3818  0.8517 -0.7525
  717TIP3    H2 2116   3.446   0.504   1.547  0.2042  0.7095 -0.2537
  718TIP3   OH2 2117   2.462   0.021   0.464  0.0074 -0.2123  0.1683
  718TIP3    H1 2118   2.482   0.095   0.520 -1.2965 -0.8732  1.5737
  718TIP3    H2 2119   2.480   0.052   0.375 -0.3007  1.7083  0.7371
  719TIP3   OH2 2120   1.749   6.226   1.164 -0.6856  0.1221 -0.3760
  719TIP3    H1 2121   1.675   6.196   1.111 -0.1243 -0.0028 -1.0999
  719TIP3    H2 2122   1.753   6.163   1.236  0.0609 -1.1822 -1.5099
  720TIP3   OH2 2123   3.493   3.716   3.557 -0.0329 -0.7779 -0.4042
  720TIP3    H1 2124   3.461   3.637   3.600  1.6052 -1.1471  0.2088
  720TIP3    H2 2125   3.586   3.700   3.545  0.0561  0.4853 -1.5794
  721TIP3   OH2 2126   0.756   2.637   4.777 -0.0058  0.1067 -0.0145
  721TIP3    H1 2127   0.767   2.729   4.803 -0.0850 -0.7851  3.7031
  721TIP3    H2 2128   0.661   2.628   4.763  0.0063  0.5759 -0.4479
  722TIP3   OH2 2129   6.877   6.516   2.496  0.4083 -0.8846 -0.1443
  722TIP3    H1 2130   6.900   6.461   2.421 -0.7572  0.3138 -1.4299
  722TIP3    H2 2131   6.894   6.605   2.468 -1.3465 -0.3024  0.4925
  723TIP3   OH2 2132   5.959   4.585   5.187  0.2339  0.8365 -0.1870
  723TIP3    H1 2133   5.983   4.675   5.212 -1.4083  1.4779 -0.7906
  723TIP3    H2 2134   6.032   4.532   5.218  2.1824  2.5762 -1.4853
  724TIP3   OH2 2135   3.647   0.845   3.922 -0.5524  0.2711  0.5516
  724TIP3    H1 2136   3.667   0.875   3.834  1.2870  0.0809  0.8547
  724TIP3    H2 2137   3.633   0.925   3.973 -0.9549  0.4054  0.2285
  725TIP3   OH2 2138   5.036   0.967   2.734 -0.7850 -0.0951  0.2519
  725TIP3    H1 2139   5.058   0.953   2.642 -0.4903 -1.1652  0.4644
  725TIP3    H2 2140   4.943   0.948   2.739 -0.4487 -1.9180  0.4798
  726TIP3   OH2 2141   6.585   5.544   1.749  0.3154  0.1726 -0.4487
  726TIP3    H1 2142   6.619   5.612   1.807  0.6756  0.0944 -0.5650
  726TIP3    H2 2143   6.493   5.536   1.772  0.0395  1.3508 -1.0563
  727TIP3   OH2 2144   1.255   1.561   3.840  0.0161  0.0682  0.3239
  727TIP3    H1 2145   1.294   1.513   3.766  1.2748 -1.0181  1.6338
  727TIP3    H2 2146   1.327   1.572   3.902 -0.5932  2.4553  0.7159
  728TIP3   OH2 2147   5.412   5.903   3.970  0.6071  0.4701 -0.3529
  728TIP3    H1 2148   5.359   5.827   3.949 -0.1892  0.3604  1.7610
  728TIP3    H2 2149   5.495   5.867   4.004 -0.5647  0.3286  2.7345
  729TIP3   OH2 2150   3.207   2.903   1.681  0.2178 -0.4788  0.5271
  729TIP3    H1 2151   3.220   2.958   1.604 -0.5633  0.0056  0.7249
  729TIP3    H2 2152   3.111   2.897   1.690  0.2892 -1.7597  0.5898
  730TIP3   OH2 2153   2.563   2.222   1.710  0.5009 -0.4016 -0.5400
  730TIP3    H1 2154   2.653   2.229   1.743  0.3765  1.0544 -0.4369
  730TIP3    H2 2155   2.543   2.309   1.676 -0.9258 -0.6644 -0.4441
  731TIP3   OH2 2156   2.434   2.282   3.772  0.5743  0.2934  0.4401
  731TIP3    H1 2157   2.465   2.283   3.681 -0.6448 -2.4880 -0.0942
  731TIP3    H2 2158   2.348   2.323   3.769  1.3839  2.0976  0.7669
  732TIP3   OH2 2159   3.997   0.970   4.725 -0.2964  0.3270 -0.3380
  732TIP3    H1 2160   3.934   1.029   4.684 -0.9874  0.5053  0.9243
  732TIP3    H2 2161   4.010   1.006   4.813  0.4989 -0.5044 -0.0987
  733TIP3   OH2 2162   1.065   2.997   4.870 -0.1138 -0.5153  0.4424
  733TIP3    H1 2163   1.073   2.966   4.780 -1.7430  1.5997 -0.4992
  733TIP3    H2 2164   1.018   2.927   4.916 -1.1344 -0.7390 -0.8893
  734TIP3   OH2 2165   5.271   2.486   0.335 -0.1127 -0.1710 -0.1686
  734TIP3    H1 2166   5.254   2.479   0.429  0.0289 -0.5684 -0.1711
  734TIP3    H2 2167   5.328   2.562   0.326 -0.0669 -0.1760  0.0744
  735TIP3   OH2 2168   7.215   2.781   1.892 -0.3796 -0.2535 -0.0412
  735TIP3    H1 2169   7.131   2.795   1.848 -0.4931 -2.2477 -0.5293
  735TIP3    H2 2170   7.280   2.807   1.828 -0.5532  2.7102  0.8379
  736TIP3   OH2 2171   4.364   5.908   4.592  0.0763  0.1231  0.2142
  736TIP3    H1 2172   4.357   5.866   4.506  0.5874  1.5724 -0.5844
  736TIP3    H2 2173   4.411   5.990   4.574  1.7104 -0.3156  2.1433
  737TIP3   OH2 2174   0.429   2.333   5.878 -0.0688  0.5983  0.8242
  737TIP3    H1 2175   0.415   2.253   5.929 -1.3435  0.6006  0.5311
  737TIP3    H2 2176   0.521   2.329   5.852  0.0749 -0.4168  1.4106
  738TIP3   OH2 2177   4.986   0.361   5.869  0.2212 -0.0968 -0.2927
  738TIP3    H1 2178   4.949   0.448   5.857  1.5151  0.6860  1.0710
  738TIP3    H2 2179   4.911   0.306   5.890 -0.4429  1.0163  0.3655
  739TIP3   OH2 2180   2.483   1.953   3.072  0.0899 -0.0629 -0.2657
  739TIP3    H1 2181   2.475   1.990   3.159  1.4876 -0.9791  0.2893
  739TIP3    H2 2182   2.423   1.879   3.071  1.6217 -1.3844  0.7183
  740TIP3   OH2 2183   5.999   6.108   0.569  0.0085 -0.5302  0.3256
  740TIP3    H1 2184   5.912   6.142   0.547  0.3292 -0.0084 -0.1553
  740TIP3    H2 2185   5.982   6.036   0.630 -0.7010  0.3260  1.1668
  741TIP3   OH2 2186   3.280   4.423   3.534 -0.1159 -0.0430 -0.4294
  741TIP3    H1 2187   3.316   4.336   3.518  1.1112  0.7860 -2.6610
  741TIP3    H2 2188   3.312   4.447   3.621 -0.8019 -1.9354  0.3845
  742TIP3   OH2 2189   6.740   2.521   1.666 -0.7529  0.7675  0.0159
  742TIP3    H1 2190   6.776   2.507   1.754  0.3565 -0.9721 -0.6660
  742TIP3    H2 2191   6.645   2.515   1.679 -0.5886 -0.1367  1.0198
  743TIP3   OH2 2192   0.117   3.514   0.748 -0.2853  0.6768 -0.7572
  743TIP3    H1 2193   0.141   3.438   0.693  1.4039  0.1213  0.6519
  743TIP3    H2 2194   0.093   3.476   0.832  3.8800  1.6752  1.1420
  744TIP3   OH2 2195   2.401   2.828   3.625  0.2059  0.0955  0.0372
  744TIP3    H1 2196   2.483   2.849   3.670  0.6573  0.8644 -1.0681
  744TIP3    H2 2197   2.342   2.899   3.649 -0.6188 -1.1377  1.8842
  745TIP3   OH2 2198   7.060   6.055   4.609  0.2133  0.0515  0.1261
  745TIP3    H1 2199   7.014   6.014   4.536 -1.2052  1.3027  0.2563
  745TIP3    H2 2200   7.020   6.142   4.615  0.4707  0.0582  2.2281
  746TIP3   OH2 2201   5.720   4.589   5.021  0.1811 -0.0437 -0.2238
  746TIP3    H1 2202   5.649   4.580   5.086  0.5365 -1.0780  0.0393
  746TIP3    H2 2203   5.800   4.574   5.071  0.6056  1.1170 -0.5244
  747TIP3   OH2 2204   3.266   4.787   5.650  0.0402  0.4784 -0.6080
  747TIP3    H1 2205   3.208   4.794   5.575  0.4053 -0.5613 -1.0074
  747TIP3    H2 2206   3.257   4.870   5.696 -1.2441  0.5923 -1.0313
  748TIP3   OH2 2207   6.842   4.337   4.895 -0.7702  0.1558  0.6795
  748TIP3    H1 2208   6.834   4.250   4.935  1.6010 -0.1748  0.5334
  748TIP3    H2 2209   6.933   4.363   4.909 -0.5590  1.2568 -1.9905
  749TIP3   OH2 2210   4.641   0.601   5.759 -0.3994  0.1638 -0.5513
  749TIP3    H1 2211   4.707   0.639   5.817  1.0475 -0.6716 -1.5775
  749TIP3    H2 2212   4.646   0.655   5.679 -2.2143  1.1678 -0.0432
  750TIP3   OH2 2213   1.477   4.429   1.223  0.6740 -0.1596  0.1300
  750TIP3    H1 2214   1.486   4.457   1.314  1.2274  2.7077 -0.7147
  750TIP3    H2 2215   1.387   4.454   1.199  0.8370 -0.0216 -0.3617
  751TIP3   OH2 2216   1.406   2.343   2.646  0.1186  0.3994  0.5340
  751TIP3    H1 2217   1.440   2.431   2.666  1.0591 -0.0193  0.8375
  751TIP3    H2 2218   1.358   2.318   2.725  0.4838  0.3511  0.7471
  752TIP3   OH2 2219   2.790   4.783   4.796  0.6875  0.0382  0.1844
  752TIP3    H1 2220   2.823   4.698   4.827  1.4602  0.5208  0.7100
  752TIP3    H2 2221   2.724   4.807   4.860  0.3846 -0.2068 -0.0276
  753TIP3   OH2 2222   2.957   5.231   0.907 -0.4936 -0.4450 -0.1664
  753TIP3    H1 2223   3.003   5.246   0.990  0.7321 -1.7216 -0.5893
  753TIP3    H2 2224   2.891   5.165   0.928 -0.6338 -0.2798 -0.0766
  754TIP3   OH2 2225   5.377   5.657   2.694  0.0263  0.4116  0.2319
  754TIP3    H1 2226   5.434   5.580   2.692 -0.5219  0.0137 -1.5721
  754TIP3    H2 2227   5.296   5.626   2.734 -0.4799 -0.1928 -1.2043
  755TIP3   OH2 2228   2.040   6.183   4.884  0.5204 -0.1945  0.1531
  755TIP3    H1 2229   2.057   6.200   4.792  0.8767  0.9727  0.4289
  755TIP3    H2 2230   2.102   6.114   4.908  0.6587 -0.2560 -0.3817
  756TIP3   OH2 2231   0.900   2.443   5.194  0.1804 -0.0666 -0.0981
  756TIP3    H1 2232   0.881   2.534   5.217  1.8389  0.1208  0.6551
  756TIP3    H2 2233   0.837   2.423   5.125 -2.4061  0.5882  1.9070
  757TIP3   OH2 2234   3.486   1.155   2.831  0.1128 -0.1967 -0.0190
  757TIP3    H1 2235   3.419   1.127   2.769  1.6787 -2.1205 -0.9727
  757TIP3    H2 2236   3.533   1.225   2.786  0.6282 -0.9218 -0.6232
  758TIP3   OH2 2237   6.744   6.501   0.643 -0.2067  0.7515  0.0365
  758TIP3    H1 2238   6.676   6.438   0.666 -0.2757  0.9351  0.3472
  758TIP3    H2 2239   6.804   6.453   0.587  0.7205 -0.1224  1.7147
  759TIP3   OH2 2240   4.700   1.157   4.574  0.0591  0.5909 -0.0942
  759TIP3    H1 2241   4.616   1.157   4.622  0.0312  1.7092 -0.1103
  759TIP3    H2 2242   4.731   1.067   4.580 -0.9742  0.2390  0.2255
  760TIP3   OH2 2243   0.081   6.282   3.011 -0.1256 -0.1677 -0.2958
  760TIP3    H1 2244  -0.008   6.266   3.044 -0.1063 -2.6872 -1.2330
  760TIP3    H2 2245   0.080   6.374   2.985 -1.6002  0.6162  2.1375
  761TIP3   OH2 2246   0.572   4.791   0.232  0.4441  0.0091  0.1164
  761TIP3    H1 2247   0.609   4.787   0.320 -0.5639 -0.7523  0.5224
  761TIP3    H2 2248   0.495   4.849   0.241  0.6456  0.3595 -0.3812
  762TIP3   OH2 2249   1.945   5.866   3.464  0.4006 -0.8781 -0.0489
  762TIP3    H1 2250   1.971   5.898   3.550  1.3016  1.9649 -1.2566
  762TIP3    H2 2251   1.858   5.902   3.450 -0.1303 -2.1058  0.0274
  763TIP3   OH2 2252   5.077   6.260   4.411 -0.7099  0.4765  0.1794
  763TIP3    H1 2253   5.081   6.288   4.319 -0.2236  1.7960  0.5871
  763TIP3    H2 2254   5.163   6.279   4.446 -0.6674 -0.6672  0.7598
  764TIP3   OH2 2255   1.152   0.758   0.884  0.1711  0.3895 -0.3343
  764TIP3    H1 2256   1.086   0.724   0.824 -0.0065 -1.3195  0.7531
  764TIP3    H2 2257   1.235   0.748   0.837 -0.1620  1.0615 -1.0921
  765TIP3   OH2 2258   4.915   0.660   4.608 -0.1221  0.0773 -0.3949
  765TIP3    H1 2259   4.881   0.745   4.637 -1.0983 -0.1390 -0.8920
  765TIP3    H2 2260   4.968   0.630   4.682 -0.5282  0.6888  0.1619
  766TIP3   OH2 2261   7.138   1.126   0.173 -0.5250 -0.2429 -0.3072
  766TIP3    H1 2262   7.157   1.041   0.133  0.5950  0.6412 -1.7262
  766TIP3    H2 2263   7.221   1.172   0.173 -0.7411  0.2872  1.9830
  767TIP3   OH2 2264   5.825   4.063   2.925  0.5688 -0.1904 -0.1740
  767TIP3    H1 2265   5.801   4.048   3.016 -0.8356  1.5612 -0.1845
  767TIP3    H2 2266   5.894   4.000   2.907  1.2017 -0.2785  2.2360
  768TIP3   OH2 2267   6.382   4.972   5.816  0.2042 -0.1931  0.1300
  768TIP3    H1 2268   6.331   4.897   5.846  0.7492 -0.1229  1.2903
  768TIP3    H2 2269   6.472   4.948   5.834  0.5876 -0.1602 -1.5601
  769TIP3   OH2 2270   6.595   0.918   3.103  0.0265 -0.1016 -0.5340
  769TIP3    H1 2271   6.543   0.989   3.065 -1.7899 -0.7433  0.6493
  769TIP3    H2 2272   6.612   0.946   3.193 -1.5975 -1.5646  0.2780
  770TIP3   OH2 2273   0.895   1.467   4.756  0.2370 -0.1714  0.5138
  770TIP3    H1 2274   0.828   1.400   4.768  1.1654 -1.2873 -0.2421
  770TIP3    H2 2275   0.943   1.468   4.839  0.9628 -1.3281  0.1292
  771TIP3   OH2 2276   3.085   4.064   0.583  0.3065  0.0751 -0.1309
  771TIP3    H1 2277   3.080   3.994   0.518  0.6930  0.0198 -0.1066
  771TIP3    H2 2278   3.155   4.121   0.551  0.8464 -0.2269  0.5003
  772TIP3   OH2 2279   0.617   2.953   2.429  0.1799  0.1536 -0.0123
  772TIP3    H1 2280   0.531   2.996   2.434  0.3985  0.4465  2.3534
  772TIP3    H2 2281   0.680   3.025   2.428  0.4397 -0.0727  0.0581
  773TIP3   OH2 2282   5.418   6.385   5.285  0.0236  1.3605  0.0777
  773TIP3    H1 2283   5.456   6.462   5.327 -0.7941  1.9469 -0.2533
  773TIP3    H2 2284   5.489   6.350   5.232  1.7019 -0.4283  3.1909
  774TIP3   OH2 2285   1.794   2.524   4.307 -0.2464 -0.4026  0.4680
  774TIP3    H1 2286   1.852   2.587   4.350 -0.4901  1.0532 -1.2373
  774TIP3    H2 2287   1.769   2.463   4.377 -1.1679  2.2117  2.5692
  775TIP3   OH2 2288   2.714   3.140   2.319  0.0231 -0.1390 -0.5433
  775TIP3    H1 2289   2.712   3.226   2.276 -0.9937 -0.4188 -1.0823
  775TIP3    H2 2290   2.660   3.151   2.398  0.2425 -0.1672 -0.3894
  776TIP3   OH2 2291   3.074   0.313   1.355 -0.3670  0.1742 -0.2440
  776TIP3    H1 2292   3.077   0.397   1.399 -1.0570 -0.2657  0.6674
  776TIP3    H2 2293   3.111   0.251   1.419 -0.5022 -0.3201 -0.6368
  777TIP3   OH2 2294   2.152   1.317   2.371 -0.2392  0.4900 -0.0195
  777TIP3    H1 2295   2.106   1.390   2.330  0.9991  2.1535  1.4311
  777TIP3    H2 2296   2.241   1.322   2.337  0.0709  0.1604  0.7327
  778TIP3   OH2 2297   5.764   1.833  -0.001  0.1106 -0.1179 -0.2395
  778TIP3    H1 2298   5.826   1.775  -0.046  1.9689  0.8971  0.9307
  778TIP3    H2 2299   5.765   1.804   0.090 -0.4345  0.4968 -0.0306
  779TIP3   OH2 2300   4.127   0.312   2.975  0.5794  0.2979  0.7156
  779TIP3    H1 2301   4.081   0.389   3.008  0.6687  0.8526 -0.4098
  779TIP3    H2 2302   4.059   0.246   2.962  0.2638  0.7312  0.1453
  780TIP3   OH2 2303   3.045   3.689   5.067 -0.5378 -0.4542  0.6191
  780TIP3    H1 2304   3.130   3.732   5.072 -0.7781  0.0013  0.8257
  780TIP3    H2 2305   3.059   3.616   5.007  0.1666 -0.7721  1.1556
  781TIP3   OH2 2306   7.054   2.456   2.403 -0.0255  0.2989 -0.0705
  781TIP3    H1 2307   7.027   2.486   2.490  1.7276  1.9557 -0.0284
  781TIP3    H2 2308   7.037   2.530   2.346  0.3271 -0.2033 -0.8454
  782TIP3   OH2 2309   4.767   5.064   4.973 -0.2076 -0.0243 -0.2995
  782TIP3    H1 2310   4.753   5.157   4.955 -1.1811 -0.2403 -0.6732
  782TIP3    H2 2311   4.726   5.050   5.058 -1.4562 -0.4454 -0.9546
  783TIP3   OH2 2312   1.986   0.169   2.946 -0.0018 -0.2322 -0.1880
  783TIP3    H1 2313   1.904   0.120   2.943 -0.3483  0.2549  0.8940
  783TIP3    H2 2314   2.020   0.154   3.035  0.4053  0.6397 -0.1855
  784TIP3   OH2 2315   6.667   4.124   2.319 -0.4082  0.2494 -1.0154
  784TIP3    H1 2316   6.749   4.159   2.354 -0.4991 -1.5130  1.1924
  784TIP3    H2 2317   6.599   4.168   2.371 -0.6558 -0.8317 -0.3912
  785TIP3   OH2 2318   6.481   2.009   5.366 -0.7443 -0.0784 -0.4247
  785TIP3    H1 2319   6.530   2.046   5.439  1.2090  2.8814 -2.9562
  785TIP3    H2 2320   6.390   2.012   5.394 -0.0255  0.0202  2.1874
  786TIP3   OH2 2321   5.517   0.607   2.471 -0.2378 -0.1808  0.1298
  786TIP3    H1 2322   5.604   0.615   2.431  0.0116  2.1176  0.9886
  786TIP3    H2 2323   5.461   0.574   2.400  0.6559  1.5009 -1.4423
  787TIP3   OH2 2324   5.089   6.778   2.117  0.1159 -0.2596  0.4316
  787TIP3    H1 2325   5.022   6.717   2.149  0.0445  0.2153  1.2103
  787TIP3    H2 2326   5.170   6.728   2.121 -0.1593 -0.7945 -0.3811
  788TIP3   OH2 2327   2.169   5.403   0.790  0.3363 -0.0287  0.5990
  788TIP3    H1 2328   2.190   5.453   0.868  2.3073 -2.1618  1.5698
  788TIP3    H2 2329   2.239   5.425   0.728 -0.9576  1.2940 -0.4650
  789TIP3   OH2 2330   0.829   0.422   1.047 -0.0790  0.4038  0.0170
  789TIP3    H1 2331   0.894   0.356   1.024 -1.1215 -0.1769 -1.4232
  789TIP3    H2 2332   0.868   0.470   1.119  0.6549 -1.8929  1.2417
  790TIP3   OH2 2333   1.892   5.509   2.072 -0.3746 -0.1650  0.0767
  790TIP3    H1 2334   1.810   5.483   2.114 -0.5233  1.0795  0.6172
  790TIP3    H2 2335   1.960   5.483   2.134 -0.5712  1.3501  0.9675
  791TIP3   OH2 2336   2.235   6.022   4.945 -0.2915  0.2372  0.5728
  791TIP3    H1 2337   2.253   5.963   4.872 -0.7868 -0.6615  1.1706
  791TIP3    H2 2338   2.316   6.073   4.955 -0.4857  0.9249 -1.0938
  792TIP3   OH2 2339   2.020   2.312   5.278 -0.0133  0.1989  0.4541
  792TIP3    H1 2340   2.004   2.389   5.224 -3.3107 -0.6202  0.0384
  792TIP3    H2 2341   2.037   2.242   5.216  0.2488  0.0395  0.7015
  793TIP3   OH2 2342   0.074   6.268   3.754 -0.0460 -0.2326  0.5542
  793TIP3    H1 2343   0.018   6.215   3.698  0.7894 -0.6376  0.0735
  793TIP3    H2 2344   0.092   6.346   3.702  0.7418 -0.6150  0.2395
  794TIP3   OH2 2345   2.779   1.243   1.725  0.1270 -0.5108 -0.5243
  794TIP3    H1 2346   2.796   1.149   1.725  0.2920 -0.4851 -0.0669
  794TIP3    H2 2347   2.799   1.271   1.636  0.4508 -0.8451 -0.5615
  795TIP3   OH2 2348   0.037   0.024   0.097  0.3190  0.3019  0.2124
  795TIP3    H1 2349   0.102  -0.037   0.133  1.0608  0.3653 -0.9531
  795TIP3    H2 2350   0.088   0.099   0.068 -0.3515  0.6392 -0.1268
  796TIP3   OH2 2351   2.686   4.442   2.406  0.0655  1.3109 -0.1509
  796TIP3    H1 2352   2.660   4.409   2.493  0.1201  2.3976  0.2978
  796TIP3    H2 2353   2.735   4.370   2.367  1.2403  1.2692  1.2818
  797TIP3   OH2 2354   1.940   6.609   4.237 -0.0733 -0.1829 -0.4566
  797TIP3    H1 2355   1.991   6.530   4.218  1.7896  0.9970 -0.5694
  797TIP3    H2 2356   1.852   6.589   4.204  0.0169 -2.6399  0.5846
  798TIP3   OH2 2357   1.930   1.399   5.824  0.8487 -0.0873  0.3101
  798TIP3    H1 2358   2.018   1.363   5.838  0.7804 -0.4769 -0.2345
  798TIP3    H2 2359   1.944   1.493   5.814  1.1585 -0.1009  0.6011
  799TIP3   OH2 2360   1.286   3.825   4.991  0.1558 -0.1239 -0.2171
  799TIP3    H1 2361   1.253   3.905   5.033 -1.0537  0.6425 -2.4847
  799TIP3    H2 2362   1.379   3.844   4.977 -0.0999  0.8801 -0.6751
  800TIP3   OH2 2363   1.142   2.672   5.090 -0.5875 -0.5272  0.2100
  800TIP3    H1 2364   1.048   2.692   5.096 -0.6321 -0.0835 -1.3875
  800TIP3    H2 2365   1.181   2.719   5.163 -1.5164 -0.0361  0.4129
  801TIP3   OH2 2366   5.855   2.675   4.954  0.5209  0.5312 -0.3792
  801TIP3    H1 2367   5.922   2.743   4.952 -0.0092  1.0663 -0.1979
  801TIP3    H2 2368   5.790   2.704   4.890 -0.3604  0.8904  0.6547
  802TIP3   OH2 2369   0.891   4.047   0.878  0.3193  0.1170 -0.1418
  802TIP3    H1 2370   0.893   4.111   0.949 -0.5625 -2.6492  2.6175
  802TIP3    H2 2371   0.983   4.034   0.854  0.6091  1.2485  0.3133
  803TIP3   OH2 2372   2.011   0.871   3.207 -0.5840 -0.0318 -0.0929
  803TIP3    H1 2373   2.001   0.858   3.113 -0.5072  2.8989 -0.5820
  803TIP3    H2 2374   2.101   0.842   3.225 -0.1206  0.6369 -1.2043
  804TIP3   OH2 2375   1.368   1.182   5.422 -0.7755  0.1259 -0.5069
  804TIP3    H1 2376   1.419   1.209   5.499 -1.0373  0.6654 -0.5139
  804TIP3    H2 2377   1.289   1.236   5.426 -1.1866 -0.4629 -0.6835
  805TIP3   OH2 2378   5.237   2.507   2.538 -0.3323  0.2762  0.3891
  805TIP3    H1 2379   5.266   2.429   2.491 -1.1089 -0.4152  1.0311
  805TIP3    H2 2380   5.206   2.567   2.470 -1.6957 -0.8093  0.0301
  806TIP3   OH2 2381   6.221   6.664   3.651  0.0081  0.1374  0.1571
  806TIP3    H1 2382   6.176   6.615   3.582  0.3747  0.5886 -0.4088
  806TIP3    H2 2383   6.172   6.642   3.731 -0.9111  0.2202 -0.3623
  807TIP3   OH2 2384   7.133   6.631   3.998 -0.0321 -0.1351  0.2488
  807TIP3    H1 2385   7.117   6.582   4.079 -2.8969  0.8450  0.4016
  807TIP3    H2 2386   7.094   6.577   3.929 -2.5361  1.4202  0.3194
  808TIP3   OH2 2387   6.818   5.167   1.121  0.5278  0.0970 -0.3128
  808TIP3    H1 2388   6.763   5.096   1.156  0.7297 -0.2508 -0.6892
  808TIP3    H2 2389   6.843   5.218   1.198 -0.9712  0.7293 -0.2144
  809TIP3   OH2 2390   0.394   5.111   0.602  0.8649 -0.1187  0.3858
  809TIP3    H1 2391   0.408   5.199   0.637  0.3479 -0.0338  0.3951
  809TIP3    H2 2392   0.317   5.079   0.650  2.1028 -1.2774  1.7002
  810TIP3   OH2 2393   4.774   4.450   5.429 -0.0275  0.2159  0.2332
  810TIP3    H1 2394   4.847   4.395   5.459 -0.6520 -0.0584  1.3194
  810TIP3    H2 2395   4.733   4.400   5.359  0.5160  0.1468 -0.0446
  811TIP3   OH2 2396   0.613   4.296   0.534 -0.0585 -0.0970 -0.0504
  811TIP3    H1 2397   0.643   4.212   0.569 -1.7893 -0.3272  0.9870
  811TIP3    H2 2398   0.607   4.353   0.611 -0.2596  0.5371 -0.5322
  812TIP3   OH2 2399   1.850   1.029   1.855  0.2185 -0.3971  0.0676
  812TIP3    H1 2400   1.757   1.044   1.870  0.5582 -0.6004  3.0050
  812TIP3    H2 2401   1.869   1.077   1.774 -1.4401  4.0052  1.9696
  813TIP3   OH2 2402   3.876   4.294   1.951 -0.5595 -0.4647 -0.3985
  813TIP3    H1 2403   3.852   4.201   1.951 -0.4586 -0.5247 -2.1849
  813TIP3    H2 2404   3.837   4.329   2.032 -2.5850 -1.5772 -0.8271
  814TIP3   OH2 2405   0.508   3.370   3.788 -0.1045  0.4587  0.4220
  814TIP3    H1 2406   0.457   3.294   3.759  2.8585 -0.8904 -1.8015
  814TIP3    H2 2407   0.512   3.362   3.883 -0.9060 -1.4534  0.3288
  815TIP3   OH2 2408   2.206   5.698   0.710 -0.2616 -0.4926  0.3892
  815TIP3    H1 2409   2.282   5.641   0.693 -0.1431 -0.5700  1.1563
  815TIP3    H2 2410   2.135   5.659   0.659 -0.1166 -1.1871  0.7027
  816TIP3   OH2 2411   1.611   2.355   0.367  0.1900 -0.1834 -0.2465
  816TIP3    H1 2412   1.583   2.432   0.416 -1.3382 -1.0922  0.4303
  816TIP3    H2 2413   1.706   2.357   0.370  0.1796  0.2354  2.1409
  817TIP3   OH2 2414   3.626   5.056   5.853  0.0622 -0.4120  0.1726
  817TIP3    H1 2415   3.704   5.072   5.800  1.0159 -0.1543  1.6136
  817TIP3    H2 2416   3.579   5.139   5.852 -0.0898 -0.5027 -0.5262
  818TIP3   OH2 2417   4.470   5.252   3.089 -0.0186  0.5021 -0.7081
  818TIP3    H1 2418   4.453   5.274   2.998  0.5241  0.2192 -0.8796
  818TIP3    H2 2419   4.564   5.237   3.094  0.0010  0.7955 -0.0407
  819TIP3   OH2 2420   4.323   3.980   4.022 -0.2028 -0.0597  0.6032
  819TIP3    H1 2421   4.353   4.070   4.035 -1.6443  0.4791  0.2971
  819TIP3    H2 2422   4.324   3.941   4.109  0.0728  0.3560  0.7855
  820TIP3   OH2 2423   2.772   2.135   2.288  0.1639  0.0636 -0.1949
  820TIP3    H1 2424   2.703   2.139   2.355  0.5508 -0.9102  0.2937
  820TIP3    H2 2425   2.832   2.068   2.321  0.5997 -0.1047 -1.3075
  821TIP3   OH2 2426   5.582   5.419   3.640  0.1103 -0.0200  0.2355
  821TIP3    H1 2427   5.607   5.414   3.732  0.2102  0.0800  0.2136
  821TIP3    H2 2428   5.648   5.366   3.594 -0.2646 -0.5452  0.2826
  822TIP3   OH2 2429   1.943   2.422   4.027 -0.1345 -0.2210  0.9297
  822TIP3    H1 2430   1.939   2.432   4.122 -0.4355 -0.4547  0.9438
  822TIP3    H2 2431   1.871   2.477   3.995 -0.5163 -0.7467  0.8839
  823TIP3   OH2 2432   3.138   5.422   2.066 -0.1751  0.6469  0.0255
  823TIP3    H1 2433   3.221   5.436   2.020 -0.9315  0.9858 -1.2879
  823TIP3    H2 2434   3.147   5.472   2.147  0.9937  0.4690  0.0203
  824TIP3   OH2 2435   0.709   6.427   3.002  0.5892 -0.0015  0.3550
  824TIP3    H1 2436   0.743   6.386   3.082  1.1088 -0.6798 -0.2054
  824TIP3    H2 2437   0.784   6.477   2.968  0.8215 -0.9216 -0.5009
  825TIP3   OH2 2438   4.000   3.048   1.322 -0.3613 -0.3293  0.0409
  825TIP3    H1 2439   3.906   3.066   1.321 -0.0101  1.8477  0.4526
  825TIP3    H2 2440   4.020   3.032   1.414 -0.3332 -0.9212 -0.0637
  826TIP3   OH2 2441   1.324   6.725   3.882  0.1734 -0.2310  0.0882
  826TIP3    H1 2442   1.335   6.740   3.788  0.8779  0.4192  0.2580
  826TIP3    H2 2443   1.333   6.631   3.893  1.0208 -0.2219 -0.3922
  827TIP3   OH2 2444   2.361   1.891   4.502 -0.1184  0.0483 -0.1585
  827TIP3    H1 2445   2.426   1.911   4.434 -0.1493  1.4024  0.1915
  827TIP3    H2 2446   2.414   1.865   4.578 -0.0112  0.3799 -0.1177
  828TIP3   OH2 2447   5.541   1.106   0.892  0.3786 -0.1563 -0.0348
  828TIP3    H1 2448   5.479   1.040   0.925  1.4214 -0.8793  0.5515
  828TIP3    H2 2449   5.548   1.169   0.963  1.6317 -1.0224  0.6586
  829TIP3   OH2 2450   0.561   4.713   0.702 -0.3856 -0.1861 -0.0902
  829TIP3    H1 2451   0.550   4.793   0.754 -0.3358 -0.1227 -0.1770
  829TIP3    H2 2452   0.614   4.740   0.627  1.8777 -0.8672  1.1905
  830TIP3   OH2 2453   4.459   1.139   4.697  0.0209  0.2170 -0.8302
  830TIP3    H1 2454   4.385   1.087   4.666  0.3513 -0.0922 -1.1052
  830TIP3    H2 2455   4.419   1.216   4.738 -0.7377 -1.9177  2.9456
  831TIP3   OH2 2456   0.633   5.092   3.262 -0.8542 -0.1252 -0.6744
  831TIP3    H1 2457   0.595   5.126   3.343 -1.4711  0.1733 -1.0765
  831TIP3    H2 2458   0.576   5.126   3.193  0.1543  0.3282 -1.3043
  832TIP3   OH2 2459   3.597   3.788   0.837  0.3685  0.1225 -0.6226
  832TIP3    H1 2460   3.537   3.817   0.905 -1.1306 -0.8679 -1.4591
  832TIP3    H2 2461   3.610   3.695   0.855  0.9069  0.1221 -1.0052
  833TIP3   OH2 2462   2.604   0.397   3.244  1.3277 -1.0612  0.1736
  833TIP3    H1 2463   2.638   0.347   3.169  0.9939  1.3963 -1.7642
  833TIP3    H2 2464   2.674   0.458   3.266  0.9094 -0.8642  0.9900
  834TIP3   OH2 2465   2.281   4.786   4.600 -0.0962  0.0017  0.3441
  834TIP3    H1 2466   2.313   4.726   4.668  0.3073  0.7081  0.7915
  834TIP3    H2 2467   2.270   4.870   4.645 -1.1485  0.1474 -0.1587
  835TIP3   OH2 2468   3.911   6.742   3.364  0.0547 -0.4234  1.0508
  835TIP3    H1 2469   3.996   6.760   3.404  0.4859  1.0200 -0.3783
  835TIP3    H2 2470   3.863   6.824   3.371 -0.7089 -0.8198  0.6382
  836TIP3   OH2 2471   5.498   0.758   1.151  0.0490 -0.3207 -0.0454
  836TIP3    H1 2472   5.432   0.809   1.200  0.3929  0.1147 -0.0286
  836TIP3    H2 2473   5.517   0.683   1.207  2.3051  1.4254  1.7503
  837TIP3   OH2 2474   6.428   4.457   1.940 -0.0291 -0.5935 -0.0877
  837TIP3    H1 2475   6.394   4.530   1.887 -0.5885 -1.3453 -0.7879
  837TIP3    H2 2476   6.390   4.471   2.027  2.9693  2.1480  0.9734
  838TIP3   OH2 2477   5.693   6.203   2.589  0.1185 -0.4552 -0.1895
  838TIP3    H1 2478   5.672   6.259   2.514 -0.4279 -0.9442 -0.4165
  838TIP3    H2 2479   5.751   6.136   2.553  0.3889 -0.3054 -0.0273
  839TIP3   OH2 2480   6.562   0.033   2.462  0.0729  0.0731  0.2715
  839TIP3    H1 2481   6.516   0.011   2.381  0.0586 -1.4954  0.6656
  839TIP3    H2 2482   6.655   0.026   2.440  0.0811  0.4012  0.2002
  840TIP3   OH2 2483   1.243   4.529   1.529 -0.3730 -0.0633 -0.3101
  840TIP3    H1 2484   1.161   4.576   1.541  0.1901  1.0311 -0.5911
  840TIP3    H2 2485   1.262   4.492   1.615 -1.7109 -1.3175 -0.5071
  841TIP3   OH2 2486   3.472   6.314   5.565  0.0957  0.6135  0.0999
  841TIP3    H1 2487   3.501   6.382   5.626  1.7717 -0.2498  0.3439
  841TIP3    H2 2488   3.465   6.360   5.481  2.6542  0.8813 -0.0628
  842TIP3   OH2 2489   2.073   5.694   3.866  0.3833  0.2772 -0.1813
  842TIP3    H1 2490   2.094   5.667   3.776  1.1066  0.1361  0.0226
  842TIP3    H2 2491   2.139   5.760   3.888  1.0051 -0.6045  0.6860
  843TIP3   OH2 2492   5.957   0.410   0.333  0.1796 -0.5243 -0.3793
  843TIP3    H1 2493   5.902   0.362   0.271 -1.8377  0.6944  0.3828
  843TIP3    H2 2494   5.895   0.462   0.385  1.7752 -1.3805  2.6001
  844TIP3   OH2 2495   5.744   5.305   5.538 -0.1954  0.3825  0.8062
  844TIP3    H1 2496   5.690   5.238   5.579 -0.4026 -0.0613 -0.1478
  844TIP3    H2 2497   5.696   5.329   5.459  0.5216  0.6972  0.4533
  845TIP3   OH2 2498   1.657   4.169   4.566 -0.4857  0.2597  0.4541
  845TIP3    H1 2499   1.643   4.100   4.501 -0.6409  0.9733 -0.2817
  845TIP3    H2 2500   1.571   4.209   4.578 -0.5615 -0.1740  1.4692
  846TIP3   OH2 2501   4.720   4.644   4.874  0.2360  0.1877 -0.4304
  846TIP3    H1 2502   4.795   4.699   4.850 -0.1134  0.6390 -0.4954
  846TIP3    H2 2503   4.691   4.678   4.958 -0.7819  0.9510 -1.0711
  847TIP3   OH2 2504   6.481   5.190   1.733 -0.5585 -0.3112  0.1057
  847TIP3    H1 2505   6.396   5.188   1.690  0.6802  2.0036 -2.7984
  847TIP3    H2 2506   6.467   5.240   1.813 -1.9593 -0.1459 -0.2214
  848TIP3   OH2 2507   4.901   2.375   2.651  0.0003 -0.3411 -0.0690
  848TIP3    H1 2508   4.914   2.468   2.672  0.2002 -0.4066  0.1029
  848TIP3    H2 2509   4.819   2.352   2.695 -0.3953 -0.0835 -0.6470
  849TIP3   OH2 2510   1.484   3.362   1.964 -0.4363 -0.0644  1.0222
  849TIP3    H1 2511   1.564   3.342   2.012  0.2775 -1.2381 -0.5839
  849TIP3    H2 2512   1.452   3.276   1.934 -0.5080  0.6444 -1.0848
  850TIP3   OH2 2513   5.354   5.316   2.979 -0.2741  0.2978  0.7821
  850TIP3    H1 2514   5.420   5.292   3.044 -0.5048  1.3685  1.4286
  850TIP3    H2 2515   5.323   5.232   2.945  2.6028 -0.2843 -0.8103
  851TIP3   OH2 2516   0.933   4.271   1.776  0.4199 -0.2208 -0.0353
  851TIP3    H1 2517   0.995   4.209   1.815 -0.7469  0.0806  2.4864
  851TIP3    H2 2518   0.856   4.217   1.756  0.3323 -0.0249 -0.2286
  852TIP3   OH2 2519   2.731   2.511   1.435  0.6015 -0.0212  0.4055
  852TIP3    H1 2520   2.778   2.428   1.435  0.4242 -0.1249 -0.2569
  852TIP3    H2 2521   2.645   2.491   1.471 -0.1239 -0.5407 -1.4685
  853TIP3   OH2 2522   3.142   1.349   2.927 -0.2889  0.3000  0.5417
  853TIP3    H1 2523   3.052   1.351   2.960 -0.3420  0.7885  0.3735
  853TIP3    H2 2524   3.196   1.356   3.006 -0.3970  0.0089  0.6422
  854TIP3   OH2 2525   1.500   2.691   5.894 -0.5338 -0.4154  0.7409
  854TIP3    H1 2526   1.483   2.642   5.813 -0.1128  0.7026 -0.0403
  854TIP3    H2 2527   1.533   2.625   5.955 -1.0003 -1.3054  0.0577
  855TIP3   OH2 2528   2.526   2.536   0.855  0.0270  0.2095 -0.4680
  855TIP3    H1 2529   2.469   2.482   0.909  0.7168  0.2403  0.3088
  855TIP3    H2 2530   2.568   2.474   0.795 -0.0617  0.0503 -0.3654
  856TIP3   OH2 2531   6.658   1.965   5.155 -0.7155 -1.2122  0.1860
  856TIP3    H1 2532   6.587   2.001   5.209  0.3950  0.6290  0.5201
  856TIP3    H2 2533   6.629   1.979   5.065 -0.1249  1.1730  0.2792
  857TIP3   OH2 2534   3.330   3.692   4.216 -0.2230 -0.2948  0.0318
  857TIP3    H1 2535   3.307   3.785   4.217 -0.4045 -0.1248 -3.9543
  857TIP3    H2 2536   3.412   3.686   4.264 -1.1726  1.5406  2.0189
  858TIP3   OH2 2537   4.257   6.124   5.805 -0.1552  0.2691  0.0457
  858TIP3    H1 2538   4.207   6.066   5.863 -1.2770  1.6456  0.5078
  858TIP3    H2 2539   4.269   6.072   5.725 -2.5054 -0.1050 -0.1613
  859TIP3   OH2 2540   0.280   0.842   0.622  0.3018 -0.3765 -0.2299
  859TIP3    H1 2541   0.250   0.841   0.712  0.7042 -0.1667 -0.0920
  859TIP3    H2 2542   0.374   0.825   0.627  0.2961 -0.5535 -0.6210
  860TIP3   OH2 2543   6.147   1.268   5.823 -0.2704  0.1825 -0.6315
  860TIP3    H1 2544   6.173   1.358   5.800  1.1003  0.0891  0.4023
  860TIP3    H2 2545   6.221   1.234   5.873 -1.4767 -0.9493  0.4702
  861TIP3   OH2 2546   2.398   2.517   0.267  0.2487 -0.0920 -0.4262
  861TIP3    H1 2547   2.402   2.441   0.325 -1.9233 -0.5910 -0.8302
  861TIP3    H2 2548   2.431   2.485   0.183 -1.3573 -0.8554 -0.8023
  862TIP3   OH2 2549   0.732   0.054   2.204 -0.1848 -0.0568 -0.7053
  862TIP3    H1 2550   0.733   0.141   2.243  1.3034 -0.4391  0.2108
  862TIP3    H2 2551   0.688   0.065   2.120  0.7921  1.7660 -1.0145
  863TIP3   OH2 2552   6.958   2.528   5.874  0.6222 -0.2242 -0.2549
  863TIP3    H1 2553   6.995   2.460   5.817  2.9164 -0.3437  1.2566
  863TIP3    H2 2554   7.015   2.604   5.860 -0.4908  0.6363 -0.1789
  864TIP3   OH2 2555   4.017   5.368   0.389 -0.2744  0.4122 -0.2933
  864TIP3    H1 2556   3.997   5.386   0.297  0.9614 -0.2287 -0.7122
  864TIP3    H2 2557   4.096   5.313   0.386 -0.6203 -0.2076  1.1240
  865TIP3   OH2 2558   1.023   4.741   4.731  0.5051  0.1107  0.0783
  865TIP3    H1 2559   1.102   4.692   4.710  1.2737  1.3579 -0.0087
  865TIP3    H2 2560   1.045   4.832   4.714  0.1500  0.8945  3.1329
  866TIP3   OH2 2561   1.794   0.901   0.066 -0.4480 -0.1700 -0.0540
  866TIP3    H1 2562   1.753   0.853   0.138  1.9543 -1.6305  0.4572
  866TIP3    H2 2563   1.807   0.835  -0.003  2.2456 -0.2040  0.3706
  867TIP3   OH2 2564   4.267   2.868   5.772 -0.5122 -0.7456 -0.3948
  867TIP3    H1 2565   4.177   2.895   5.755 -0.0845  1.3679  0.3995
  867TIP3    H2 2566   4.259   2.797   5.836 -1.6152 -0.3478 -0.0682
  868TIP3   OH2 2567   4.743   4.327   4.907 -0.3897 -0.4407 -0.0608
  868TIP3    H1 2568   4.763   4.417   4.880 -0.4457 -0.5023 -0.3085
  868TIP3    H2 2569   4.828   4.286   4.920 -0.3246 -0.7820 -1.3682
  869TIP3   OH2 2570   6.589   3.444   4.163  0.4161 -0.0186 -0.1486
  869TIP3    H1 2571   6.532   3.514   4.130  0.2841 -1.0402 -2.2844
  869TIP3    H2 2572   6.636   3.413   4.085 -1.0328 -3.6790  0.2236
  870TIP3   OH2 2573   2.508   4.628   2.421  0.0893 -0.2871  0.1319
  870TIP3    H1 2574   2.582   4.569   2.408  0.7870  0.7889 -1.0376
  870TIP3    H2 2575   2.543   4.715   2.398 -1.2644  0.3853  0.5235
  871TIP3   OH2 2576   2.518   5.399   1.418  0.1754 -0.0475  0.0496
  871TIP3    H1 2577   2.485   5.317   1.382  0.3242 -0.1679  0.1881
  871TIP3    H2 2578   2.445   5.434   1.469  0.2724 -0.3366  0.3937
  872TIP3   OH2 2579   6.463   4.798   1.496 -1.0587 -0.3331  0.3866
  872TIP3    H1 2580   6.416   4.820   1.416 -0.0236  1.3649  0.2096
  872TIP3    H2 2581   6.420   4.849   1.565 -1.0263 -0.6688  0.6604
  873TIP3   OH2 2582   2.642   2.489   2.560  0.1836  0.1169 -0.3177
  873TIP3    H1 2583   2.684   2.531   2.635 -0.6707  0.6002 -0.0985
  873TIP3    H2 2584   2.670   2.398   2.564  1.3726  0.4666 -0.2990
  874TIP3   OH2 2585   6.189   4.918   3.358  0.2974 -0.1090 -0.6104
  874TIP3    H1 2586   6.204   4.939   3.450 -1.8949 -1.9650  0.2452
  874TIP3    H2 2587   6.265   4.955   3.313  0.7462  2.1119  1.7143
  875TIP3   OH2 2588   5.097   3.801   5.469  0.0880  0.0516 -0.2403
  875TIP3    H1 2589   5.004   3.815   5.486  0.3529  0.6151  0.8178
  875TIP3    H2 2590   5.104   3.802   5.373 -0.8798  0.7866 -0.3191
  876TIP3   OH2 2591   3.103   1.862   4.512  0.6164  0.3931 -0.3814
  876TIP3    H1 2592   3.157   1.940   4.499 -0.0242  0.9811  0.3724
  876TIP3    H2 2593   3.126   1.832   4.600  2.2133 -1.3859 -1.3123
  877TIP3   OH2 2594   0.342   1.502   5.890 -0.4920 -0.3223  0.0762
  877TIP3    H1 2595   0.255   1.522   5.855 -1.1502 -0.3463  1.6088
  877TIP3    H2 2596   0.383   1.587   5.903 -0.2667 -0.3120 -0.6755
  878TIP3   OH2 2597   3.196   0.513   1.092  0.0561  0.4062 -0.0947
  878TIP3    H1 2598   3.165   0.599   1.064  0.5725  0.2229 -1.3180
  878TIP3    H2 2599   3.178   0.456   1.018 -0.5393 -0.6164  0.8137
  879TIP3   OH2 2600   5.353   3.541   4.778  0.0226 -0.6953  0.2025
  879TIP3    H1 2601   5.425   3.480   4.789 -1.0078 -1.7917  1.1418
  879TIP3    H2 2602   5.274   3.486   4.778 -0.8984  0.5667  0.4808
  880TIP3   OH2 2603   4.782   2.905   5.133  0.7113 -0.2326  0.2695
  880TIP3    H1 2604   4.842   2.935   5.202  1.0609  1.6785 -0.7833
  880TIP3    H2 2605   4.823   2.935   5.051 -0.3330 -1.3052 -0.6822
  881TIP3   OH2 2606   5.697   2.783   4.684  0.5268 -0.7521 -0.3500
  881TIP3    H1 2607   5.602   2.789   4.698  0.3765 -2.0015 -0.7534
  881TIP3    H2 2608   5.712   2.838   4.607  0.1928 -0.2444 -0.0620
  882TIP3   OH2 2609   3.436   5.674   2.387  0.4060  0.6119 -0.3925
  882TIP3    H1 2610   3.528   5.697   2.401  0.1230  1.0411  0.9351
  882TIP3    H2 2611   3.389   5.725   2.453 -0.8100  0.5635 -1.1993
  883TIP3   OH2 2612   1.830   0.092   1.755  0.2252 -0.1886  0.4729
  883TIP3    H1 2613   1.903   0.095   1.817  0.8348 -1.3287 -0.1497
  883TIP3    H2 2614   1.871   0.074   1.671 -0.8417 -1.8695  0.2712
  884TIP3   OH2 2615   1.961   4.632   3.993  0.2173 -0.1483  0.2512
  884TIP3    H1 2616   1.918   4.616   4.077 -0.1140 -0.0953  0.0941
  884TIP3    H2 2617   1.965   4.727   3.986 -3.1608  0.0176 -1.4613
  885TIP3   OH2 2618   5.437   4.012   0.529  0.6912  0.1811  0.0809
  885TIP3    H1 2619   5.452   4.094   0.576 -1.5332 -0.2858  1.8254
  885TIP3    H2 2620   5.357   4.028   0.479  1.4793 -0.2560 -1.3754
  886TIP3   OH2 2621   0.902   1.594   0.867  0.1438 -0.2191 -0.4854
  886TIP3    H1 2622   0.893   1.615   0.774 -2.0115 -1.4626 -0.6268
  886TIP3    H2 2623   0.954   1.513   0.869 -1.7714 -1.5231 -0.8431
  887TIP3   OH2 2624   5.645  -0.022   5.120 -0.1038  0.3589 -0.3831
  887TIP3    H1 2625   5.735  -0.012   5.151 -0.2690  1.3241 -0.1735
  887TIP3    H2 2626   5.595   0.040   5.172 -0.8635 -0.0200 -0.6421
  888TIP3   OH2 2627   1.766   3.370   2.662  0.5622  0.0628  0.9897
  888TIP3    H1 2628   1.705   3.434   2.623  0.0716 -0.7698  0.3439
  888TIP3    H2 2629   1.850   3.414   2.662  0.7070 -0.0542 -1.5602
  889TIP3   OH2 2630   1.860   1.712   0.247  0.0956  0.7491 -0.2416
  889TIP3    H1 2631   1.870   1.698   0.341  1.5021  0.3456 -0.4246
  889TIP3    H2 2632   1.900   1.635   0.207 -0.1215  1.1088 -1.1821
  890TIP3   OH2 2633   4.035   2.810   1.193 -0.8290 -0.2494 -0.0191
  890TIP3    H1 2634   3.995   2.891   1.224 -0.7142  0.7439 -2.2737
  890TIP3    H2 2635   3.988   2.741   1.239 -0.0918  1.0502  2.9429
  891TIP3   OH2 2636   5.844   0.186   4.642  0.1248  0.3272  0.7265
  891TIP3    H1 2637   5.832   0.098   4.606 -0.3343  0.1255  1.3589
  891TIP3    H2 2638   5.815   0.179   4.733  2.8937  0.4002  1.7034
  892TIP3   OH2 2639   2.388   3.074   1.404 -0.1049  0.7877 -0.0711
  892TIP3    H1 2640   2.311   3.104   1.355  0.2267  0.4519 -0.8135
  892TIP3    H2 2641   2.463   3.106   1.353  0.2838 -1.5869 -1.1248
  893TIP3   OH2 2642   6.821   1.114   4.224  0.2847  0.3857  0.0446
  893TIP3    H1 2643   6.820   1.188   4.284  0.6877  1.2598 -0.9798
  893TIP3    H2 2644   6.897   1.131   4.168  0.7033 -1.0909  0.1283
  894TIP3   OH2 2645   5.721   3.952   0.393  0.3038 -0.1703  0.0853
  894TIP3    H1 2646   5.709   3.975   0.485  0.4084  2.0234 -0.3760
  894TIP3    H2 2647   5.705   4.034   0.346  1.9620 -0.7814 -1.7072
  895TIP3   OH2 2648   0.869   2.709   4.335 -0.2217  0.2170  0.6002
  895TIP3    H1 2649   0.790   2.673   4.296  0.8271 -1.7492  0.1711
  895TIP3    H2 2650   0.838   2.760   4.410 -1.8129 -1.8418  1.4502
  896TIP3   OH2 2651   5.756   4.962   2.696 -0.1378  0.9052 -0.2621
  896TIP3    H1 2652   5.747   4.959   2.791  0.4181 -0.0375 -0.2277
  896TIP3    H2 2653   5.719   4.879   2.666 -1.2312  1.6147 -0.9642
  897TIP3   OH2 2654   4.181   4.339   1.856 -0.7003  0.2409  0.4281
  897TIP3    H1 2655   4.220   4.285   1.787  0.4752  1.1845  0.3118
  897TIP3    H2 2656   4.114   4.283   1.895 -0.2771 -0.8955 -0.3972
  898TIP3   OH2 2657   5.959   2.908   2.834  0.6407  0.0713  0.6952
  898TIP3    H1 2658   5.915   2.872   2.910 -0.7741 -0.4887 -0.3400
  898TIP3    H2 2659   5.902   2.885   2.760  1.7868  0.8817 -0.4904
  899TIP3   OH2 2660   3.914   5.676   1.484 -0.0794 -0.1457  0.5165
  899TIP3    H1 2661   3.975   5.672   1.558  0.0003  1.7446  0.6033
  899TIP3    H2 2662   3.933   5.598   1.433  2.7624  0.5911  0.3056
  900TIP3   OH2 2663   2.929   1.235   2.007 -0.3479 -0.0741 -0.0535
  900TIP3    H1 2664   2.880   1.227   2.089 -0.4593 -0.7629 -0.1794
  900TIP3    H2 2665   2.890   1.310   1.963 -2.6507 -1.7160 -1.0290
  901TIP3   OH2 2666   5.547   2.344   5.264 -0.6062 -0.3490  0.2524
  901TIP3    H1 2667   5.576   2.374   5.178  0.2369  1.1803  1.0309
  901TIP3    H2 2668   5.526   2.424   5.312 -0.0538 -1.0906  1.8190
  902TIP3   OH2 2669   2.778   0.612   4.345  0.1253 -0.5241  0.6266
  902TIP3    H1 2670   2.696   0.662   4.349  0.8874  0.8600 -0.3004
  902TIP3    H2 2671   2.770   0.557   4.267  0.4726  0.3642 -0.0460
  903TIP3   OH2 2672   2.564   6.741   4.071  0.4006  0.6335  0.0952
  903TIP3    H1 2673   2.590   6.808   4.008  1.7812 -2.0238 -2.3782
  903TIP3    H2 2674   2.469   6.753   4.081  0.4556  2.3345 -0.9322
  904TIP3   OH2 2675   4.513   5.639   2.216  0.4869  0.0674 -0.1420
  904TIP3    H1 2676   4.421   5.615   2.215  0.5478 -0.1690 -0.5436
  904TIP3    H2 2677   4.530   5.669   2.126  0.5040  1.2639  0.2454
  905TIP3   OH2 2678   1.060   1.842   3.952  0.0765  0.0621 -0.3081
  905TIP3    H1 2679   1.078   1.763   4.003 -0.2202  0.1487 -0.0668
  905TIP3    H2 2680   0.999   1.814   3.884 -0.2954  0.1502 -0.0167
  906TIP3   OH2 2681   5.996   2.413   4.237  0.1403  0.0554 -0.2406
  906TIP3    H1 2682   5.993   2.429   4.331 -1.7703 -0.0973 -0.2430
  906TIP3    H2 2683   6.040   2.328   4.228  2.6090  1.1703  0.2946
  907TIP3   OH2 2684   0.165   4.016   2.234 -0.0498 -0.0583 -0.0466
  907TIP3    H1 2685   0.228   4.072   2.279  1.3669 -1.0915 -0.6532
  907TIP3    H2 2686   0.173   3.932   2.279  0.8543 -0.9038 -1.6788
  908TIP3   OH2 2687   5.572   5.898   0.729  0.6267  0.1794  0.2105
  908TIP3    H1 2688   5.568   5.919   0.636  0.5139  0.4845  0.2829
  908TIP3    H2 2689   5.665   5.893   0.748  0.6786 -2.1268 -0.4103
  909TIP3   OH2 2690   6.803   3.326  -0.003 -0.5051  0.3519 -0.2770
  909TIP3    H1 2691   6.850   3.248  -0.031 -0.3018  0.4258 -0.1405
  909TIP3    H2 2692   6.835   3.344   0.086  0.2430  1.2106 -0.7084
  910TIP3   OH2 2693   1.722   0.547   4.767 -0.2162  0.7673  0.4911
  910TIP3    H1 2694   1.642   0.502   4.794 -0.0577  0.5267  0.5612
  910TIP3    H2 2695   1.785   0.477   4.754  0.4742  1.0497  2.0767
  911TIP3   OH2 2696   4.440   0.262   4.113 -0.1490  0.1034  0.0210
  911TIP3    H1 2697   4.438   0.236   4.205  0.3144  0.1888  0.0591
  911TIP3    H2 2698   4.432   0.357   4.115 -0.8390  0.0506 -0.0663
  912TIP3   OH2 2699   2.351   0.618   5.281 -0.3860 -0.1644  0.8305
  912TIP3    H1 2700   2.342   0.699   5.231 -0.3768 -0.4474  0.3622
  912TIP3    H2 2701   2.384   0.555   5.218  0.7833 -0.2335  1.4811
  913TIP3   OH2 2702   0.040   5.044   0.333 -0.3066 -0.1320  0.2112
  913TIP3    H1 2703   0.102   5.056   0.261 -0.5116  0.9257  0.1895
  913TIP3    H2 2704  -0.018   5.120   0.327 -1.3259 -0.8745  0.5091
  914TIP3   OH2 2705   5.204   4.775   2.468  0.1534 -0.7023 -0.2957
  914TIP3    H1 2706   5.136   4.737   2.412  0.5611  1.0590 -2.1032
  914TIP3    H2 2707   5.157   4.838   2.523  0.3052  0.9750 -1.9779
  915TIP3   OH2 2708   2.735   0.697   2.519  0.6604  0.5788  0.0692
  915TIP3    H1 2709   2.654   0.744   2.537 -1.2497 -1.4724 -2.4592
  915TIP3    H2 2710   2.745   0.637   2.593  1.7499  2.9625  2.0207
  916TIP3   OH2 2711   0.376   3.259   0.932  0.1899 -0.0052 -0.6147
  916TIP3    H1 2712   0.399   3.307   1.011  0.7854  0.7538 -1.2397
  916TIP3    H2 2713   0.302   3.204   0.959  1.6014 -1.2530  0.9821
  917TIP3   OH2 2714   7.129   0.015   0.727 -0.1766  0.0838  0.3533
  917TIP3    H1 2715   7.043   0.029   0.766 -1.3600  0.1734 -2.1371
  917TIP3    H2 2716   7.173   0.100   0.734 -0.1164 -0.0461  1.9164
  918TIP3   OH2 2717   2.582   4.561   4.577  0.3262 -0.2246  0.4151
  918TIP3    H1 2718   2.577   4.517   4.661 -0.8798  0.3567  0.6726
  918TIP3    H2 2719   2.585   4.654   4.598 -0.2182 -0.0603 -0.1819
  919TIP3   OH2 2720   0.447   0.111   3.188 -0.2905 -0.6501 -0.5093
  919TIP3    H1 2721   0.411   0.154   3.110 -1.4463 -2.3142 -0.9402
  919TIP3    H2 2722   0.515   0.053   3.154 -0.8484 -1.4341 -0.3163
  920TIP3   OH2 2723   0.358   6.510   5.693 -0.1103  0.5269 -0.3966
  920TIP3    H1 2724   0.287   6.572   5.680 -0.4893  0.2911  0.4573
  920TIP3    H2 2725   0.438   6.563   5.684 -0.4193  1.0304 -0.2179
  921TIP3   OH2 2726   4.154   0.470   0.219 -0.1054  0.5019 -0.2349
  921TIP3    H1 2727   4.096   0.506   0.152 -1.3132 -0.2388  0.3854
  921TIP3    H2 2728   4.169   0.379   0.192  0.5170  0.5918 -0.2172
  922TIP3   OH2 2729   6.793   1.706   2.405  0.1961 -0.0506  0.2862
  922TIP3    H1 2730   6.742   1.692   2.325  0.0853 -0.3004  0.3978
  922TIP3    H2 2731   6.876   1.662   2.388 -0.4321 -1.5519  0.9248
  923TIP3   OH2 2732   3.000   4.925   0.133 -0.3032  0.5867 -0.1239
  923TIP3    H1 2733   2.926   4.871   0.104 -0.6468  0.5862  0.7172
  923TIP3    H2 2734   3.045   4.949   0.052  0.0174 -1.1845 -0.5166
  924TIP3   OH2 2735   2.013   4.785   2.559  0.1901 -0.5950  0.2363
  924TIP3    H1 2736   2.106   4.779   2.535  0.0282 -1.4823 -0.2178
  924TIP3    H2 2737   1.993   4.878   2.553  0.7526 -0.5292 -0.8158
  925TIP3   OH2 2738   6.917   2.901   2.035 -0.1726 -0.0127 -0.5929
  925TIP3    H1 2739   6.908   2.854   1.952 -0.7503 -0.4290 -0.3052
  925TIP3    H2 2740   6.950   2.987   2.011  0.9905 -0.5913 -1.1244
  926TIP3   OH2 2741   6.682   1.526   5.080 -0.1480  0.3123 -0.2730
  926TIP3    H1 2742   6.713   1.461   5.142  0.0246  2.3931  1.9754
  926TIP3    H2 2743   6.761   1.554   5.033 -0.2166 -0.9939 -1.2015
  927TIP3   OH2 2744   2.195   5.284   5.266 -0.0943  0.2443 -0.0366
  927TIP3    H1 2745   2.118   5.228   5.260 -0.4668  0.7633 -0.1614
  927TIP3    H2 2746   2.216   5.286   5.360 -1.6940  2.0207  0.3553
  928TIP3   OH2 2747   6.986   0.627   0.278  0.3362  0.3826  0.0263
  928TIP3    H1 2748   6.980   0.650   0.185 -3.2895 -1.7296 -0.4351
  928TIP3    H2 2749   6.956   0.705   0.324 -2.6557 -0.0715 -0.9662
  929TIP3   OH2 2750   5.486   3.877   0.810 -0.3520  0.2997 -0.6490
  929TIP3    H1 2751   5.569   3.923   0.825  0.0883 -0.5670 -0.3405
  929TIP3    H2 2752   5.478   3.818   0.885 -0.9175 -0.1023 -1.0232
  930TIP3   OH2 2753   6.604   0.652   2.152 -0.4329  0.0143 -0.4981
  930TIP3    H1 2754   6.539   0.651   2.222  0.2612 -2.1992  0.1771
  930TIP3    H2 2755   6.650   0.735   2.165  1.1991 -1.2564  3.2094
  931TIP3   OH2 2756   1.681   0.702   0.811 -0.1095  0.7973 -0.2248
  931TIP3    H1 2757   1.741   0.777   0.806 -1.2247  1.7798  0.6037
  931TIP3    H2 2758   1.731   0.629   0.775  0.9639  1.9642 -1.1725
  932TIP3   OH2 2759   6.904   5.154   5.048 -0.2069 -0.2299  0.2267
  932TIP3    H1 2760   6.969   5.210   5.091  1.7966 -1.8486 -0.4840
  932TIP3    H2 2761   6.954   5.077   5.021 -2.1544 -0.9056 -1.7413
  933TIP3   OH2 2762   1.096   1.419   0.556  0.3054 -0.1775  0.2237
  933TIP3    H1 2763   1.177   1.463   0.531 -1.2285  3.0806  0.5323
  933TIP3    H2 2764   1.091   1.427   0.651  0.1154 -1.3631  0.3384
  934TIP3   OH2 2765   6.331   4.678   2.610  0.1281 -0.0072  1.2056
  934TIP3    H1 2766   6.424   4.684   2.588 -0.0947 -0.2216  0.1334
  934TIP3    H2 2767   6.328   4.693   2.705  1.3109 -0.5754  1.3585
  935TIP3   OH2 2768   1.148   2.439   2.463 -0.2106  0.1295  0.1493
  935TIP3    H1 2769   1.073   2.499   2.472  0.0806  0.3870  0.9052
  935TIP3    H2 2770   1.183   2.431   2.552  0.0134 -0.8321 -0.0183
  936TIP3   OH2 2771   6.512   4.797   4.881 -0.0879 -0.0298  0.7534
  936TIP3    H1 2772   6.445   4.860   4.908 -0.6946 -0.6532  0.7209
  936TIP3    H2 2773   6.592   4.849   4.876 -0.1004  0.2893  2.9590
  937TIP3   OH2 2774   3.195   0.196   1.598  0.0460  0.2590  0.3865
  937TIP3    H1 2775   3.210   0.134   1.670 -0.7884 -0.8041 -0.3204
  937TIP3    H2 2776   3.106   0.227   1.611 -0.4498 -0.6395 -0.6687
  938TIP3   OH2 2777   4.286   1.733   5.205  0.3894 -0.0134 -0.1892
  938TIP3    H1 2778   4.205   1.686   5.184  0.4597  0.5339 -1.7914
  938TIP3    H2 2779   4.351   1.696   5.146  0.1326  2.9661 -2.5519
  939TIP3   OH2 2780   5.008   4.765   5.064  0.5792  0.5192 -0.8543
  939TIP3    H1 2781   4.963   4.697   5.115  0.5527 -0.2212 -1.8497
  939TIP3    H2 2782   5.002   4.843   5.119  0.5511 -0.2549  0.2851
  940TIP3   OH2 2783   0.785   3.477   3.459 -0.7557 -0.4338  0.0637
  940TIP3    H1 2784   0.816   3.401   3.410 -0.3624  0.4564 -1.0980
  940TIP3    H2 2785   0.756   3.539   3.392  1.7099  1.6638  0.8036
  941TIP3   OH2 2786   6.542   3.377   3.105 -0.2261  0.0295 -0.7621
  941TIP3    H1 2787   6.491   3.303   3.071 -0.6427  0.1457 -0.4071
  941TIP3    H2 2788   6.484   3.417   3.170  0.4456 -0.0191 -0.1273
  942TIP3   OH2 2789   5.336   2.120   1.432  0.1935 -0.4243  0.0840
  942TIP3    H1 2790   5.249   2.079   1.426 -0.3726  0.9019 -1.2128
  942TIP3    H2 2791   5.363   2.102   1.522 -0.9314 -1.8083  0.1955
  943TIP3   OH2 2792   5.901   2.179   0.891 -0.2470  0.0830  0.2299
  943TIP3    H1 2793   5.918   2.124   0.815 -0.4458  0.7529 -0.3181
  943TIP3    H2 2794   5.808   2.165   0.910 -0.2102 -0.0430  0.3164
  944TIP3   OH2 2795   5.257   6.007   4.174  0.4000 -0.0360 -0.4944
  944TIP3    H1 2796   5.169   6.023   4.140  0.8559  3.2264 -0.4766
  944TIP3    H2 2797   5.306   5.972   4.100 -0.5732 -0.5845 -0.8891
  945TIP3   OH2 2798   5.724   0.533   5.708  0.1094 -0.0372 -1.4113
  945TIP3    H1 2799   5.812   0.500   5.726  0.7714  1.5014 -1.6519
  945TIP3    H2 2800   5.669   0.494   5.776  1.0900 -0.5326 -0.8839
  946TIP3   OH2 2801   0.532   0.184   4.526 -0.1350  0.4511  0.3422
  946TIP3    H1 2802   0.547   0.235   4.446 -2.0417  1.3529  0.4922
  946TIP3    H2 2803   0.522   0.094   4.496 -1.3386  0.8496 -0.5334
  947TIP3   OH2 2804   5.744   1.479   5.095  0.1849 -0.0632  0.3409
  947TIP3    H1 2805   5.709   1.568   5.090  1.2011  0.4641  1.8352
  947TIP3    H2 2806   5.835   1.488   5.069  1.0825 -0.0884  3.1403
  948TIP3   OH2 2807   6.065   5.364   0.764 -0.3640 -0.0238 -0.3438
  948TIP3    H1 2808   6.064   5.268   0.765  0.6729 -0.1330  3.0827
  948TIP3    H2 2809   6.151   5.386   0.726  1.0339 -0.6837  2.1944
  949TIP3   OH2 2810   0.062   5.967   5.464 -0.1659  0.6017 -0.7222
  949TIP3    H1 2811   0.057   5.872   5.467  1.9247  0.4257 -1.4764
  949TIP3    H2 2812  -0.001   5.992   5.396  0.2020 -0.3649 -1.4455
  950TIP3   OH2 2813   0.573   1.667   1.243 -0.5580 -0.3539  0.3512
  950TIP3    H1 2814   0.662   1.695   1.261 -0.0875 -1.9599  0.6559
  950TIP3    H2 2815   0.548   1.715   1.164  0.1209  1.0052  0.9287
  951TIP3   OH2 2816   2.083   3.137   0.736  0.0347 -0.0948  0.1069
  951TIP3    H1 2817   2.090   3.221   0.692  0.6571 -0.9843 -1.5997
  951TIP3    H2 2818   2.157   3.086   0.702 -1.7721 -2.2030 -0.9104
  952TIP3   OH2 2819   6.358   1.553   3.137  0.6674 -0.4929  0.7327
  952TIP3    H1 2820   6.363   1.501   3.217 -0.5687 -0.6846  0.6999
  952TIP3    H2 2821   6.315   1.634   3.164  1.1131 -0.1589  0.4506
  953TIP3   OH2 2822   5.703   4.789   1.768 -0.5842  0.3007 -0.1911
  953TIP3    H1 2823   5.741   4.857   1.824 -1.4152  0.9611 -0.4050
  953TIP3    H2 2824   5.778   4.742   1.733  0.1114  1.9987 -1.1345
  954TIP3   OH2 2825   1.346   6.041   3.002  0.2034 -0.2487  0.5905
  954TIP3    H1 2826   1.321   6.070   2.914  2.6165  0.8580  0.2065
  954TIP3    H2 2827   1.326   5.947   3.002 -0.1814 -0.1990 -1.0218
  955TIP3   OH2 2828   3.367   2.264   1.111 -0.1167 -0.7214 -0.1399
  955TIP3    H1 2829   3.347   2.302   1.025  1.7640 -1.1074 -0.7979
  955TIP3    H2 2830   3.297   2.201   1.126  0.0813 -1.4163 -1.9044
  956TIP3   OH2 2831   0.004   0.418   0.342 -0.0207  0.4570 -0.5509
  956TIP3    H1 2832   0.079   0.439   0.396 -0.3670  1.3341 -0.3945
  956TIP3    H2 2833  -0.026   0.503   0.309 -0.8129  0.0974 -0.7752
  957TIP3   OH2 2834   3.587   3.182   3.028 -0.1753  0.2435  0.5179
  957TIP3    H1 2835   3.626   3.228   3.102  0.1313  1.4740 -0.3920
  957TIP3    H2 2836   3.557   3.251   2.969 -1.9300 -0.6930  0.2454
  958TIP3   OH2 2837   2.874   4.749   1.588 -0.1601  0.5556  0.0846
  958TIP3    H1 2838   2.902   4.831   1.628  2.5976  1.3604 -3.0578
  958TIP3    H2 2839   2.954   4.697   1.580 -1.7520 -2.4184  1.6644
  959TIP3   OH2 2840   4.656   5.425   0.075 -0.4343 -1.0895  0.2346
  959TIP3    H1 2841   4.620   5.505   0.036  0.1648 -1.3187 -0.8570
  959TIP3    H2 2842   4.725   5.456   0.134  0.4470 -0.7982 -0.8979
  960TIP3   OH2 2843   6.214   0.974   1.656  0.1301 -0.3371  0.1175
  960TIP3    H1 2844   6.259   0.963   1.741 -0.6520 -0.1754  0.5603
  960TIP3    H2 2845   6.173   1.059   1.662 -0.5307 -0.6343 -0.1522
  961TIP3   OH2 2846   1.667   5.924   1.818  0.9281  0.4801 -0.1629
  961TIP3    H1 2847   1.723   5.860   1.862  0.8218  0.7044  0.2950
  961TIP3    H2 2848   1.585   5.876   1.801  0.6361  0.6675  0.7013
  962TIP3   OH2 2849   4.098   4.128   5.045  0.1793  0.1297  0.1911
  962TIP3    H1 2850   4.159   4.189   5.086  0.8408 -1.1032  1.1378
  962TIP3    H2 2851   4.153   4.055   5.017 -0.6866 -0.4012 -0.1658
  963TIP3   OH2 2852   5.237   0.113   2.254  0.2062  0.0831  0.6248
  963TIP3    H1 2853   5.243   0.024   2.288  0.9462  0.0496  0.4221
  963TIP3    H2 2854   5.163   0.152   2.301 -0.9962 -1.0465 -0.2345
  964TIP3   OH2 2855   5.731   6.115   2.307  0.0912  0.5165 -0.0060
  964TIP3    H1 2856   5.805   6.073   2.264 -0.1677  1.9188 -2.0115
  964TIP3    H2 2857   5.666   6.045   2.318  1.3255 -0.5212  0.9277
  965TIP3   OH2 2858   0.438   5.248   5.216 -0.2270 -0.3982 -0.0580
  965TIP3    H1 2859   0.513   5.202   5.253  1.0098  0.8909 -0.8468
  965TIP3    H2 2860   0.429   5.212   5.128 -0.8355 -0.8778  0.1984
  966TIP3   OH2 2861   1.858   3.866   0.485 -0.5911  0.5203  0.8995
  966TIP3    H1 2862   1.939   3.895   0.443  0.5038 -2.4004  0.7706
  966TIP3    H2 2863   1.791   3.878   0.418  0.3320  0.1189 -0.1334
  967TIP3   OH2 2864   6.239   2.167   2.541  0.1179  0.6049  0.0751
  967TIP3    H1 2865   6.290   2.241   2.573  0.9901  0.2923 -0.5412
  967TIP3    H2 2866   6.297   2.091   2.551 -0.8992 -0.0726  1.0599
  968TIP3   OH2 2867   2.930   6.390   3.608 -1.2353  0.6264 -0.2641
  968TIP3    H1 2868   2.990   6.464   3.609 -0.7735  0.2594  0.5091
  968TIP3    H2 2869   2.872   6.406   3.534 -0.6057  1.3285 -0.6116
  969TIP3   OH2 2870   0.999   0.642   3.481  0.6156  0.3043 -0.1574
  969TIP3    H1 2871   0.978   0.655   3.389  0.7974  1.8139 -0.0155
  969TIP3    H2 2872   0.996   0.730   3.519  0.3983 -0.2969  1.3093
  970TIP3   OH2 2873   4.102   6.740   5.826 -0.3696  0.0480  0.8010
  970TIP3    H1 2874   4.036   6.736   5.757  0.2759  0.9125  0.1174
  970TIP3    H2 2875   4.111   6.833   5.846 -1.4159 -0.2432  2.9287
  971TIP3   OH2 2876   1.958   6.309   5.668 -0.3922 -0.3768  0.0151
  971TIP3    H1 2877   2.026   6.247   5.642 -1.0973 -2.1695  2.1452
  971TIP3    H2 2878   1.876   6.268   5.638 -0.7665  0.2741  0.1240
  972TIP3   OH2 2879   6.868   1.151   4.756  0.3239  0.3656  0.6511
  972TIP3    H1 2880   6.865   1.247   4.756  2.2093  0.4914 -1.1094
  972TIP3    H2 2881   6.832   1.126   4.841  0.3219  2.6531  1.3938
  973TIP3   OH2 2882   5.589   5.550   3.902 -0.5979  0.1017  0.2272
  973TIP3    H1 2883   5.495   5.531   3.897 -0.5260 -0.1249 -0.3006
  973TIP3    H2 2884   5.627   5.474   3.945 -0.5375 -0.2214 -0.3827
  974TIP3   OH2 2885   7.177   6.011   3.205 -0.9385  0.1429  0.4345
  974TIP3    H1 2886   7.093   6.054   3.217 -0.8074  0.1297  1.5536
  974TIP3    H2 2887   7.202   5.983   3.293  0.9089  1.4352  0.3819
  975TIP3   OH2 2888   4.172   4.984   2.118  0.0592 -0.4919 -0.2082
  975TIP3    H1 2889   4.202   5.011   2.205 -3.2688 -0.1596  1.0054
  975TIP3    H2 2890   4.201   4.894   2.110  0.8362 -0.3869  1.0548
  976TIP3   OH2 2891   5.238   6.539   2.217 -0.1190 -0.0667  0.6204
  976TIP3    H1 2892   5.268   6.466   2.272 -1.5097  0.2140  1.8082
  976TIP3    H2 2893   5.143   6.533   2.219 -0.2659  1.7512  0.7108
  977TIP3   OH2 2894   7.169   2.036   1.003  0.5819 -0.1716 -0.3394
  977TIP3    H1 2895   7.206   2.035   1.091  1.1300  0.0925 -0.5651
  977TIP3    H2 2896   7.238   2.000   0.948 -0.2060 -1.5176 -0.4944
  978TIP3   OH2 2897   3.966   5.796   2.465 -0.0444 -0.2980  0.0013
  978TIP3    H1 2898   3.981   5.753   2.549 -1.6382  0.7998  0.9038
  978TIP3    H2 2899   4.036   5.861   2.459 -0.2123 -0.0446  0.7258
  979TIP3   OH2 2900   1.749   0.840   4.240 -0.0190  0.1371  0.0202
  979TIP3    H1 2901   1.841   0.860   4.225  0.2196  0.2018  1.4093
  979TIP3    H2 2902   1.742   0.746   4.224  0.0867  0.2861 -0.9485
  980TIP3   OH2 2903   7.051   3.360   5.065  0.5392 -0.0010  0.3587
  980TIP3    H1 2904   7.133   3.389   5.026  1.2023 -0.8126  1.1016
  980TIP3    H2 2905   7.020   3.435   5.116  0.1250  0.7580 -0.9733
  981TIP3   OH2 2906   3.757   4.758   2.163  0.2058 -0.2678 -0.5964
  981TIP3    H1 2907   3.804   4.801   2.092 -0.2179  0.5655 -0.3793
  981TIP3    H2 2908   3.790   4.799   2.243 -2.1171  1.6728 -0.5027
  982TIP3   OH2 2909   3.236   4.517   5.506 -0.5387 -0.2901  0.5904
  982TIP3    H1 2910   3.141   4.522   5.497 -0.6267  0.3195  1.6536
  982TIP3    H2 2911   3.261   4.602   5.542  0.8142  0.8291 -2.6089
  983TIP3   OH2 2912   3.820   4.787   1.332  0.3485 -0.1826  0.1824
  983TIP3    H1 2913   3.826   4.882   1.322  4.2587 -0.2306  0.4986
  983TIP3    H2 2914   3.817   4.772   1.427 -2.2003 -0.4313  0.1280
  984TIP3   OH2 2915   2.526   5.713   5.176 -0.5178 -0.0234 -0.3837
  984TIP3    H1 2916   2.459   5.774   5.206  0.2068  0.4189  0.3798
  984TIP3    H2 2917   2.511   5.705   5.082 -1.5833  0.1322 -0.2350
  985TIP3   OH2 2918   6.999   3.776   1.611  0.7018  0.6209  0.1287
  985TIP3    H1 2919   7.040   3.769   1.697 -0.6055 -1.4700  0.6644
  985TIP3    H2 2920   7.072   3.785   1.550  2.0868 -2.7759  1.0546
  986TIP3   OH2 2921   2.414   0.442   4.311  0.1374  0.6990 -0.4144
  986TIP3    H1 2922   2.498   0.444   4.265  0.0866 -0.2961 -0.5660
  986TIP3    H2 2923   2.387   0.534   4.314  0.9509  0.9681 -0.8736
  987TIP3   OH2 2924   4.459   5.984   4.213  0.1495  0.1471 -0.2003
  987TIP3    H1 2925   4.549   5.962   4.191  0.2406 -0.5283  0.7849
  987TIP3    H2 2926   4.425   5.906   4.257 -1.1421  0.1264 -1.1631
  988TIP3   OH2 2927   3.242   4.011   5.444 -0.0587 -0.4718  0.1777
  988TIP3    H1 2928   3.277   4.036   5.359 -0.2845 -1.4742 -0.2240
  988TIP3    H2 2929   3.158   3.969   5.424 -0.9694  0.8833  1.0354
  989TIP3   OH2 2930   3.279   5.041   5.747 -0.4468  0.0670 -0.6931
  989TIP3    H1 2931   3.219   5.039   5.822 -0.5103  0.1094 -0.7428
  989TIP3    H2 2932   3.332   5.120   5.761 -0.0185 -0.2710 -0.3514
  990TIP3   OH2 2933   2.250   4.134   1.637 -0.6262 -0.3477 -0.0057
  990TIP3    H1 2934   2.172   4.096   1.596 -0.6108  0.1482 -0.5080
  990TIP3    H2 2935   2.251   4.098   1.725 -2.4422  1.0401  0.6452
  991TIP3   OH2 2936   6.842   3.400   2.306 -0.2348 -0.7739 -0.5263
  991TIP3    H1 2937   6.933   3.408   2.335  0.0723 -1.3673 -1.2876
  991TIP3    H2 2938   6.790   3.405   2.386  0.6126 -2.8004  0.2324
  992TIP3   OH2 2939   2.118   5.114   1.545  0.0084 -0.7787 -0.5701
  992TIP3    H1 2940   2.061   5.091   1.618  0.2562  0.6163  0.1165
  992TIP3    H2 2941   2.173   5.037   1.531 -0.5818 -1.3465  0.2044
  993TIP3   OH2 2942   7.075   5.706   4.636  0.1207  0.2306 -0.1285
  993TIP3    H1 2943   7.013   5.674   4.570  0.1637 -2.1415  0.8587
  993TIP3    H2 2944   7.066   5.801   4.634 -3.6561  0.0233  0.0307
  994TIP3   OH2 2945   1.700   0.578   4.353 -0.9632  0.0188  0.3062
  994TIP3    H1 2946   1.747   0.508   4.399  1.1382  1.4217  0.4256
  994TIP3    H2 2947   1.664   0.632   4.423 -0.8968  0.1530  0.2356
  995TIP3   OH2 2948   6.059   2.729   4.730  0.9092 -0.1090 -0.6071
  995TIP3    H1 2949   6.133   2.724   4.790  0.3878 -1.4324 -0.0521
  995TIP3    H2 2950   6.068   2.652   4.674 -0.2686 -0.5073 -0.2655
  996TIP3   OH2 2951   1.999   6.483   0.324  0.1028  0.2126  0.2672
  996TIP3    H1 2952   1.917   6.438   0.305  0.9389 -1.6938  0.8116
  996TIP3    H2 2953   2.002   6.487   0.420 -0.2295  2.0475  0.2252
  997TIP3   OH2 2954   5.593   4.478   3.789  0.1588 -0.1537 -0.0993
  997TIP3    H1 2955   5.549   4.474   3.873 -0.0992  0.2926 -0.2109
  997TIP3    H2 2956   5.527   4.450   3.725 -0.3771  1.6866 -0.4105
  998TIP3   OH2 2957   6.363   1.681   1.178  0.1305 -0.1925 -0.2644
  998TIP3    H1 2958   6.393   1.590   1.171 -2.2902 -0.9644 -1.5307
  998TIP3    H2 2959   6.388   1.721   1.095 -2.1035 -0.8168 -1.2923
  999TIP3   OH2 2960   6.589   6.044   4.272 -0.4308 -0.1494  0.1117
  999TIP3    H1 2961   6.565   6.000   4.354  0.9752  0.4002  0.8541
  999TIP3    H2 2962   6.581   5.976   4.205  2.9456 -2.0316  1.4039
 1000TIP3   OH2 2963   0.762   1.610   3.992 -0.2561  0.0621  0.0870
 1000TIP3    H1 2964   0.719   1.679   4.043 -2.2568 -0.4171 -0.8611
 1000TIP3    H2 2965   0.711   1.532   4.010  0.7063 -0.7189 -0.5000
 1001TIP3   OH2 2966   6.091   0.730   1.648  0.3915 -0.7460 -0.0267
 1001TIP3    H1 2967   6.139   0.812   1.638  0.3008 -0.7000 -0.0790
 1001TIP3    H2 2968   6.093   0.712   1.742  0.9344 -0.9962 -0.0831
 1002TIP3   OH2 2969   4.038   3.481   3.821  0.1071  0.4760 -0.5222
 1002TIP3    H1 2970   3.949   3.495   3.855 -0.1898  1.4126 -1.5887
 1002TIP3    H2 2971   4.061   3.393   3.849 -1.4635 -0.0732 -0.8510
 1003TIP3   OH2 2972   5.672   1.958   2.344 -0.6027  0.8330 -0.1019
 1003TIP3    H1 2973   5.612   1.885   2.354 -1.5504  1.5420 -0.3969
 1003TIP3    H2 2974   5.674   2.000   2.430  1.3206 -0.5316  0.5732
 1004TIP3   OH2 2975   4.279   5.581   4.881  0.0524  0.1611 -0.2887
 1004TIP3    H1 2976   4.363   5.611   4.846  0.3094 -0.5263 -0.2783
 1004TIP3    H2 2977   4.259   5.642   4.952  0.5313  0.3338 -0.3022
 1005TIP3   OH2 2978   1.509   5.131   2.887  0.2826  0.1546  0.4372
 1005TIP3    H1 2979   1.471   5.120   2.974 -0.8251  0.1461 -0.0319
 1005TIP3    H2 2980   1.587   5.185   2.901  1.0596 -1.2468  1.6425
 1006TIP3   OH2 2981   2.417   4.098   2.188  0.2435 -0.3849 -0.1672
 1006TIP3    H1 2982   2.346   4.044   2.222  0.7373 -2.0169 -1.6175
 1006TIP3    H2 2983   2.375   4.153   2.122  0.0405 -0.1039  0.1866
 1007TIP3   OH2 2984   1.656   1.699   2.563  0.2374 -0.3983 -0.0019
 1007TIP3    H1 2985   1.631   1.628   2.622  0.5155 -1.1159 -0.7316
 1007TIP3    H2 2986   1.689   1.655   2.485 -1.3935  0.5174 -1.2701
 1008TIP3   OH2 2987   6.202   6.079   4.052  0.1815 -0.0872  0.4561
 1008TIP3    H1 2988   6.171   6.155   4.003 -0.8318  0.9865  2.5935
 1008TIP3    H2 2989   6.267   6.115   4.112 -0.3018 -0.8698  1.4901
 1009TIP3   OH2 2990   5.960   2.383   2.158  0.1502  0.1784 -0.1542
 1009TIP3    H1 2991   5.910   2.429   2.225 -0.2795 -0.2527 -0.1816
 1009TIP3    H2 2992   6.048   2.375   2.196 -0.2964 -0.7968  0.7133
 1010TIP3   OH2 2993   5.075   5.599   3.559  0.3584 -0.5416  0.0036
 1010TIP3    H1 2994   5.170   5.595   3.551  0.6191  2.4343  0.6521
 1010TIP3    H2 2995   5.058   5.680   3.607 -2.5673 -0.0678 -1.5861
 1011TIP3   OH2 2996   5.629   0.065   0.773 -0.3874 -0.3276  0.2109
 1011TIP3    H1 2997   5.690   0.038   0.842 -0.2054  0.9881  0.5951
 1011TIP3    H2 2998   5.683   0.080   0.696 -0.4052 -0.4325  0.1777
 1012TIP3   OH2 2999   1.665   3.668   0.922  0.7268  0.4940 -0.7313
 1012TIP3    H1 3000   1.633   3.582   0.946  2.6282  0.0196  0.3223
 1012TIP3    H2 3001   1.670   3.667   0.826 -0.2837 -0.1446 -0.7877
 1013TIP3   OH2 3002   2.500   2.408   0.040 -0.0342 -0.1242  0.3650
 1013TIP3    H1 3003   2.435   2.416  -0.030 -1.7271  1.3254  1.9880
 1013TIP3    H2 3004   2.581   2.441   0.001 -0.8737  0.4564 -0.9717
 1014TIP3   OH2 3005   1.726   4.738   0.752  0.1722 -0.0900  0.4136
 1014TIP3    H1 3006   1.701   4.803   0.686  1.0189  1.5891  1.6817
 1014TIP3    H2 3007   1.668   4.755   0.826 -1.0003 -2.1824  0.0638
 1015TIP3   OH2 3008   6.683   4.444   2.025 -0.1386  0.5223 -0.2436
 1015TIP3    H1 3009   6.703   4.353   2.049 -2.2220  0.4650  1.5792
 1015TIP3    H2 3010   6.590   4.442   2.002 -0.1480  2.1649 -0.4209
 1016TIP3   OH2 3011   0.962   4.970   0.222  0.6580 -0.0073  0.0916
 1016TIP3    H1 3012   0.967   4.947   0.129  0.0840  0.5171 -0.0718
 1016TIP3    H2 3013   0.879   5.017   0.231  1.9115  2.3398  0.3226
 1017TIP3   OH2 3014   2.735   4.923   5.249  0.6533  0.1870  0.6913
 1017TIP3    H1 3015   2.780   4.993   5.200  0.6461  0.3417  0.9027
 1017TIP3    H2 3016   2.669   4.890   5.188  1.3714 -0.3734  0.2010
 1018TIP3   OH2 3017   0.261   5.897   4.585 -0.1537  0.0529 -0.3534
 1018TIP3    H1 3018   0.232   5.874   4.496  0.2265  1.2701 -0.8209
 1018TIP3    H2 3019   0.309   5.819   4.615 -2.2975 -1.2985 -0.2491
 1019TIP3   OH2 3020   5.549   5.191   0.781 -0.1580  0.1465  0.2822
 1019TIP3    H1 3021   5.498   5.248   0.723 -0.7993  1.4623  2.0287
 1019TIP3    H2 3022   5.484   5.137   0.825  0.2409 -0.3085  0.3130
 1020TIP3   OH2 3023   3.581   5.263   3.002 -0.7580 -0.5260  0.3550
 1020TIP3    H1 3024   3.658   5.226   2.958  0.8469  2.3484  0.5616
 1020TIP3    H2 3025   3.517   5.277   2.932 -1.6964 -3.9765  0.3328
 1021TIP3   OH2 3026   6.229   0.745   2.440  0.0502 -0.3093 -0.3261
 1021TIP3    H1 3027   6.191   0.816   2.492  2.0317 -0.9313  2.1468
 1021TIP3    H2 3028   6.237   0.671   2.501 -0.9657 -2.3927 -2.5271
 1022TIP3   OH2 3029   0.339   2.135   1.299 -0.2575  0.2260 -0.1352
 1022TIP3    H1 3030   0.404   2.105   1.362  0.9017 -0.9911 -1.8328
 1022TIP3    H2 3031   0.376   2.214   1.261 -0.3860  0.2727 -0.1641
 1023TIP3   OH2 3032   5.959   3.152   1.623  0.1321 -0.2352  0.4678
 1023TIP3    H1 3033   5.976   3.130   1.531  0.1353 -1.3969  0.7333
 1023TIP3    H2 3034   6.017   3.226   1.641  1.1448 -0.8673 -0.0932
 1024TIP3   OH2 3035   2.253   0.507   5.615 -0.1822 -0.6624 -0.3240
 1024TIP3    H1 3036   2.186   0.465   5.669 -0.6908 -0.0664 -0.4924
 1024TIP3    H2 3037   2.314   0.436   5.593 -2.0564 -1.7850 -2.2178
 1025TIP3   OH2 3038   4.299   3.965   4.957 -0.3240 -0.5132  0.1962
 1025TIP3    H1 3039   4.334   3.902   5.019  1.0539  0.1684  0.1385
 1025TIP3    H2 3040   4.292   3.916   4.875 -0.9668 -1.0693  0.5764
 1026TIP3   OH2 3041   0.516   2.779   4.207  0.4079 -0.4618 -0.1990
 1026TIP3    H1 3042   0.467   2.762   4.126  2.6215 -0.5826 -1.6174
 1026TIP3    H2 3043   0.554   2.694   4.230 -0.2508 -0.4402  1.0492
 1027TIP3   OH2 3044   6.606   0.289   0.206 -0.0478  0.1007 -0.2220
 1027TIP3    H1 3045   6.635   0.234   0.278  1.9982 -0.0094 -1.0514
 1027TIP3    H2 3046   6.614   0.232   0.129 -1.5424  0.4225 -0.6434
 1028TIP3   OH2 3047   1.309   5.532   5.104  0.3444 -0.4873 -0.4542
 1028TIP3    H1 3048   1.312   5.571   5.192 -1.4871 -0.2680 -0.4553
 1028TIP3    H2 3049   1.270   5.600   5.049  1.0172 -0.8043 -1.3408
 1029TIP3   OH2 3050   0.289   3.526   2.823 -0.1888 -0.3606  0.5330
 1029TIP3    H1 3051   0.275   3.473   2.903 -0.1000 -0.5949  0.3955
 1029TIP3    H2 3052   0.356   3.589   2.848  2.2073 -2.4381 -0.2364
 1030TIP3   OH2 3053   1.569   3.487   4.322  0.2774  0.1090  0.7805
 1030TIP3    H1 3054   1.580   3.412   4.263 -0.3356 -0.2364  1.0933
 1030TIP3    H2 3055   1.507   3.456   4.388 -0.4720  1.1064  0.5558
 1031TIP3   OH2 3056   6.002   3.927   4.910  0.0625 -0.0231 -0.0170
 1031TIP3    H1 3057   5.948   3.918   4.989 -1.1285  1.5614 -0.6118
 1031TIP3    H2 3058   5.943   3.964   4.845  2.0355  2.5674 -0.4719
 1032TIP3   OH2 3059   2.263   3.427   3.380 -0.0737 -0.2158  0.6914
 1032TIP3    H1 3060   2.207   3.376   3.439  1.5258  0.4109  2.9006
 1032TIP3    H2 3061   2.336   3.369   3.360  1.5442  0.9156  2.8826
 1033TIP3   OH2 3062   2.495   2.125   0.068 -0.1231 -0.4249 -0.6903
 1033TIP3    H1 3063   2.501   2.219   0.082 -2.0862 -0.3624  0.0739
 1033TIP3    H2 3064   2.563   2.106   0.004  0.8527  1.3643 -0.2691
 1034TIP3   OH2 3065   6.609   6.736   0.158 -0.2715 -0.0091  0.1146
 1034TIP3    H1 3066   6.695   6.711   0.125 -0.2374  0.1512  0.0795
 1034TIP3    H2 3067   6.617   6.727   0.253 -0.4070 -0.5831  0.0741
 1035TIP3   OH2 3068   0.839   3.335   1.874 -0.1537 -0.2444 -0.2936
 1035TIP3    H1 3069   0.853   3.281   1.795 -1.5174  0.7002 -1.2174
 1035TIP3    H2 3070   0.876   3.282   1.945 -2.2416 -2.8580 -0.9895
 1036TIP3   OH2 3071   4.585   0.505   0.854  0.2040 -0.1968 -0.1779
 1036TIP3    H1 3072   4.515   0.442   0.836 -0.3646  0.0687  1.0420
 1036TIP3    H2 3073   4.665   0.454   0.851 -0.3548 -1.3670  2.3965
 1037TIP3   OH2 3074   6.370   1.166   4.300 -0.4855 -0.0126 -0.1458
 1037TIP3    H1 3075   6.431   1.240   4.301 -0.2138 -0.2060 -0.9976
 1037TIP3    H2 3076   6.427   1.089   4.294 -0.7917 -0.2480 -0.0289
 1038TIP3   OH2 3077   6.108   1.626   2.370  0.3701  0.6122  0.0049
 1038TIP3    H1 3078   6.040   1.560   2.362  0.8334 -0.3124  2.8318
 1038TIP3    H2 3079   6.158   1.618   2.289 -0.7809 -1.0805 -0.6040
 1039TIP3   OH2 3080   6.333   5.553   2.864 -0.3195 -0.4490 -0.1414
 1039TIP3    H1 3081   6.419   5.527   2.830 -0.4116  1.3432 -1.8878
 1039TIP3    H2 3082   6.292   5.470   2.889  1.5851 -1.4274 -0.0269
 1040TIP3   OH2 3083   1.443   1.305   0.337 -0.0035 -0.1164 -0.0896
 1040TIP3    H1 3084   1.411   1.320   0.248 -2.2932 -1.7215  0.3710
 1040TIP3    H2 3085   1.414   1.382   0.385  0.4779  0.3506 -0.5295
 1041TIP3   OH2 3086   4.918   5.922   1.851  0.2515  0.3153  0.4748
 1041TIP3    H1 3087   4.939   5.870   1.928 -0.7555  0.8145  1.1098
 1041TIP3    H2 3088   4.877   5.861   1.790  1.3647 -0.1552  0.1671
 1042TIP3   OH2 3089   0.913   5.317   1.074 -0.6216 -0.0213 -0.3849
 1042TIP3    H1 3090   0.870   5.340   0.991 -0.9994  0.6055 -0.0227
 1042TIP3    H2 3091   0.847   5.336   1.141 -0.2805 -0.4232  0.0692
 1043TIP3   OH2 3092   2.465   4.489   3.644 -0.3937 -0.1700  0.0995
 1043TIP3    H1 3093   2.462   4.581   3.619 -0.4679 -0.5002 -1.1885
 1043TIP3    H2 3094   2.389   4.477   3.700 -0.9117  0.3559 -0.4696
 1044TIP3   OH2 3095   1.767   2.631   4.063  0.7090 -0.5678 -0.2399
 1044TIP3    H1 3096   1.814   2.713   4.080 -1.7783  1.1067 -0.9680
 1044TIP3    H2 3097   1.755   2.591   4.150  1.6122  0.0063  0.1625
 1045TIP3   OH2 3098   3.747   2.316   4.723  0.2927  0.5131 -0.3679
 1045TIP3    H1 3099   3.786   2.338   4.638  0.3742  1.7579 -0.0341
 1045TIP3    H2 3100   3.657   2.346   4.716 -0.6893 -2.2887 -1.1101
 1046TIP3   OH2 3101   5.968   3.465   1.482  0.1928 -0.1551  0.1170
 1046TIP3    H1 3102   6.045   3.409   1.488 -0.9648 -1.6775  1.5556
 1046TIP3    H2 3103   5.899   3.408   1.449 -0.4614  1.0838 -0.7646
 1047TIP3   OH2 3104   6.286   3.257   0.768  0.0196 -0.4663  0.1683
 1047TIP3    H1 3105   6.377   3.269   0.741  0.2994 -2.1272  0.2594
 1047TIP3    H2 3106   6.291   3.196   0.842 -1.1588 -0.4470  0.2853
 1048TIP3   OH2 3107   2.156   3.611   5.785  0.2396 -0.6156  0.2906
 1048TIP3    H1 3108   2.173   3.529   5.832  0.1408  0.3450  2.0959
 1048TIP3    H2 3109   2.220   3.673   5.822 -0.9479  0.6007  0.3665
 1049TIP3   OH2 3110   2.788   1.566   2.185 -0.0422 -0.4901  0.4400
 1049TIP3    H1 3111   2.696   1.570   2.157 -1.2774 -1.5498  3.8169
 1049TIP3    H2 3112   2.803   1.474   2.207  2.3062 -0.5819 -1.2051
 1050TIP3   OH2 3113   3.117   2.853   5.792 -0.5221  0.3648  0.1516
 1050TIP3    H1 3114   3.106   2.937   5.837  1.7946  0.7322  0.1601
 1050TIP3    H2 3115   3.207   2.827   5.813  0.0901 -0.2665 -2.8977
 1051TIP3   OH2 3116   1.890   0.121   3.191  0.0274  0.1340  0.1176
 1051TIP3    H1 3117   1.808   0.073   3.203  0.5724 -0.8066  0.1394
 1051TIP3    H2 3118   1.896   0.177   3.268 -0.0681 -0.5760  0.6526
 1052TIP3   OH2 3119   0.208   4.718   1.159 -0.0631  1.0326 -0.2523
 1052TIP3    H1 3120   0.229   4.647   1.220  1.3251  0.3420 -1.4724
 1052TIP3    H2 3121   0.114   4.732   1.170 -0.1702 -0.2699  0.7781
 1053TIP3   OH2 3122   2.504   1.216   0.908 -0.3359  0.0698 -0.2832
 1053TIP3    H1 3123   2.499   1.308   0.883 -2.4773 -0.4910 -2.3064
 1053TIP3    H2 3124   2.559   1.176   0.841 -0.9640 -0.4131 -0.5232
 1054TIP3   OH2 3125   0.133   0.281   5.218  0.0321  0.4864 -0.4184
 1054TIP3    H1 3126   0.128   0.281   5.122 -2.0608  2.2199 -0.3688
 1054TIP3    H2 3127   0.084   0.203   5.244  1.0486 -0.2864 -0.7087
 1055TIP3   OH2 3128   3.511   2.931   5.040  0.8082 -0.4198 -0.6163
 1055TIP3    H1 3129   3.526   3.025   5.042  0.9402 -0.4326  1.0808
 1055TIP3    H2 3130   3.527   2.902   5.130  1.7276 -2.2172 -1.2934
 1056TIP3   OH2 3131   5.300   0.080   4.412 -0.3061 -0.2108  0.6297
 1056TIP3    H1 3132   5.361   0.087   4.485  0.7390  0.8685 -0.2988
 1056TIP3    H2 3133   5.276  -0.012   4.409  0.8639 -0.5507  1.3518
 1057TIP3   OH2 3134   3.002   3.737   1.946  0.0888  0.0922 -0.1416
 1057TIP3    H1 3135   3.026   3.828   1.934 -2.2210  1.0439  1.5730
 1057TIP3    H2 3136   2.937   3.720   1.877  0.5125 -0.2556 -0.4557
 1058TIP3   OH2 3137   0.927   2.639   3.168  0.1581  0.0279 -0.1577
 1058TIP3    H1 3138   0.975   2.658   3.088 -0.4768  0.3448 -0.4685
 1058TIP3    H2 3139   0.994   2.608   3.230  0.5541 -0.8755 -1.0148
 1059TIP3   OH2 3140   3.973   4.414   4.262  0.3531 -0.7993  0.6829
 1059TIP3    H1 3141   3.972   4.508   4.276 -0.2818 -0.6765 -0.1150
 1059TIP3    H2 3142   4.046   4.400   4.201  1.8730 -1.1114  2.4471
 1060TIP3   OH2 3143   2.154   6.583   4.476  0.1226 -0.4489  0.6471
 1060TIP3    H1 3144   2.142   6.666   4.521  0.1999 -1.0928  1.9051
 1060TIP3    H2 3145   2.226   6.599   4.414  1.6142 -0.1273  2.3811
 1061TIP3   OH2 3146   4.053   3.388   5.027 -0.4590 -0.6010 -0.0047
 1061TIP3    H1 3147   4.047   3.320   5.094  1.4206 -1.3334 -0.4957
 1061TIP3    H2 3148   3.965   3.426   5.022 -1.2123 -2.0835  1.2340
 1062TIP3   OH2 3149   0.431   6.616   4.043 -0.0753 -0.4765  0.7827
 1062TIP3    H1 3150   0.482   6.559   4.101 -0.6155 -2.1276 -0.2805
 1062TIP3    H2 3151   0.340   6.586   4.054 -0.0451 -1.9579 -1.9687
 1063TIP3   OH2 3152   0.444   6.452   1.588 -0.4108  0.5365  0.2314
 1063TIP3    H1 3153   0.447   6.547   1.583 -0.6912  0.5583  0.4587
 1063TIP3    H2 3154   0.429   6.433   1.680 -0.0153  0.2613  0.2405
 1064TIP3   OH2 3155  -0.009   0.934   5.162  0.0908  0.0306  0.2280
 1064TIP3    H1 3156   0.070   0.908   5.115 -0.3578 -1.9519  0.4640
 1064TIP3    H2 3157   0.018   0.938   5.254  0.1997  0.6119  0.1733
 1065TIP3   OH2 3158   5.854   2.968   0.522  0.6686  0.1073 -0.5355
 1065TIP3    H1 3159   5.879   2.918   0.444 -0.1680 -1.0959 -0.0517
 1065TIP3    H2 3160   5.780   3.021   0.494  0.2747 -0.4351 -0.5239
 1066TIP3   OH2 3161   2.762   2.042   0.710 -0.4625 -0.1755 -0.8271
 1066TIP3    H1 3162   2.674   2.063   0.680 -1.8484  0.5321  3.1590
 1066TIP3    H2 3163   2.803   2.127   0.726 -1.0463 -0.3466  2.1627
 1067TIP3   OH2 3164   3.972   5.619   1.951  0.1951  0.1249 -0.7631
 1067TIP3    H1 3165   3.957   5.671   1.872  0.7516  1.0377 -0.2847
 1067TIP3    H2 3166   4.067   5.615   1.959  0.2197 -1.8997 -1.3678
 1068TIP3   OH2 3167   0.811   4.281   0.034  0.1457 -0.3824 -0.2607
 1068TIP3    H1 3168   0.788   4.271   0.126 -0.9825 -1.2414 -0.6166
 1068TIP3    H2 3169   0.904   4.306   0.035 -0.1574  0.7930  1.1338
 1069TIP3   OH2 3170   4.951   1.084   5.050 -0.0439 -0.2133  0.0383
 1069TIP3    H1 3171   4.866   1.055   5.017  0.2226  0.3682 -1.1927
 1069TIP3    H2 3172   5.000   1.110   4.972  0.4298  1.6650  0.9093
 1070TIP3   OH2 3173   3.949   5.445   4.115 -0.0965  0.0422  0.2639
 1070TIP3    H1 3174   3.957   5.372   4.176 -0.6908 -0.2057  0.0510
 1070TIP3    H2 3175   3.976   5.409   4.031 -0.7583 -0.0459  0.0833
 1071TIP3   OH2 3176   3.991   3.688   4.628  0.0890  0.2924  0.0892
 1071TIP3    H1 3177   4.031   3.602   4.622 -1.2036 -0.3291  0.1733
 1071TIP3    H2 3178   3.931   3.682   4.702 -0.6397  1.0067 -0.4215
 1072TIP3   OH2 3179   6.378   3.477   2.672  0.3084 -0.2051 -0.4285
 1072TIP3    H1 3180   6.314   3.528   2.721  0.9617 -0.9290  1.2504
 1072TIP3    H2 3181   6.329   3.401   2.640  0.2091 -0.5519  0.5075
 1073TIP3   OH2 3182   5.607   1.400   0.452  0.3162 -0.4065  0.0720
 1073TIP3    H1 3183   5.611   1.428   0.543  0.8441 -2.1781  0.6270
 1073TIP3    H2 3184   5.514   1.381   0.437  0.4939 -2.2623  0.9794
 1074TIP3   OH2 3185   6.000   5.365   4.747 -0.0225 -0.4936  0.8505
 1074TIP3    H1 3186   6.003   5.308   4.670 -0.0833 -0.2752  0.6853
 1074TIP3    H2 3187   6.081   5.415   4.743  0.5465 -1.3045  1.5720
 1075TIP3   OH2 3188   5.178   1.227   0.905  0.3545  0.3884 -0.0994
 1075TIP3    H1 3189   5.095   1.274   0.905 -0.3767 -0.8376  1.0861
 1075TIP3    H2 3190   5.229   1.269   0.836 -1.8233  0.1588 -1.9612
 1076TIP3   OH2 3191   0.769   2.317   4.948  0.2384 -0.1114 -0.1247
 1076TIP3    H1 3192   0.744   2.249   5.010  2.0300  0.3269  1.1402
 1076TIP3    H2 3193   0.851   2.285   4.909  0.6687  0.9462 -0.1128
 1077TIP3   OH2 3194   5.306   4.001   1.396  0.5077 -0.3837 -0.3432
 1077TIP3    H1 3195   5.227   3.975   1.349  0.4824 -2.0254  0.5386
 1077TIP3    H2 3196   5.298   4.096   1.405 -2.3411 -0.6703  1.3499
 1078TIP3   OH2 3197   6.270   1.344   1.164 -0.0983 -0.1678 -0.0862
 1078TIP3    H1 3198   6.335   1.346   1.235  0.4733  2.7412 -0.5787
 1078TIP3    H2 3199   6.315   1.298   1.093 -0.0803 -1.6527  0.8338
 1079TIP3   OH2 3200   6.592   4.530   0.793 -0.1021 -0.0291 -0.3949
 1079TIP3    H1 3201   6.649   4.519   0.717  0.2901  0.3468 -0.1561
 1079TIP3    H2 3202   6.646   4.506   0.868 -0.4805 -0.3734 -0.2261
 1080TIP3   OH2 3203   6.501   0.658   3.149 -0.3015  0.1751  1.3174
 1080TIP3    H1 3204   6.596   0.652   3.156 -0.3247 -0.4083  1.2303
 1080TIP3    H2 3205   6.483   0.751   3.142  0.5561  0.2316 -2.4610
 1081TIP3   OH2 3206   3.048   0.912   5.204  0.2298 -0.0534  0.1405
 1081TIP3    H1 3207   2.955   0.916   5.185  0.0498  1.1534  1.1785
 1081TIP3    H2 3208   3.056   0.842   5.270  0.0842 -0.2404 -0.0389
 1082TIP3   OH2 3209   1.752   5.746   4.288 -0.3245  0.3767  0.3023
 1082TIP3    H1 3210   1.674   5.790   4.322 -0.6722  0.1478 -0.1936
 1082TIP3    H2 3211   1.746   5.755   4.193  0.2991  0.4255  0.2608
 1083TIP3   OH2 3212   4.229   3.083   2.148  0.3800  0.1274 -0.7003
 1083TIP3    H1 3213   4.239   3.178   2.145 -1.5331  0.4218  0.5917
 1083TIP3    H2 3214   4.294   3.054   2.211  1.7849  0.4027 -1.9713
 1084TIP3   OH2 3215   0.940   2.738   1.586 -0.0583  0.1543 -0.2089
 1084TIP3    H1 3216   0.918   2.781   1.669  1.0697  1.8608 -0.7336
 1084TIP3    H2 3217   0.915   2.802   1.519  0.9480 -0.3248 -1.0665
 1085TIP3   OH2 3218   4.834   2.658   0.262 -0.0162  0.9938 -0.1567
 1085TIP3    H1 3219   4.857   2.605   0.339 -1.0493 -1.3039 -1.3087
 1085TIP3    H2 3220   4.896   2.630   0.195 -2.1814 -0.8009 -1.5349
 1086TIP3   OH2 3221   6.428   1.953   0.226  0.3195  0.1448 -0.2225
 1086TIP3    H1 3222   6.500   1.890   0.236 -0.0123 -0.2470 -0.2520
 1086TIP3    H2 3223   6.434   2.008   0.304  0.3513 -0.2022  0.0272
 1087TIP3   OH2 3224   2.223   1.827   5.008 -0.6582 -0.0022  0.2347
 1087TIP3    H1 3225   2.209   1.779   4.927 -0.2055 -2.0007  1.2751
 1087TIP3    H2 3226   2.135   1.855   5.035 -1.2103 -1.8994  0.5328
 1088TIP3   OH2 3227   5.452   4.912   0.829 -0.4402  0.2767 -0.4696
 1088TIP3    H1 3228   5.464   4.962   0.910 -0.5831  3.8072 -2.4687
 1088TIP3    H2 3229   5.527   4.852   0.827 -0.0721  0.5433  1.9035
 1089TIP3   OH2 3230   5.047   1.294   4.315  0.3582  0.2286  0.4843
 1089TIP3    H1 3231   5.020   1.205   4.292  0.8454 -0.1145  1.2235
 1089TIP3    H2 3232   5.059   1.292   4.410  0.4206  1.0759  0.5011
 1090TIP3   OH2 3233   5.026   2.557   0.079 -0.3978 -0.0142 -0.6329
 1090TIP3    H1 3234   5.073   2.475   0.059 -1.1579 -0.5285 -0.3550
 1090TIP3    H2 3235   5.075   2.624   0.032  0.1415 -0.6508 -1.0090
 1091TIP3   OH2 3236   4.389   1.760   0.757 -1.0269 -0.1826 -0.3487
 1091TIP3    H1 3237   4.420   1.842   0.718  1.5881 -0.0022  1.8130
 1091TIP3    H2 3238   4.318   1.786   0.815 -1.2011  0.3141 -0.7716
 1092TIP3   OH2 3239   1.742   0.498   5.127 -0.1202 -0.2126 -0.0824
 1092TIP3    H1 3240   1.820   0.547   5.102  0.9927 -1.0462  1.5396
 1092TIP3    H2 3241   1.775   0.410   5.149 -1.7827 -1.1461 -1.1188
 1093TIP3   OH2 3242   3.577   2.650   2.121 -0.1480 -0.1329 -0.1374
 1093TIP3    H1 3243   3.668   2.640   2.094  0.6859 -1.2109  2.7192
 1093TIP3    H2 3244   3.526   2.613   2.050  1.7188 -0.7821 -1.1873
 1094TIP3   OH2 3245   4.241   6.642   3.910  0.2177  0.1691  0.0923
 1094TIP3    H1 3246   4.170   6.611   3.853  1.2140 -0.9260 -0.6099
 1094TIP3    H2 3247   4.255   6.570   3.971 -0.6077  1.1957  1.5506
 1095TIP3   OH2 3248   5.348   0.022   5.257  0.0647 -0.3435  0.1768
 1095TIP3    H1 3249   5.333   0.075   5.336 -3.9649  4.7907 -3.3150
 1095TIP3    H2 3250   5.409   0.074   5.205 -0.1546 -1.7449 -1.5457
 1096TIP3   OH2 3251   4.149   1.481   4.165 -0.1380  0.3303 -0.0531
 1096TIP3    H1 3252   4.060   1.508   4.190 -0.3146 -0.6360  0.4232
 1096TIP3    H2 3253   4.151   1.492   4.069 -1.0606 -0.4136 -0.1774
 1097TIP3   OH2 3254   2.795   1.038   4.126  0.4681  0.0393  0.1512
 1097TIP3    H1 3255   2.740   1.007   4.198 -0.7392  0.7534 -0.4237
 1097TIP3    H2 3256   2.747   1.114   4.091  1.9387  0.8275 -0.2328
 1098TIP3   OH2 3257   0.888   2.568   2.444 -0.3315  0.3048  0.1500
 1098TIP3    H1 3258   0.814   2.598   2.497 -0.4727 -0.0876  0.1768
 1098TIP3    H2 3259   0.855   2.492   2.396 -0.3402  0.9190 -0.8441
 1099TIP3   OH2 3260   3.086   6.378   1.406 -0.5752 -0.4238  0.1434
 1099TIP3    H1 3261   2.992   6.391   1.393 -0.8058 -0.5869  1.5319
 1099TIP3    H2 3262   3.093   6.309   1.472  0.5550 -1.4978 -1.0223
 1100TIP3   OH2 3263   3.934   1.654   2.253  0.3272 -0.5643 -0.0666
 1100TIP3    H1 3264   3.908   1.578   2.201  0.7794 -0.9904  0.3082
 1100TIP3    H2 3265   4.025   1.670   2.228 -0.0387  0.4077 -0.7854
 1101TIP3   OH2 3266   2.107   4.616   0.923 -0.4195  0.7515  0.5524
 1101TIP3    H1 3267   2.177   4.557   0.951 -0.9920 -0.6148 -0.7330
 1101TIP3    H2 3268   2.153   4.693   0.890  0.5777 -0.4524 -1.0342
 1102TIP3   OH2 3269   5.640   1.868   0.867 -0.1868 -0.2687  0.2580
 1102TIP3    H1 3270   5.573   1.803   0.848  0.7747 -1.2815  0.2342
 1102TIP3    H2 3271   5.607   1.915   0.944 -1.4549  0.0562 -0.4479
 1103TIP3   OH2 3272   5.547   2.607   4.159 -0.6385  0.1036 -0.8405
 1103TIP3    H1 3273   5.492   2.538   4.120 -1.2663 -0.0710  0.3022
 1103TIP3    H2 3274   5.632   2.564   4.172 -0.5953 -0.0110 -1.4490
 1104TIP3   OH2 3275   5.162   5.123   4.905 -0.0456  0.2243 -0.7150
 1104TIP3    H1 3276   5.174   5.035   4.941 -1.9432  0.1226 -0.2384
 1104TIP3    H2 3277   5.247   5.166   4.918  0.6309 -1.2331 -0.1307
 1105TIP3   OH2 3278   1.000   2.343   5.574  0.1604  0.4753 -0.1939
 1105TIP3    H1 3279   0.929   2.281   5.591 -0.8481  1.2923 -1.2154
 1105TIP3    H2 3280   1.074   2.310   5.624 -1.3265  0.3587  2.0774
 1106TIP3   OH2 3281   2.859   4.411   0.174 -0.1941 -0.3735 -0.0479
 1106TIP3    H1 3282   2.938   4.445   0.131  0.0814  0.4786  1.0964
 1106TIP3    H2 3283   2.892   4.358   0.246 -0.6526  0.1472  0.5586
 1107TIP3   OH2 3284   0.173   5.154   4.378 -0.4178  0.1115  0.0386
 1107TIP3    H1 3285   0.261   5.142   4.414 -0.1469  1.1279 -0.2253
 1107TIP3    H2 3286   0.144   5.066   4.356 -0.5487 -0.5403  2.5563
 1108TIP3   OH2 3287   5.372   1.766   4.483 -0.2032 -0.7668 -0.0160
 1108TIP3    H1 3288   5.279   1.768   4.508 -0.0832  3.3442  0.8419
 1108TIP3    H2 3289   5.418   1.806   4.557  2.1171 -1.5313 -0.9645
 1109TIP3   OH2 3290   1.378   4.850   3.349 -0.2086 -0.6038 -0.0376
 1109TIP3    H1 3291   1.307   4.788   3.339 -2.1220  1.2540  1.1824
 1109TIP3    H2 3292   1.337   4.928   3.387  2.1673  1.1816 -0.8771
 1110TIP3   OH2 3293   3.227   1.218   2.004 -0.2503 -0.0814  0.1241
 1110TIP3    H1 3294   3.173   1.238   2.081 -0.8058 -0.4456 -0.1612
 1110TIP3    H2 3295   3.170   1.165   1.948 -0.0575  0.6600 -0.8075
 1111TIP3   OH2 3296   0.204   0.746   5.378 -0.0970 -0.3128 -0.1091
 1111TIP3    H1 3297   0.188   0.655   5.355  0.0106 -0.6807  1.1975
 1111TIP3    H2 3298   0.118   0.782   5.398  0.0862 -0.9284  2.0801
 1112TIP3   OH2 3299   0.620   0.476   1.409 -0.1913 -0.5037 -0.6288
 1112TIP3    H1 3300   0.602   0.489   1.502 -0.3833 -0.6613 -0.6421
 1112TIP3    H2 3301   0.701   0.524   1.393  1.3817 -2.6986  0.2246
 1113TIP3   OH2 3302   7.022   0.216   3.246 -0.2912  0.3835  0.2732
 1113TIP3    H1 3303   7.110   0.245   3.223  0.3276 -0.4205  1.4843
 1113TIP3    H2 3304   6.970   0.230   3.167  0.9356  0.8051 -0.4868
 1114TIP3   OH2 3305   3.484   1.983   3.268 -0.2312 -0.3712  0.1868
 1114TIP3    H1 3306   3.470   1.890   3.283 -0.0269 -0.2257  1.3856
 1114TIP3    H2 3307   3.566   2.003   3.313 -0.2968  0.3949 -0.0143
 1115TIP3   OH2 3308   6.276   2.909   4.199  0.0527  0.0256  0.0729
 1115TIP3    H1 3309   6.201   2.852   4.216  0.3150 -0.2570  0.2989
 1115TIP3    H2 3310   6.241   2.980   4.145  0.0665 -1.2319 -1.6567
 1116TIP3   OH2 3311   0.664   2.624   1.437  0.2895  0.0334 -0.2813
 1116TIP3    H1 3312   0.633   2.553   1.492 -1.8116  1.6552  0.8060
 1116TIP3    H2 3313   0.627   2.606   1.351 -0.1877 -0.2592 -0.0216
 1117TIP3   OH2 3314   3.090   4.887   5.425 -0.0858  1.0408  0.3679
 1117TIP3    H1 3315   3.174   4.878   5.379 -0.5715  0.4131 -0.4207
 1117TIP3    H2 3316   3.078   4.982   5.434  1.6199  1.1428  2.2484
 1118TIP3   OH2 3317   0.863   0.885   0.835 -0.3609  0.6015 -0.0856
 1118TIP3    H1 3318   0.906   0.880   0.921  1.2657  0.6459 -0.8698
 1118TIP3    H2 3319   0.888   0.804   0.791 -1.9238  0.1560 -0.2251
 1119TIP3   OH2 3320   6.035   2.243   5.472  0.3695  0.5352 -0.6037
 1119TIP3    H1 3321   6.005   2.198   5.393  1.4096 -0.5021 -0.4368
 1119TIP3    H2 3322   5.969   2.224   5.538 -0.9310  2.0796 -1.4014
 1120TIP3   OH2 3323   2.719   6.042   4.905 -0.3885  0.1089  0.2982
 1120TIP3    H1 3324   2.709   6.091   4.987  0.9684  0.8100  0.0726
 1120TIP3    H2 3325   2.719   6.109   4.837  1.2974 -0.1868 -0.0292
 1121TIP3   OH2 3326   0.446   5.974   3.649  0.1901 -0.1114  0.3097
 1121TIP3    H1 3327   0.536   5.944   3.654  1.0480  1.9871 -1.0726
 1121TIP3    H2 3328   0.410   5.931   3.572  0.8254  0.9463 -0.5934
 1122TIP3   OH2 3329   0.784   1.907   2.855 -0.2506  0.9731  0.3089
 1122TIP3    H1 3330   0.764   1.852   2.931 -2.7679  3.5842  1.7355
 1122TIP3    H2 3331   0.849   1.970   2.888  1.1924  0.1086 -0.7586
 1123TIP3   OH2 3332   0.918   4.656   5.268  0.2861  0.4367 -0.7473
 1123TIP3    H1 3333   1.003   4.648   5.311  0.4690 -0.3599 -1.2467
 1123TIP3    H2 3334   0.903   4.571   5.226  0.2254  1.2436 -2.4505
 1124TIP3   OH2 3335   2.812   0.618   1.439  0.5825  0.3940  0.0961
 1124TIP3    H1 3336   2.863   0.686   1.483  1.0274 -1.2145  2.2032
 1124TIP3    H2 3337   2.729   0.660   1.418  2.3527  2.8929 -2.7995
 1125TIP3   OH2 3338   1.396   0.168  -0.011 -0.1118  0.0474  0.3129
 1125TIP3    H1 3339   1.484   0.195   0.013 -0.2228  0.4995  0.2190
 1125TIP3    H2 3340   1.339   0.238   0.022 -0.2774  0.6531 -1.1532
 1126TIP3   OH2 3341   4.937   3.009   2.285  0.1243  0.0664 -0.1958
 1126TIP3    H1 3342   4.898   2.922   2.294 -3.2909  1.5165  0.8526
 1126TIP3    H2 3343   4.985   3.006   2.202 -0.1011 -2.6990 -0.3128
 1127TIP3   OH2 3344   3.291   2.458   1.291  0.5580  0.3775  0.7411
 1127TIP3    H1 3345   3.321   2.390   1.232  0.1819  1.1085 -0.3315
 1127TIP3    H2 3346   3.229   2.414   1.349 -0.6026  0.0199 -0.7044
 1128TIP3   OH2 3347   3.239   0.583   5.254 -0.2323 -0.1989 -0.0070
 1128TIP3    H1 3348   3.307   0.630   5.302  1.2789 -0.0087 -2.1752
 1128TIP3    H2 3349   3.257   0.603   5.162 -4.5093  1.6080 -0.6641
 1129TIP3   OH2 3350   5.982   4.345   0.878  0.5601 -0.5648  0.6534
 1129TIP3    H1 3351   6.047   4.300   0.824 -1.7086 -1.7838 -1.3011
 1129TIP3    H2 3352   5.972   4.289   0.955  0.0846 -1.7345 -0.2221
 1130TIP3   OH2 3353   6.865   6.536   5.093 -0.0431  0.1925  0.2188
 1130TIP3    H1 3354   6.936   6.600   5.089  1.6157 -1.5677 -0.1791
 1130TIP3    H2 3355   6.832   6.531   5.003 -0.0331  0.3401  0.2073
 1131TIP3   OH2 3356   5.994   6.450   0.304  0.0609  0.3778  0.3400
 1131TIP3    H1 3357   5.922   6.389   0.286 -1.3217  1.3575  2.1974
 1131TIP3    H2 3358   6.037   6.463   0.219 -0.0518 -2.5389 -0.2520
 1132TIP3   OH2 3359   7.170   5.097   4.166 -0.0580  0.2476 -0.0208
 1132TIP3    H1 3360   7.081   5.064   4.167  1.0072 -3.3514 -2.5524
 1132TIP3    H2 3361   7.211   5.059   4.244 -0.0252 -0.7034 -0.4832
 1133TIP3   OH2 3362   1.032   3.625   1.969  0.5386  0.4725 -0.0578
 1133TIP3    H1 3363   0.947   3.601   2.006  1.9959 -1.1371  2.5208
 1133TIP3    H2 3364   1.069   3.543   1.937  1.3260  1.0611 -0.7074
 1134TIP3   OH2 3365   0.505   2.434   0.764 -0.7180 -0.2015 -0.4970
 1134TIP3    H1 3366   0.513   2.406   0.673 -0.1122 -0.9034 -0.2341
 1134TIP3    H2 3367   0.589   2.475   0.784 -0.6647 -0.4929 -0.1084
 1135TIP3   OH2 3368   2.075   0.470   3.275 -0.2467  0.2593  0.1053
 1135TIP3    H1 3369   2.001   0.521   3.306  0.5677  0.8405  1.1944
 1135TIP3    H2 3370   2.043   0.380   3.274 -0.4715  0.2455  2.3614
 1136TIP3   OH2 3371   4.358   0.612   5.693 -0.0793 -0.1818 -0.0184
 1136TIP3    H1 3372   4.430   0.662   5.733  1.2014 -1.3147 -0.7968
 1136TIP3    H2 3373   4.301   0.678   5.654  0.3275  0.7663  0.9454
 1137TIP3   OH2 3374   2.963   2.761   0.702 -0.4164  0.1959 -0.1571
 1137TIP3    H1 3375   2.948   2.785   0.794  0.1877  0.3813 -0.0994
 1137TIP3    H2 3376   2.911   2.824   0.652 -0.1547  0.5811  0.0450
 1138TIP3   OH2 3377   6.619   3.217   1.895  0.7227  0.3168 -0.0993
 1138TIP3    H1 3378   6.682   3.202   1.965 -1.3389 -0.4978  1.6669
 1138TIP3    H2 3379   6.580   3.302   1.915  0.4285  0.2809 -0.4965
 1139TIP3   OH2 3380   2.988   0.140   3.973  0.0918 -0.5947 -0.4120
 1139TIP3    H1 3381   3.006   0.176   3.886 -0.8663  0.6117 -0.1570
 1139TIP3    H2 3382   2.898   0.108   3.967 -0.5462  0.8874  0.5143
 1140TIP3   OH2 3383   5.586   5.909   3.069  0.4561  0.3449  0.2839
 1140TIP3    H1 3384   5.678   5.933   3.068  0.6370 -0.2941  0.5387
 1140TIP3    H2 3385   5.543   5.980   3.117  0.8487  0.5400  0.3535
 1141TIP3   OH2 3386   1.138   5.149   0.361  0.5239 -0.1208  0.4117
 1141TIP3    H1 3387   1.074   5.091   0.320 -1.1483  0.8425  1.5044
 1141TIP3    H2 3388   1.087   5.226   0.387  1.9034  0.2486  2.2824
 1142TIP3   OH2 3389   0.067   0.360   2.907  0.4693  0.5244 -0.8198
 1142TIP3    H1 3390   0.127   0.401   2.969  0.7894  0.6229 -1.1879
 1142TIP3    H2 3391  -0.014   0.412   2.913 -1.4967 -2.4432  3.3174
 1143TIP3   OH2 3392   2.341   4.787   3.034  0.2164 -0.3095 -0.2782
 1143TIP3    H1 3393   2.348   4.700   2.995 -1.4307 -0.3555 -0.5344
 1143TIP3    H2 3394   2.420   4.795   3.088  0.0672 -2.2274  0.3072
 1144TIP3   OH2 3395   3.122   0.512   5.851  0.0568 -0.0144 -0.1885
 1144TIP3    H1 3396   3.049   0.573   5.837  0.1360  0.6238  1.7837
 1144TIP3    H2 3397   3.198   0.569   5.865  0.2876 -0.5584  0.9216
 1145TIP3   OH2 3398   1.026   1.329   3.599 -0.4366 -0.0239 -0.5692
 1145TIP3    H1 3399   1.121   1.319   3.587 -0.3652  0.8058 -0.7646
 1145TIP3    H2 3400   1.015   1.341   3.693 -0.2458  0.8199 -0.6480
 1146TIP3   OH2 3401   2.868   4.715   1.949 -0.6179  0.0888 -0.1508
 1146TIP3    H1 3402   2.960   4.691   1.938 -0.8765 -0.9260 -0.1759
 1146TIP3    H2 3403   2.871   4.789   2.010  0.1413 -0.9358  1.1360
 1147TIP3   OH2 3404   0.929   0.397   3.894 -0.0172 -0.9488 -0.2319
 1147TIP3    H1 3405   0.924   0.302   3.889 -0.1125 -1.3031  3.8028
 1147TIP3    H2 3406   0.839   0.427   3.879 -1.0034 -1.9646  2.8798
 1148TIP3   OH2 3407   4.982   5.962   5.406  0.3531  0.1070 -0.4260
 1148TIP3    H1 3408   4.996   5.868   5.421  0.2329 -0.0547 -1.2636
 1148TIP3    H2 3409   4.899   5.981   5.449 -1.3103 -0.9099 -2.9170
 1149TIP3   OH2 3410   2.145   2.690   2.911  0.0906 -0.5824 -0.4429
 1149TIP3    H1 3411   2.206   2.747   2.865  0.5435  1.6122  2.5302
 1149TIP3    H2 3412   2.185   2.604   2.908 -0.0013 -0.6353 -4.0755
 1150TIP3   OH2 3413   4.988   6.588   3.313  0.0347  0.4472 -0.5009
 1150TIP3    H1 3414   4.987   6.684   3.310  1.4201  0.4597 -2.6766
 1150TIP3    H2 3415   5.056   6.566   3.376  0.5341  0.9202 -0.8678
 1151TIP3   OH2 3416   2.148   5.497   3.289  0.3200  0.3051 -0.1226
 1151TIP3    H1 3417   2.202   5.561   3.335  1.0063 -1.5806  1.7943
 1151TIP3    H2 3418   2.058   5.523   3.309  0.5975 -0.2199  2.0140
 1152TIP3   OH2 3419   5.433   6.766   0.144  0.1277  0.4079  0.4917
 1152TIP3    H1 3420   5.516   6.800   0.111  0.3528 -1.0264 -0.5394
 1152TIP3    H2 3421   5.366   6.816   0.096  0.4486 -0.5003 -0.9688
 1153TIP3   OH2 3422   5.824   1.809   0.509  0.3284  0.0178 -0.5697
 1153TIP3    H1 3423   5.873   1.822   0.428 -0.8418 -0.9423 -1.4800
 1153TIP3    H2 3424   5.734   1.793   0.480 -0.2210  0.1966  0.9582
 1154TIP3   OH2 3425   1.215   0.569   4.418  0.0988  0.7628  0.1218
 1154TIP3    H1 3426   1.185   0.489   4.463 -0.6716  1.2361  0.4798
 1154TIP3    H2 3427   1.310   0.564   4.421  0.1090  1.0837  2.4243
 1155TIP3   OH2 3428   2.554   1.950   1.252 -0.3855  0.4373  0.0842
 1155TIP3    H1 3429   2.551   1.987   1.340  2.1955  0.4695  0.2215
 1155TIP3    H2 3430   2.624   1.886   1.254 -1.4282 -0.8608 -1.5230
 1156TIP3   OH2 3431   6.604   5.479   2.847  0.0674  0.6812  0.0838
 1156TIP3    H1 3432   6.624   5.495   2.755 -0.7115  1.4029  0.0254
 1156TIP3    H2 3433   6.681   5.508   2.895 -0.1309  1.7797 -0.2391
 1157TIP3   OH2 3434   2.347   5.782   2.001 -0.1240 -0.1212 -0.6535
 1157TIP3    H1 3435   2.280   5.755   2.064  1.2574 -0.3012  0.7936
 1157TIP3    H2 3436   2.381   5.700   1.965  1.7318 -0.2819  1.2599
 1158TIP3   OH2 3437   6.824   2.019   0.564  0.2356 -0.0255 -0.0060
 1158TIP3    H1 3438   6.882   1.996   0.491  0.5084  0.8713 -0.0879
 1158TIP3    H2 3439   6.829   2.114   0.569 -0.4970 -0.0087  0.6033
 1159TIP3   OH2 3440   6.525   3.485   0.200  0.0951  0.0281 -0.5748
 1159TIP3    H1 3441   6.615   3.517   0.205  0.0692  0.0642 -0.3144
 1159TIP3    H2 3442   6.529   3.412   0.138  0.7866 -1.5563  1.2167
 1160TIP3   OH2 3443   1.194   5.115   0.625 -0.1044 -0.2532  0.1680
 1160TIP3    H1 3444   1.177   5.116   0.531 -0.0474 -0.3085  0.1572
 1160TIP3    H2 3445   1.269   5.056   0.635 -0.0618 -0.1871  0.2392
 1161TIP3   OH2 3446   0.752   0.847   2.860 -0.1544  0.0731  0.0190
 1161TIP3    H1 3447   0.756   0.752   2.848 -2.3606  0.0978 -1.2013
 1161TIP3    H2 3448   0.660   0.869   2.854  0.3096  2.3317  0.2124
 1162TIP3   OH2 3449   3.350   1.219   3.406 -0.2297 -0.3315  0.1860
 1162TIP3    H1 3450   3.300   1.179   3.477  0.9235 -1.3341  0.4701
 1162TIP3    H2 3451   3.404   1.148   3.372  0.5539  0.5696 -0.5067
 1163TIP3   OH2 3452   6.439   0.894   1.120 -0.0335  0.1695 -0.1238
 1163TIP3    H1 3453   6.363   0.948   1.100  0.0412  0.4441  0.3193
 1163TIP3    H2 3454   6.498   0.906   1.045 -1.4897 -2.0742 -1.7538
 1164TIP3   OH2 3455   3.241   3.065   4.032  0.3961  0.6376  0.4422
 1164TIP3    H1 3456   3.329   3.039   4.059  0.2238  1.1926  1.6139
 1164TIP3    H2 3457   3.199   2.984   4.005  1.8809  0.6254 -2.0882
 1165TIP3   OH2 3458   1.173   1.322   4.164  0.0103  0.1376 -0.1267
 1165TIP3    H1 3459   1.218   1.406   4.169  0.0171  0.1895 -1.0252
 1165TIP3    H2 3460   1.237   1.262   4.127 -0.3081 -0.0443 -0.3847
 1166TIP3   OH2 3461   0.685   2.190   4.031 -0.6871 -0.4177  0.5510
 1166TIP3    H1 3462   0.668   2.190   3.937  0.1204  1.2318  0.3742
 1166TIP3    H2 3463   0.616   2.135   4.067 -0.4888 -1.8404 -1.0743
 1167TIP3   OH2 3464   5.602   2.810   2.135  0.1294  0.2019  0.1786
 1167TIP3    H1 3465   5.621   2.903   2.139 -0.9336  0.4747 -0.6675
 1167TIP3    H2 3466   5.556   2.798   2.052 -0.7847 -0.8742  0.8040
 1168TIP3   OH2 3467   6.528   1.413   1.684  0.2882  0.2537 -0.0657
 1168TIP3    H1 3468   6.566   1.361   1.754 -0.2397 -1.8532 -1.2663
 1168TIP3    H2 3469   6.599   1.424   1.621 -0.0477 -0.4138 -0.5627
 1169TIP3   OH2 3470   6.881   1.010   1.442 -0.5752  0.0207 -0.1824
 1169TIP3    H1 3471   6.915   0.946   1.505 -0.1128  2.4925  2.3105
 1169TIP3    H2 3472   6.797   0.974   1.414 -0.7310 -1.3064  1.7886
 1170TIP3   OH2 3473   3.209   4.008   4.981 -0.0939 -0.2412 -0.0327
 1170TIP3    H1 3474   3.143   3.959   4.932 -1.1531  1.2542 -0.1641
 1170TIP3    H2 3475   3.161   4.080   5.020  1.3038  0.3241  0.7093
 1171TIP3   OH2 3476   6.879   5.514   3.478  0.5336 -0.4588  0.6246
 1171TIP3    H1 3477   6.893   5.420   3.466 -0.1186 -0.4825  0.0262
 1171TIP3    H2 3478   6.841   5.521   3.566 -1.6945 -1.0125 -0.2160
 1172TIP3   OH2 3479   4.728   6.125   3.668  0.1776 -0.0644 -0.1130
 1172TIP3    H1 3480   4.633   6.110   3.672  0.1981 -0.2036 -0.1367
 1172TIP3    H2 3481   4.752   6.148   3.757 -0.0216  0.8473 -0.2832
 1173TIP3   OH2 3482   1.240   0.774   5.392  0.4075  0.5415  0.5186
 1173TIP3    H1 3483   1.175   0.802   5.327  1.1212  1.1035  0.0378
 1173TIP3    H2 3484   1.197   0.702   5.439 -0.2969  0.4488 -0.2479
 1174TIP3   OH2 3485   6.738   4.660   5.735 -0.5403 -0.0379  0.2813
 1174TIP3    H1 3486   6.695   4.605   5.669 -1.1416 -1.3373  1.7014
 1174TIP3    H2 3487   6.681   4.654   5.812  0.4108  1.0177  1.0978
 1175TIP3   OH2 3488   4.986   3.930   1.872  0.0624 -0.4335 -0.1336
 1175TIP3    H1 3489   4.925   3.993   1.911 -0.4715 -1.0548  0.0444
 1175TIP3    H2 3490   4.952   3.915   1.784 -0.3275 -1.1448  0.1294
 1176TIP3   OH2 3491   0.761   2.224   5.625 -0.6965 -0.2117  0.0153
 1176TIP3    H1 3492   0.695   2.158   5.646  1.5930 -1.8372  2.9081
 1176TIP3    H2 3493   0.726   2.306   5.659 -1.6604 -0.8556  0.6152
 1177TIP3   OH2 3494   1.486   4.550   4.603 -0.1355 -0.5281  0.0518
 1177TIP3    H1 3495   1.531   4.501   4.672  0.3730  2.4485  2.0265
 1177TIP3    H2 3496   1.544   4.542   4.527  1.0732 -1.0892  0.9873
 1178TIP3   OH2 3497   3.094   1.893   3.401  1.1446 -0.0761 -0.0637
 1178TIP3    H1 3498   3.129   1.832   3.466 -0.0225 -0.7803 -0.0648
 1178TIP3    H2 3499   3.076   1.972   3.451  0.5835 -0.4928  0.4063
 1179TIP3   OH2 3500   0.976   1.992   3.187  0.2421  0.9464 -0.5387
 1179TIP3    H1 3501   0.986   2.063   3.124  1.2151  0.3716 -1.0658
 1179TIP3    H2 3502   1.040   2.013   3.255  0.8134  0.3854 -0.8929
 1180TIP3   OH2 3503   0.527   5.284   2.373 -0.4980  0.1388  0.0970
 1180TIP3    H1 3504   0.594   5.271   2.306  0.0128  1.1312  0.3856
 1180TIP3    H2 3505   0.492   5.197   2.390 -1.5252 -0.0003 -2.3441
 1181TIP3   OH2 3506   0.277   4.928   4.686  0.5620 -0.4370  0.1156
 1181TIP3    H1 3507   0.232   4.861   4.633  0.5338 -0.5633  0.2968
 1181TIP3    H2 3508   0.309   4.880   4.762 -0.6213 -0.0058  0.9233
 1182TIP3   OH2 3509   0.392   4.128   0.513  0.1359 -0.3503  0.0343
 1182TIP3    H1 3510   0.456   4.178   0.563 -0.3180  1.2789 -0.9529
 1182TIP3    H2 3511   0.338   4.085   0.580  1.2955 -0.5198  0.8827
 1183TIP3   OH2 3512   0.840   2.958   4.192 -0.2264 -0.4253 -0.5866
 1183TIP3    H1 3513   0.927   2.986   4.163 -0.5153  1.4240  0.1785
 1183TIP3    H2 3514   0.857   2.880   4.245  0.9423 -0.2609 -0.6873
 1184TIP3   OH2 3515   0.475   1.545   5.552  0.1439 -0.3325 -0.1448
 1184TIP3    H1 3516   0.482   1.554   5.647 -2.4871 -0.5388  0.1334
 1184TIP3    H2 3517   0.440   1.457   5.538  1.0907 -0.5427 -1.3607
 1185TIP3   OH2 3518   3.276   3.376   1.231  0.4050 -0.2898 -0.0396
 1185TIP3    H1 3519   3.364   3.366   1.267 -0.4031 -1.0606  1.8523
 1185TIP3    H2 3520   3.259   3.470   1.237  1.4635  0.0236 -1.4310
 1186TIP3   OH2 3521   0.883   3.888   1.981 -0.2182 -0.1142  0.3052
 1186TIP3    H1 3522   0.790   3.890   1.957 -0.1507  0.6344  0.0688
 1186TIP3    H2 3523   0.918   3.812   1.935 -0.6235 -0.1401  0.0324
 1187TIP3   OH2 3524   6.518   2.523   4.102 -0.0545  0.1573 -0.2075
 1187TIP3    H1 3525   6.447   2.567   4.056 -0.5806 -0.7869 -0.3308
 1187TIP3    H2 3526   6.597   2.570   4.076 -0.3968 -0.0455 -1.7044
 1188TIP3   OH2 3527   2.300   4.922   1.659  0.4426  0.4337 -0.1268
 1188TIP3    H1 3528   2.393   4.904   1.674  0.3178  0.3008  0.5350
 1188TIP3    H2 3529   2.259   4.909   1.745  0.0030  1.7064 -0.1267
 1189TIP3   OH2 3530   4.680   2.160   1.239 -0.4879 -0.1684  0.2833
 1189TIP3    H1 3531   4.623   2.237   1.232  0.2257  0.5016  1.4958
 1189TIP3    H2 3532   4.625   2.093   1.280 -0.9206 -0.1059 -0.1836
 1190TIP3   OH2 3533   2.307   5.854   3.951 -0.1129 -0.0886 -0.1416
 1190TIP3    H1 3534   2.389   5.811   3.926 -0.6278 -0.6067 -0.9840
 1190TIP3    H2 3535   2.302   5.843   4.046  1.1109  0.5282  0.0177
 1191TIP3   OH2 3536   0.440   6.637   5.186  0.0293 -0.5923 -0.7071
 1191TIP3    H1 3537   0.414   6.607   5.273 -0.6846  0.1910 -0.6379
 1191TIP3    H2 3538   0.498   6.711   5.202  0.3950 -0.8311 -0.9001
 1192TIP3   OH2 3539   0.291   4.627   2.311 -0.0182 -0.1074  0.5683
 1192TIP3    H1 3540   0.308   4.696   2.375 -1.6405 -0.1919  1.1336
 1192TIP3    H2 3541   0.196   4.615   2.313  0.2181 -2.4938  0.6250
 1193TIP3   OH2 3542   5.716   2.855   2.725  0.3827  0.8747  0.1419
 1193TIP3    H1 3543   5.716   2.840   2.819 -0.8792  0.6385  0.1175
 1193TIP3    H2 3544   5.637   2.811   2.693  0.3841  1.5915 -0.9126
 1194TIP3   OH2 3545   1.000   3.571   3.138 -0.1000 -0.2859  0.4554
 1194TIP3    H1 3546   1.022   3.663   3.150  0.7668 -0.4453  0.1515
 1194TIP3    H2 3547   1.040   3.527   3.214 -0.5491 -0.4087  0.6245
 1195TIP3   OH2 3548   3.163   1.403   5.100 -0.1762 -0.1676 -0.3843
 1195TIP3    H1 3549   3.086   1.351   5.075  0.1485 -0.7491 -0.1860
 1195TIP3    H2 3550   3.148   1.489   5.060 -2.6861  0.9189  2.4927
 1196TIP3   OH2 3551   2.118   1.767   5.566 -0.0561 -0.3624 -0.5627
 1196TIP3    H1 3552   2.185   1.746   5.500 -0.3963 -1.4794 -0.5695
 1196TIP3    H2 3553   2.168   1.795   5.643  0.3734  0.0002 -0.9655
 1197TIP3   OH2 3554   0.781   6.411   0.511 -0.4542 -0.1357 -0.1211
 1197TIP3    H1 3555   0.823   6.494   0.488 -0.3726 -0.8915 -3.0375
 1197TIP3    H2 3556   0.739   6.428   0.595 -0.7616  2.9784 -0.8045
 1198TIP3   OH2 3557   5.167   2.969   0.805 -0.0114 -0.0026  0.3394
 1198TIP3    H1 3558   5.100   2.940   0.867 -0.4526  1.0933  0.3967
 1198TIP3    H2 3559   5.249   2.956   0.852 -0.1768 -1.1679  0.3457
 1199TIP3   OH2 3560   5.246   4.886   5.314 -0.6266  0.1096  0.0277
 1199TIP3    H1 3561   5.300   4.819   5.355 -0.7459 -0.0409 -0.0643
 1199TIP3    H2 3562   5.157   4.868   5.345 -0.4898  0.9284  0.9461
 1200TIP3   OH2 3563   0.341   6.262   3.910  0.2938  0.3807 -0.4396
 1200TIP3    H1 3564   0.305   6.281   3.997  1.3930  1.0197 -0.1046
 1200TIP3    H2 3565   0.266   6.229   3.860 -0.8389  1.9668  0.1238
 1201TIP3   OH2 3566   4.437   0.083   5.538  0.0389 -0.3614 -0.2719
 1201TIP3    H1 3567   4.399   0.101   5.624 -0.3039 -2.3109  0.0209
 1201TIP3    H2 3568   4.380   0.127   5.476 -0.5373 -0.1391  0.4106
 1202TIP3   OH2 3569   5.483   2.296   2.547  0.0416 -0.2868  0.1000
 1202TIP3    H1 3570   5.420   2.280   2.477 -0.0581 -4.9226  0.9719
 1202TIP3    H2 3571   5.541   2.221   2.545  1.1449  0.2642  3.8402
 1203TIP3   OH2 3572   6.792   3.124   2.332  0.1269 -0.1732  0.1909
 1203TIP3    H1 3573   6.699   3.102   2.327  0.2673 -1.1067  1.2382
 1203TIP3    H2 3574   6.802   3.200   2.275 -0.9545 -1.0909 -1.3113
 1204TIP3   OH2 3575   3.581   5.346   0.830 -0.1875  0.9532 -0.1061
 1204TIP3    H1 3576   3.503   5.314   0.876  1.4984  0.3065  2.5781
 1204TIP3    H2 3577   3.631   5.267   0.810  0.4471  1.4307 -0.4463
 1205TIP3   OH2 3578   4.178   1.016   1.908 -0.5889  0.1492 -0.1539
 1205TIP3    H1 3579   4.263   1.022   1.952 -1.5241  0.4013  1.7326
 1205TIP3    H2 3580   4.167   0.923   1.889 -1.1624 -0.3752  2.3874
 1206TIP3   OH2 3581   4.990   2.703   5.430 -0.2446  0.4739 -0.0024
 1206TIP3    H1 3582   5.012   2.610   5.429 -0.5721  0.3679  1.1472
 1206TIP3    H2 3583   5.069   2.747   5.462 -0.6533  0.3913  1.1895
 1207TIP3   OH2 3584   0.154   5.137   2.282  0.3400 -0.2589  0.4127
 1207TIP3    H1 3585   0.190   5.209   2.230 -2.4541  0.9078 -0.0991
 1207TIP3    H2 3586   0.130   5.070   2.218 -0.8480  0.1432  0.4109
 1208TIP3   OH2 3587   1.967   2.639   0.969 -0.1456 -0.3889  0.1121
 1208TIP3    H1 3588   1.970   2.730   0.941  1.9899 -0.3438  0.3008
 1208TIP3    H2 3589   1.948   2.643   1.063  1.4719  0.0134  0.4638
 1209TIP3   OH2 3590   6.378   2.228   4.373 -0.3285  0.1904  0.0810
 1209TIP3    H1 3591   6.451   2.169   4.351 -0.5228 -0.2928  0.7086
 1209TIP3    H2 3592   6.351   2.202   4.461 -1.4914  0.1282 -0.2710
 1210TIP3   OH2 3593   3.575   6.454   0.451  0.1008 -0.1638  0.2947
 1210TIP3    H1 3594   3.552   6.361   0.457 -1.7765  0.3061  0.9727
 1210TIP3    H2 3595   3.598   6.467   0.359  0.6227 -1.3252  0.2407
 1211TIP3   OH2 3596   2.255   4.015   0.013 -0.0565  0.1259 -0.1796
 1211TIP3    H1 3597   2.268   4.089   0.073 -1.2465  2.1018 -2.2077
 1211TIP3    H2 3598   2.160   4.010   0.002  0.0822 -0.9437 -0.9915
 1212TIP3   OH2 3599   3.772   2.624   2.914 -0.1904  0.2187  0.1038
 1212TIP3    H1 3600   3.713   2.549   2.914  0.5856 -0.4041  0.4838
 1212TIP3    H2 3601   3.857   2.588   2.938  0.4198  1.0460 -0.7176
 1213TIP3   OH2 3602   2.269   2.236   5.421 -0.0102 -0.8239 -0.1493
 1213TIP3    H1 3603   2.332   2.272   5.359 -0.5436 -0.6819 -0.6180
 1213TIP3    H2 3604   2.183   2.263   5.387 -0.3181 -0.9046  0.5477
 1214TIP3   OH2 3605   5.166   1.348   1.622 -0.0363  0.4003  0.8688
 1214TIP3    H1 3606   5.241   1.289   1.630 -0.1275  0.4114  1.9472
 1214TIP3    H2 3607   5.090   1.290   1.630 -0.1831  0.2832 -0.9578
 1215TIP3   OH2 3608   1.245   6.649   2.756 -0.0430 -0.1589  0.4012
 1215TIP3    H1 3609   1.236   6.632   2.849 -0.1911 -0.6807  0.2927
 1215TIP3    H2 3610   1.169   6.703   2.734 -0.8213 -1.2833  0.2815
 1216TIP3   OH2 3611   3.621   2.746   1.452  0.1464 -0.4073 -0.6429
 1216TIP3    H1 3612   3.541   2.735   1.399 -0.0584 -0.4787 -0.3202
 1216TIP3    H2 3613   3.607   2.690   1.528 -0.8516  1.9270  0.9819
 1217TIP3   OH2 3614   4.919   1.488   1.742  0.2042  0.4075 -0.1287
 1217TIP3    H1 3615   4.867   1.420   1.700  1.3053  0.0079 -0.8815
 1217TIP3    H2 3616   5.008   1.474   1.710  0.9643  0.5374  1.8048
 1218TIP3   OH2 3617   6.477   0.872   0.399 -0.5020 -0.0606 -0.0725
 1218TIP3    H1 3618   6.398   0.891   0.449 -1.5367 -2.1003 -0.7892
 1218TIP3    H2 3619   6.452   0.892   0.308 -0.4419 -1.2203 -0.3714
 1219TIP3   OH2 3620   5.913   1.920   2.213 -0.2651  0.5114 -0.0687
 1219TIP3    H1 3621   5.837   1.942   2.266 -1.3586 -1.0920 -0.8784
 1219TIP3    H2 3622   5.908   1.980   2.138 -1.9831 -0.9340 -1.1805
 1220TIP3   OH2 3623   4.571   1.357   4.870  0.1402  0.2996  0.5422
 1220TIP3    H1 3624   4.520   1.379   4.792 -1.9635 -0.0291  1.7275
 1220TIP3    H2 3625   4.513   1.380   4.943  0.7200 -2.2882  1.9489
 1221TIP3   OH2 3626   2.408   3.754   1.528  0.3747 -0.0982 -0.2684
 1221TIP3    H1 3627   2.486   3.795   1.565 -0.7183  0.9840  0.9340
 1221TIP3    H2 3628   2.377   3.817   1.462 -2.1101  1.9218  2.5508
 1222TIP3   OH2 3629   6.645   2.468   3.757 -0.2413  0.1859 -0.3376
 1222TIP3    H1 3630   6.694   2.542   3.723 -0.8551  0.9840  0.4507
 1222TIP3    H2 3631   6.553   2.488   3.736 -0.4123 -0.3522 -0.1236
 1223TIP3   OH2 3632   2.165   3.004   3.671  0.3779 -0.6684  0.1276
 1223TIP3    H1 3633   2.137   3.061   3.599  0.3864  0.8102  1.2471
 1223TIP3    H2 3634   2.133   3.048   3.750  0.6321 -2.0946  1.0606
 1224TIP3   OH2 3635   1.616   5.440  -0.025 -0.0330  0.1776 -0.4038
 1224TIP3    H1 3636   1.651   5.495   0.046  1.5367 -0.6936 -0.4464
 1224TIP3    H2 3637   1.525   5.426  -0.001  1.0540 -2.4082  3.0826
 1225TIP3   OH2 3638   2.908   1.607   1.005 -0.3184 -0.0700 -0.3405
 1225TIP3    H1 3639   2.942   1.518   1.014  0.3641  0.2930  0.8443
 1225TIP3    H2 3640   2.917   1.627   0.912  1.6926 -0.4025 -0.2543
 1226TIP3   OH2 3641   1.109   2.239   5.004  0.3204 -0.5122 -0.2915
 1226TIP3    H1 3642   1.195   2.213   5.036  0.1333 -2.0043 -0.9007
 1226TIP3    H2 3643   1.126   2.316   4.950  0.8801  0.8532  1.7635
 1227TIP3   OH2 3644   0.522   4.732   4.515 -0.5183  0.0438 -0.3214
 1227TIP3    H1 3645   0.507   4.800   4.581  0.7231  0.4073 -0.3813
 1227TIP3    H2 3646   0.617   4.731   4.503 -0.6603 -0.5060 -1.5847
 1228TIP3   OH2 3647   0.339   0.278   2.946  0.5219 -0.1900 -0.1375
 1228TIP3    H1 3648   0.358   0.197   2.899 -0.4251 -1.7271  1.9441
 1228TIP3    H2 3649   0.247   0.296   2.927  0.6314  0.2109 -0.3053
 1229TIP3   OH2 3650   0.341   1.694   0.447 -0.3826  0.4114  0.1367
 1229TIP3    H1 3651   0.275   1.658   0.387 -0.7227  0.6659  0.3609
 1229TIP3    H2 3652   0.298   1.768   0.489  0.0232  0.5346  0.3365
 1230TIP3   OH2 3653   2.116   2.408   1.032  0.3342 -0.0350 -0.5349
 1230TIP3    H1 3654   2.094   2.501   1.023 -2.1450 -0.6624 -2.0146
 1230TIP3    H2 3655   2.052   2.375   1.096  1.7993 -0.5817  0.7005
 1231TIP3   OH2 3656   2.253   6.465   1.385  0.2120  0.6352 -0.5543
 1231TIP3    H1 3657   2.264   6.383   1.337 -0.0569 -0.6408  1.4544
 1231TIP3    H2 3658   2.340   6.506   1.382  0.7394 -0.4352 -0.3374
 1232TIP3   OH2 3659   6.600   3.979   4.836  0.3078 -0.1233  0.5804
 1232TIP3    H1 3660   6.546   4.010   4.763  1.2034  0.1856  0.0240
 1232TIP3    H2 3661   6.541   3.928   4.891 -0.7779  1.0373  0.5266
 1233TIP3   OH2 3662   6.945   2.110   3.299 -0.0268  0.0850  0.0600
 1233TIP3    H1 3663   7.017   2.051   3.322 -0.6989 -0.6196  0.3848
 1233TIP3    H2 3664   6.879   2.096   3.367 -0.3476  0.9664 -0.0462
 1234TIP3   OH2 3665   6.836   6.506   3.266 -0.2335 -0.1997  0.2550
 1234TIP3    H1 3666   6.819   6.549   3.350  1.4220  1.4493 -0.1882
 1234TIP3    H2 3667   6.752   6.468   3.241 -0.4211 -2.3902  3.4911
 1235TIP3   OH2 3668   2.924   0.002   4.255  0.0959 -0.6631  0.2042
 1235TIP3    H1 3669   2.889  -0.022   4.170  0.6144 -0.2035 -0.1476
 1235TIP3    H2 3670   2.931   0.098   4.252  0.0679 -0.6373  0.7795
 1236TIP3   OH2 3671   3.856   1.022   0.651  0.1048 -0.3728  0.0843
 1236TIP3    H1 3672   3.951   1.034   0.653  0.0568  0.0691  2.1700
 1236TIP3    H2 3673   3.825   1.069   0.728 -1.9326  0.3020 -1.0882
 1237TIP3   OH2 3674   0.274   2.758   2.519  0.2329 -0.2396 -0.3866
 1237TIP3    H1 3675   0.199   2.698   2.510  0.9107 -1.0916 -0.4457
 1237TIP3    H2 3676   0.317   2.756   2.434  0.8000 -0.4128 -0.1031
 1238TIP3   OH2 3677   6.580   3.368   1.153  0.7501  0.1883 -0.5446
 1238TIP3    H1 3678   6.635   3.446   1.157  0.5572  0.3334 -0.7264
 1238TIP3    H2 3679   6.514   3.388   1.087  0.9648 -0.2973 -0.9160
 1239TIP3   OH2 3680   1.583   3.813   5.643 -0.5252  0.2946 -0.2344
 1239TIP3    H1 3681   1.590   3.804   5.738  0.1538 -0.6267 -0.3698
 1239TIP3    H2 3682   1.544   3.900   5.631 -0.1375  0.6369  0.8667
 1240TIP3   OH2 3683   1.223   5.201   3.847 -0.3354  0.3195  0.0718
 1240TIP3    H1 3684   1.294   5.164   3.795  0.0494 -0.5573  1.1779
 1240TIP3    H2 3685   1.174   5.255   3.785  0.8021  0.2803 -0.9021
 1241TIP3   OH2 3686   4.145   5.343   0.689 -0.2544  0.4032  0.1118
 1241TIP3    H1 3687   4.172   5.307   0.605 -1.9928  1.8176 -1.1251
 1241TIP3    H2 3688   4.120   5.266   0.740 -0.2591 -0.4183 -1.0768
 1242TIP3   OH2 3689   4.700   1.380   5.170  0.6432  0.3186  0.2178
 1242TIP3    H1 3690   4.717   1.349   5.259  0.2389  2.2970  1.0434
 1242TIP3    H2 3691   4.671   1.302   5.122 -0.5453 -0.5433  2.2023
 1243TIP3   OH2 3692   5.300   6.504   4.243  0.5688 -0.2285 -0.2040
 1243TIP3    H1 3693   5.382   6.488   4.196  0.6581 -1.8414  0.4351
 1243TIP3    H2 3694   5.235   6.456   4.193  0.0916  0.6222 -0.4145
 1244TIP3   OH2 3695   5.302   2.111   3.915 -0.2635 -0.0874 -0.2593
 1244TIP3    H1 3696   5.294   2.151   3.828 -1.4929  1.1695  0.4034
 1244TIP3    H2 3697   5.283   2.018   3.900  1.2514 -0.2360 -1.5992
 1245TIP3   OH2 3698   5.047   2.104   4.572  0.3281  0.1548  0.7293
 1245TIP3    H1 3699   5.102   2.181   4.576  0.9865 -0.3125  0.8034
 1245TIP3    H2 3700   4.965   2.135   4.532  0.7243  0.8002  0.4054
 1246TIP3   OH2 3701   5.136   0.568   4.774 -0.0820 -0.6827  0.3640
 1246TIP3    H1 3702   5.211   0.528   4.819  0.5955 -0.9456 -0.9630
 1246TIP3    H2 3703   5.147   0.544   4.682 -1.1609  0.2711 -0.0375
 1247TIP3   OH2 3704   6.124   6.760   3.225 -0.7482 -0.4962 -0.0496
 1247TIP3    H1 3705   6.166   6.828   3.279  0.0088  1.9351 -3.3427
 1247TIP3    H2 3706   6.197   6.707   3.193 -0.9460 -0.5779 -0.3688
 1248TIP3   OH2 3707   3.649   4.537   2.295  0.2531  0.0745 -0.0961
 1248TIP3    H1 3708   3.690   4.617   2.263 -0.3144  0.1275 -0.7201
 1248TIP3    H2 3709   3.557   4.561   2.308 -0.1878 -0.7862 -1.4677
 1249TIP3   OH2 3710   5.228   4.968   0.698 -0.5763  0.1088 -0.2105
 1249TIP3    H1 3711   5.293   4.966   0.769 -0.3603  0.0099 -0.4115
 1249TIP3    H2 3712   5.201   4.877   0.688  0.2994 -0.0701 -1.0874
 1250TIP3   OH2 3713   1.095   4.844   1.633  0.0807 -0.4966 -0.2420
 1250TIP3    H1 3714   1.115   4.808   1.719  0.8221  0.7574  0.1328
 1250TIP3    H2 3715   1.169   4.901   1.612 -1.2021  1.1477 -0.5935
 1251TIP3   OH2 3716   4.902   2.903   3.434 -0.3952  0.9948 -0.0968
 1251TIP3    H1 3717   4.936   2.837   3.493 -0.6956 -1.3810 -2.3799
 1251TIP3    H2 3718   4.808   2.908   3.455 -0.2107  1.3510  0.6550
 1252TIP3   OH2 3719   6.569   3.609   5.304  0.3333 -0.7107  0.5088
 1252TIP3    H1 3720   6.636   3.603   5.236  0.2845 -0.8835  0.4761
 1252TIP3    H2 3721   6.498   3.659   5.264  0.2579 -0.9083  0.3958
 1253TIP3   OH2 3722   3.977   1.166   0.967 -0.0941 -0.1625  0.1055
 1253TIP3    H1 3723   3.884   1.157   0.945 -0.1015 -1.1556  0.5024
 1253TIP3    H2 3724   3.983   1.252   1.008 -0.3727  1.0340 -2.1965
 1254TIP3   OH2 3725   1.586   6.602   2.003  0.3280 -0.3200  0.3829
 1254TIP3    H1 3726   1.567   6.582   2.094  1.3036 -2.6676  0.1393
 1254TIP3    H2 3727   1.515   6.562   1.954  0.3643  0.0151  0.0488
 1255TIP3   OH2 3728   1.490   6.106   2.052 -0.1351  0.0132 -0.0705
 1255TIP3    H1 3729   1.456   6.059   1.976 -1.8733 -0.5143  0.9555
 1255TIP3    H2 3730   1.570   6.058   2.076 -0.1842 -0.4969 -0.8810
 1256TIP3   OH2 3731   2.811   6.718   2.446 -0.0026  0.6143 -0.0093
 1256TIP3    H1 3732   2.740   6.767   2.488 -1.1392  0.5156 -1.7313
 1256TIP3    H2 3733   2.785   6.627   2.453 -0.7527  0.6517 -1.7879
 1257TIP3   OH2 3734   1.467   5.086   1.080 -0.1041  1.0876 -0.1492
 1257TIP3    H1 3735   1.376   5.075   1.055 -0.5260  1.3546  1.2077
 1257TIP3    H2 3736   1.476   5.179   1.101 -0.0379  0.7223  1.5876
 1258TIP3   OH2 3737   4.737   2.425   2.336  0.2530  0.8671  0.4485
 1258TIP3    H1 3738   4.694   2.422   2.250 -1.4726  0.7974  1.2577
 1258TIP3    H2 3739   4.753   2.518   2.352  1.7012  0.7975 -0.4401
 1259TIP3   OH2 3740   6.341   1.416   3.685 -0.0979 -0.2552  0.2919
 1259TIP3    H1 3741   6.314   1.340   3.736 -0.7110  0.7493  1.5170
 1259TIP3    H2 3742   6.414   1.453   3.735 -1.2144  1.1912  0.9188
 1260TIP3   OH2 3743   3.117   6.640   3.632  0.1432  0.1637  0.4737
 1260TIP3    H1 3744   3.150   6.608   3.716  0.4212 -1.0878 -0.0815
 1260TIP3    H2 3745   3.189   6.624   3.571 -0.4944 -0.0904 -0.2335
 1261TIP3   OH2 3746   6.655   2.879   1.098 -0.4302 -0.3665 -0.7298
 1261TIP3    H1 3747   6.658   2.967   1.061  0.7284 -0.6389 -1.3286
 1261TIP3    H2 3748   6.565   2.869   1.129 -0.5072  1.1328 -0.3803
 1262TIP3   OH2 3749   4.682   1.544   1.474  0.4085  0.4158 -0.2140
 1262TIP3    H1 3750   4.595   1.539   1.434  0.9975  0.6428 -1.5798
 1262TIP3    H2 3751   4.742   1.521   1.404  1.4854  0.5555  0.6327
 1263TIP3   OH2 3752   2.740   1.555   4.823  0.5171  0.2910  0.0738
 1263TIP3    H1 3753   2.725   1.606   4.902  1.0237  0.5072  0.0319
 1263TIP3    H2 3754   2.665   1.576   4.767 -0.3309 -0.5823  0.8540
 1264TIP3   OH2 3755   4.735   0.153   2.324  0.1018 -0.3547  0.1575
 1264TIP3    H1 3756   4.732   0.076   2.268 -1.7370 -1.1326  1.2395
 1264TIP3    H2 3757   4.801   0.132   2.390  0.5333 -0.4339 -0.2875
 1265TIP3   OH2 3758   0.867   3.175   4.681 -0.2740 -0.0654  0.3621
 1265TIP3    H1 3759   0.935   3.188   4.614  0.5773 -0.6548  1.0918
 1265TIP3    H2 3760   0.816   3.256   4.679  1.6143  1.2205  1.1010
 1266TIP3   OH2 3761   6.990   1.190   2.406  0.3933 -0.1230  0.3980
 1266TIP3    H1 3762   6.952   1.126   2.466 -0.9688 -0.8584 -1.1606
 1266TIP3    H2 3763   7.067   1.147   2.370  0.7329 -0.0028  0.9626
 1267TIP3   OH2 3764   1.014   0.056   1.899 -0.1046  0.7331 -0.2787
 1267TIP3    H1 3765   1.061   0.005   1.832 -0.7205  0.6388 -0.6503
 1267TIP3    H2 3766   0.994  -0.008   1.968 -0.2132  0.6376 -0.3973
 1268TIP3   OH2 3767   1.209   4.134   4.376 -0.2367  0.1964 -0.2293
 1268TIP3    H1 3768   1.130   4.084   4.396 -0.7653  0.7166 -0.9551
 1268TIP3    H2 3769   1.275   4.102   4.438 -0.8208 -0.7373 -0.0783
 1269TIP3   OH2 3770   0.050   4.999   2.893 -0.3175 -0.4629 -0.2364
 1269TIP3    H1 3771   0.009   4.939   2.831  0.4194 -1.6345  0.3866
 1269TIP3    H2 3772   0.141   5.005   2.865 -0.0531 -0.7516  0.5215
 1270TIP3   OH2 3773   2.939   1.853   4.958 -0.6299 -0.3782  0.1656
 1270TIP3    H1 3774   2.945   1.901   4.876 -0.3345 -2.3780 -1.0404
 1270TIP3    H2 3775   2.847   1.862   4.984 -1.0618 -0.8473 -1.1245
 1271TIP3   OH2 3776  -0.003   5.998   4.288  0.4218 -0.9508  0.8515
 1271TIP3    H1 3777   0.014   6.025   4.197 -2.8658 -2.3039 -0.3090
 1271TIP3    H2 3778   0.073   5.944   4.311  0.6183 -1.9444 -1.7400
 1272TIP3   OH2 3779   4.355   1.159   2.996 -0.3303 -0.2598 -0.0839
 1272TIP3    H1 3780   4.334   1.243   2.957  1.1994  0.5224  0.6727
 1272TIP3    H2 3781   4.422   1.122   2.938  0.5027  0.0118  0.6719
 1273TIP3   OH2 3782   1.483   1.176   3.817 -0.3474  0.5855  0.1303
 1273TIP3    H1 3783   1.388   1.167   3.808 -0.4948 -1.2386  2.5091
 1273TIP3    H2 3784   1.498   1.269   3.829 -1.9080  0.8364  0.2806
 1274TIP3   OH2 3785   3.428   0.252   5.249 -0.0752  0.0535  0.2367
 1274TIP3    H1 3786   3.430   0.198   5.328 -0.7151 -0.0367  0.2001
 1274TIP3    H2 3787   3.517   0.286   5.240  0.4203 -1.2750  0.0545
 1275TIP3   OH2 3788   3.552   4.852   2.457 -0.2012 -0.4893 -0.6991
 1275TIP3    H1 3789   3.506   4.933   2.475  0.8741 -0.5117  2.7007
 1275TIP3    H2 3790   3.640   4.879   2.430  0.4506 -0.4499  1.3310
 1276TIP3   OH2 3791   4.028   4.581   2.942 -0.4098  0.0070  0.0269
 1276TIP3    H1 3792   3.986   4.497   2.960  0.2824 -0.3425  0.0317
 1276TIP3    H2 3793   4.041   4.620   3.029  2.2528 -1.3520  0.3441
 1277TIP3   OH2 3794   0.085   3.237   0.698  0.9084 -0.0708  0.0843
 1277TIP3    H1 3795   0.022   3.219   0.768 -0.5858  1.7072 -0.7136
 1277TIP3    H2 3796   0.043   3.203   0.619  0.1023  2.5297 -0.7131
 1278TIP3   OH2 3797   4.304   4.124   1.672 -0.8444 -0.1435 -0.0562
 1278TIP3    H1 3798   4.333   4.076   1.594 -0.0186 -0.8821  0.6773
 1278TIP3    H2 3799   4.265   4.057   1.728  0.4238 -0.0214  1.0334
 1279TIP3   OH2 3800   2.029   0.799   4.160  0.1209 -0.3094  0.0741
 1279TIP3    H1 3801   1.978   0.752   4.094 -0.7038  1.3827 -0.5589
 1279TIP3    H2 3802   2.115   0.811   4.119  1.2119 -3.2972  1.2025
 1280TIP3   OH2 3803   6.214   3.647   2.017 -0.1804  0.4652  0.2514
 1280TIP3    H1 3804   6.291   3.612   1.972 -0.4017 -0.4043  0.5346
 1280TIP3    H2 3805   6.170   3.570   2.053  0.3427  1.1396  2.5275
 1281TIP3   OH2 3806   5.723   0.400   5.269  0.1193 -0.3457  0.3479
 1281TIP3    H1 3807   5.693   0.487   5.293 -0.4939 -1.0429  2.3214
 1281TIP3    H2 3808   5.810   0.392   5.309 -0.2666 -0.9845  1.0967
 1282TIP3   OH2 3809   6.688   1.805   5.570 -0.4421 -1.0028  0.2749
 1282TIP3    H1 3810   6.630   1.881   5.578  0.3093 -0.2312 -1.1823
 1282TIP3    H2 3811   6.718   1.787   5.660 -0.7344  0.3506  0.6571
 1283TIP3   OH2 3812   4.076   3.777   2.909 -0.6695  0.1925 -0.6064
 1283TIP3    H1 3813   3.998   3.817   2.946  0.3793  1.4799  0.2962
 1283TIP3    H2 3814   4.118   3.846   2.858  2.2165  1.0510  2.5722
 1284TIP3   OH2 3815   1.507   1.312   5.212  0.4438 -0.3255 -0.3911
 1284TIP3    H1 3816   1.526   1.371   5.285 -0.0691 -0.3801 -0.2073
 1284TIP3    H2 3817   1.453   1.243   5.251  0.6278 -0.6530 -0.7096
 1285TIP3   OH2 3818   1.101   6.562   3.170 -0.6379 -0.2948 -0.4532
 1285TIP3    H1 3819   1.176   6.609   3.134  0.2696 -0.3798  1.2270
 1285TIP3    H2 3820   1.027   6.621   3.158 -0.3821 -0.3012 -2.3452
 1286TIP3   OH2 3821   1.855   2.207   0.870  0.8593  0.2513 -0.0377
 1286TIP3    H1 3822   1.817   2.146   0.933  0.0098 -0.8525 -1.5467
 1286TIP3    H2 3823   1.947   2.180   0.862  0.1774 -1.8442 -1.7269
 1287TIP3   OH2 3824   0.157   2.639   0.970  0.3535  0.5241  0.3067
 1287TIP3    H1 3825   0.133   2.567   1.029 -1.9075  0.8100 -0.1672
 1287TIP3    H2 3826   0.151   2.717   1.025 -0.0456  0.6192  0.1313
 1288TIP3   OH2 3827   0.538   5.032   2.528  0.1040  0.0364  0.4984
 1288TIP3    H1 3828   0.595   5.096   2.571  0.3158  0.9773 -1.0901
 1288TIP3    H2 3829   0.598   4.966   2.493  0.3087  1.1141 -1.3191
 1289TIP3   OH2 3830   2.228   1.794   3.709  0.0084  0.1411  0.5611
 1289TIP3    H1 3831   2.240   1.793   3.804 -2.0712  1.8879  0.9128
 1289TIP3    H2 3832   2.136   1.816   3.697  0.6381  1.8726 -1.8443
 1290TIP3   OH2 3833   4.277   2.933   2.663  0.7527  0.3709  0.1735
 1290TIP3    H1 3834   4.227   2.996   2.714 -1.3068 -0.6125 -0.5220
 1290TIP3    H2 3835   4.324   2.881   2.728  1.0776  1.4598  0.8387
 1291TIP3   OH2 3836   3.611   6.569   2.085  0.2129 -0.0594  0.1870
 1291TIP3    H1 3837   3.563   6.619   2.150  2.0117  1.2546  0.5757
 1291TIP3    H2 3838   3.689   6.537   2.131  0.7268 -0.4374 -0.8935
 1292TIP3   OH2 3839   2.909   5.318   4.634 -0.0810 -0.3142 -0.2375
 1292TIP3    H1 3840   2.905   5.223   4.645  0.8969 -0.3681 -0.2352
 1292TIP3    H2 3841   2.874   5.354   4.715  1.5866 -0.6972  0.7171
 1293TIP3   OH2 3842   2.473   4.230   2.489  0.0178  0.7715  0.1319
 1293TIP3    H1 3843   2.454   4.209   2.397 -0.2118 -1.2200  0.5825
 1293TIP3    H2 3844   2.531   4.160   2.517 -2.4655 -0.5612  2.3838
 1294TIP3   OH2 3845   6.902   5.052   5.699  0.4566 -0.6303  0.4185
 1294TIP3    H1 3846   6.848   5.127   5.673  0.5012 -0.5631  0.5197
 1294TIP3    H2 3847   6.934   5.075   5.787 -0.5145 -1.3046  0.9549
 1295TIP3   OH2 3848   3.262   6.585   1.693 -0.4702 -0.2335 -0.4445
 1295TIP3    H1 3849   3.305   6.619   1.773  1.2635  0.5376 -1.6399
 1295TIP3    H2 3850   3.177   6.554   1.724  0.2156 -0.1523  1.7500
 1296TIP3   OH2 3851   5.730   4.144   5.753 -0.7380  0.6619 -0.3899
 1296TIP3    H1 3852   5.807   4.132   5.697 -0.9449  0.3755 -0.6171
 1296TIP3    H2 3853   5.658   4.103   5.704 -0.9216  0.4148  0.0807
 1297TIP3   OH2 3854   0.468   0.669   5.081  0.5059  0.3130  0.0453
 1297TIP3    H1 3855   0.472   0.743   5.143  0.8897  0.5127 -0.2107
 1297TIP3    H2 3856   0.551   0.674   5.033  1.0686 -0.9942  0.8320
 1298TIP3   OH2 3857   3.263   2.092   2.848 -0.2092  0.2214 -0.7408
 1298TIP3    H1 3858   3.240   2.176   2.888 -2.9755 -0.7147 -0.1529
 1298TIP3    H2 3859   3.304   2.042   2.919  0.5080  0.6769 -0.8191
 1299TIP3   OH2 3860   3.546   6.186   4.666  0.6314 -0.2121  0.0079
 1299TIP3    H1 3861   3.459   6.219   4.645  0.2044 -0.5540  1.1573
 1299TIP3    H2 3862   3.532   6.094   4.688  1.3225 -0.3306 -0.0234
 1300TIP3   OH2 3863   2.161   5.167   4.017  0.3739  0.3351  0.3477
 1300TIP3    H1 3864   2.094   5.234   4.024  0.7521  0.7598 -0.0377
 1300TIP3    H2 3865   2.183   5.165   3.923  1.1269  0.4316  0.5153
 1301TIP3   OH2 3866   0.721   2.431   3.164 -0.2010 -0.4007  0.5277
 1301TIP3    H1 3867   0.743   2.469   3.079 -2.7472 -1.4875 -0.7148
 1301TIP3    H2 3868   0.727   2.504   3.226  0.1464  0.7737 -0.8371
 1302TIP3   OH2 3869   3.265   3.285   0.291  0.4985  0.4150 -0.1098
 1302TIP3    H1 3870   3.264   3.360   0.231 -2.6219  0.2621 -0.4125
 1302TIP3    H2 3871   3.205   3.222   0.251  1.5483 -1.4792  1.1371
 1303TIP3   OH2 3872   1.781   2.740   0.567 -0.4571 -0.2990  0.3742
 1303TIP3    H1 3873   1.812   2.831   0.567 -0.1220 -0.3987 -0.6113
 1303TIP3    H2 3874   1.852   2.691   0.525 -1.5507 -0.6805 -1.1111
 1304TIP3   OH2 3875   2.580   1.583   5.681  0.1852  0.0386 -0.0389
 1304TIP3    H1 3876   2.601   1.541   5.765  1.0780 -0.5529 -0.5439
 1304TIP3    H2 3877   2.630   1.533   5.616  0.6014  1.3515 -0.7619
 1305TIP3   OH2 3878   6.237   2.652   1.562  0.6461 -0.2719  0.1205
 1305TIP3    H1 3879   6.239   2.690   1.474  1.2904  0.3136  0.3819
 1305TIP3    H2 3880   6.241   2.727   1.621 -1.6741 -0.5090  0.6945
 1306TIP3   OH2 3881   2.671   5.495   4.017  0.2547  0.1644 -0.2429
 1306TIP3    H1 3882   2.597   5.501   4.078  0.2985 -1.0045 -0.0544
 1306TIP3    H2 3883   2.733   5.437   4.060  0.4446 -0.3896 -1.2346
 1307TIP3   OH2 3884   1.763   3.161   0.173  0.1645 -0.4860 -0.3320
 1307TIP3    H1 3885   1.736   3.239   0.124 -0.9883 -1.2784 -1.0077
 1307TIP3    H2 3886   1.835   3.191   0.228 -1.1211  1.3944  0.4446
 1308TIP3   OH2 3887   5.340   4.336   2.135 -0.1418 -0.0144  0.5446
 1308TIP3    H1 3888   5.408   4.399   2.158  1.3907 -0.6742 -1.8526
 1308TIP3    H2 3889   5.279   4.386   2.080  0.9515 -0.4834 -1.1656
 1309TIP3   OH2 3890   1.927   3.791   0.940 -0.2727  0.0192  0.3875
 1309TIP3    H1 3891   1.843   3.745   0.937  0.1091 -0.7212  0.6627
 1309TIP3    H2 3892   1.928   3.831   1.027 -0.5621  0.4661  0.1875
 1310TIP3   OH2 3893   1.061   5.633   5.593 -0.0743 -0.3344 -0.4904
 1310TIP3    H1 3894   1.131   5.698   5.584 -0.7650  0.7848  1.6821
 1310TIP3    H2 3895   1.093   5.573   5.661 -0.0241 -1.5526 -1.5418
 1311TIP3   OH2 3896   5.526   4.864   1.215  0.4042 -0.4968 -0.3751
 1311TIP3    H1 3897   5.601   4.805   1.206 -0.3610 -1.4179 -0.8300
 1311TIP3    H2 3898   5.501   4.858   1.307  1.1041  0.0893 -0.1412
 1312TIP3   OH2 3899   0.070   6.004   2.029  0.0765 -0.0429 -0.1008
 1312TIP3    H1 3900   0.128   5.938   1.991  0.5498  0.5442 -0.4217
 1312TIP3    H2 3901   0.120   6.086   2.024 -1.2166  0.7183 -1.5097
 1313TIP3   OH2 3902   3.780   1.228   4.019  0.2340  0.1020  0.5739
 1313TIP3    H1 3903   3.770   1.275   3.936 -0.3829 -0.3546  0.3849
 1313TIP3    H2 3904   3.711   1.162   4.018  1.1748 -0.9169  0.7784
 1314TIP3   OH2 3905   6.849   1.726   1.327  0.3265  0.1703  0.3123
 1314TIP3    H1 3906   6.778   1.757   1.270 -1.6373 -2.3386  1.1931
 1314TIP3    H2 3907   6.897   1.805   1.351 -2.4995  2.1046  0.0734
 1315TIP3   OH2 3908   3.862   0.145   2.660 -0.1029  0.6158 -0.0428
 1315TIP3    H1 3909   3.887   0.090   2.735 -0.4424 -0.6667 -0.8293
 1315TIP3    H2 3910   3.862   0.234   2.694  0.0689  0.0901  1.3989
 1316TIP3   OH2 3911   7.176   2.836   0.474 -0.0374  0.2680  0.0280
 1316TIP3    H1 3912   7.162   2.931   0.471 -1.1392  0.1187 -0.2254
 1316TIP3    H2 3913   7.267   2.824   0.447 -0.5020  1.1166 -2.1293
 1317TIP3   OH2 3914   4.404   0.308   1.104 -0.6850 -0.1853  0.2737
 1317TIP3    H1 3915   4.377   0.226   1.145 -0.3562 -0.1524  0.5592
 1317TIP3    H2 3916   4.498   0.312   1.117 -0.4793 -0.4468 -0.9844
 1318TIP3   OH2 3917   3.023   3.269   2.564  0.7846  0.5586 -0.3352
 1318TIP3    H1 3918   3.047   3.288   2.473 -0.1877 -0.0799 -0.7467
 1318TIP3    H2 3919   2.953   3.204   2.557  0.5967  0.6059  0.8729
 1319TIP3   OH2 3920   6.043   5.075   1.078 -0.0125  0.0349  0.0552
 1319TIP3    H1 3921   6.085   5.161   1.081  0.4485 -0.2104  1.0306
 1319TIP3    H2 3922   6.074   5.035   0.997  0.0677  0.6333 -0.2131
 1320TIP3   OH2 3923   1.595   6.755   3.252  0.3235 -0.3826  0.1630
 1320TIP3    H1 3924   1.590   6.830   3.312 -1.7486 -0.1359 -0.2267
 1320TIP3    H2 3925   1.573   6.792   3.166 -0.4379 -1.3537 -0.0822
 1321TIP3   OH2 3926   6.701   5.382   4.454 -0.2089 -0.1545  0.5140
 1321TIP3    H1 3927   6.645   5.330   4.511 -0.5831 -1.1805 -0.7327
 1321TIP3    H2 3928   6.654   5.465   4.444  0.0296  0.1727  1.9336
 1322TIP3   OH2 3929   6.143   6.087   5.426  0.7161 -0.4092  0.0303
 1322TIP3    H1 3930   6.047   6.079   5.427  0.6591  0.2116 -0.2752
 1322TIP3    H2 3931   6.173   6.000   5.399  0.1637 -0.1734 -1.4917
 1323TIP3   OH2 3932   5.896   0.823   4.847  0.0141 -0.0977 -0.1025
 1323TIP3    H1 3933   5.842   0.764   4.795  0.4686 -0.7687  0.1722
 1323TIP3    H2 3934   5.873   0.910   4.816 -1.3109 -0.3612  0.0811
 1324TIP3   OH2 3935   1.840   2.915   4.116  0.3163 -0.1284  0.1436
 1324TIP3    H1 3936   1.892   2.942   4.041  0.0351 -0.6694 -0.2497
 1324TIP3    H2 3937   1.877   2.964   4.190  0.6771  0.3049 -0.3208
 1325TIP3   OH2 3938   3.307   2.701   5.624 -0.0912 -0.1434  0.0261
 1325TIP3    H1 3939   3.220   2.684   5.589 -0.8442 -0.5207  1.9482
 1325TIP3    H2 3940   3.358   2.623   5.604 -0.7954 -0.7668  0.6390
 1326TIP3   OH2 3941   6.476   4.909   1.769 -0.3491  0.0675  0.1486
 1326TIP3    H1 3942   6.477   4.995   1.728  0.2728  0.3684  0.7778
 1326TIP3    H2 3943   6.554   4.908   1.824 -1.6265  0.0212  2.0293
 1327TIP3   OH2 3944   2.962   2.990   1.179  0.3065 -0.0518  0.0763
 1327TIP3    H1 3945   2.955   3.085   1.194 -0.6613 -0.3919  2.2765
 1327TIP3    H2 3946   2.998   2.956   1.261  1.4454 -1.5210 -0.9985
 1328TIP3   OH2 3947   6.404   4.406   2.921 -0.3163  0.2849 -0.0828
 1328TIP3    H1 3948   6.320   4.408   2.874 -1.3705  0.1847  1.6748
 1328TIP3    H2 3949   6.403   4.486   2.974 -0.3341 -0.7673  1.5847
 1329TIP3   OH2 3950   5.477   0.811   2.000 -0.0753  0.2046 -0.3233
 1329TIP3    H1 3951   5.435   0.818   2.086 -0.0305 -0.4089 -0.2477
 1329TIP3    H2 3952   5.566   0.845   2.014 -0.2467  0.6407 -0.2674
 1330TIP3   OH2 3953   3.953   3.786   5.162 -0.1708 -0.5970  0.2228
 1330TIP3    H1 3954   3.864   3.763   5.136  0.3382 -0.5398 -1.7133
 1330TIP3    H2 3955   4.009   3.745   5.096  1.1869  0.1086  0.8863
 1331TIP3   OH2 3956   6.851   4.313   2.608 -0.0997 -0.7854  0.4117
 1331TIP3    H1 3957   6.814   4.226   2.600  2.4266 -1.9974  0.9017
 1331TIP3    H2 3958   6.899   4.327   2.526  1.1929 -0.7380  1.1515
 1332TIP3   OH2 3959   0.687   6.537   3.535 -0.0396  0.1276  0.0773
 1332TIP3    H1 3960   0.625   6.555   3.606  0.2946 -0.3819  0.5139
 1332TIP3    H2 3961   0.773   6.547   3.576  0.1740  1.0154 -0.5696
 1333TIP3   OH2 3962   2.855   6.326   0.567  0.3988  0.0257 -0.0319
 1333TIP3    H1 3963   2.827   6.305   0.656 -0.1587  1.9890  0.2961
 1333TIP3    H2 3964   2.940   6.283   0.558 -0.5634 -2.1777  0.5799
 1334TIP3   OH2 3965   4.083   1.077   2.974 -0.5507 -0.3132  0.4896
 1334TIP3    H1 3966   4.111   0.986   2.963 -2.1570 -0.7025 -0.7208
 1334TIP3    H2 3967   4.159   1.129   2.949 -0.5393 -1.3209 -1.8128
 1335TIP3   OH2 3968   2.059   1.938   0.573  0.2944  0.6739  0.3156
 1335TIP3    H1 3969   2.102   1.881   0.510  1.0774  1.1168  0.4336
 1335TIP3    H2 3970   2.066   2.026   0.535  0.3783  0.8854  0.8103
 1336TIP3   OH2 3971   4.754   0.577   3.003  0.5759  0.0925  0.4351
 1336TIP3    H1 3972   4.710   0.568   2.919  0.4710 -0.3641  0.5332
 1336TIP3    H2 3973   4.714   0.510   3.059  1.7813 -0.7375  0.3519
 1337TIP3   OH2 3974   2.349   0.651   3.161  0.2344  0.3066  0.0635
 1337TIP3    H1 3975   2.393   0.569   3.139  0.4736  0.1553  1.0523
 1337TIP3    H2 3976   2.263   0.645   3.119  1.5499  1.1776 -3.0696
 1338TIP3   OH2 3977   0.750   3.517   4.994  0.3383 -0.3919 -0.2070
 1338TIP3    H1 3978   0.701   3.442   4.959 -0.8657  0.3505 -0.1785
 1338TIP3    H2 3979   0.822   3.529   4.932  0.6067 -1.6021 -0.1700
 1339TIP3   OH2 3980   6.821   4.028   2.914  0.1495  0.6096 -0.2387
 1339TIP3    H1 3981   6.730   4.023   2.885 -0.7959  0.0271  2.4925
 1339TIP3    H2 3982   6.821   4.098   2.980  0.7792 -1.6845  2.4113
 1340TIP3   OH2 3983   2.991   6.412   4.136  0.9354  0.3774 -0.9046
 1340TIP3    H1 3984   2.915   6.468   4.150 -0.2891 -1.5119  0.5994
 1340TIP3    H2 3985   2.974   6.369   4.053 -0.2199 -0.7810 -0.1163
 1341TIP3   OH2 3986   3.557   4.309   3.620  0.0583 -0.1376  0.0535
 1341TIP3    H1 3987   3.626   4.244   3.626  1.6886  1.4450 -0.7252
 1341TIP3    H2 3988   3.498   4.288   3.692 -0.1017 -3.1061 -0.8107
 1342TIP3   OH2 3989   0.730   6.538   2.590  0.3590 -0.2819  0.6067
 1342TIP3    H1 3990   0.651   6.593   2.585  0.9566  0.4595 -2.4317
 1342TIP3    H2 3991   0.800   6.598   2.612  0.8351  0.0273 -1.6199
 1343TIP3   OH2 3992   0.314   1.719   1.042 -0.2265  0.7652  0.2616
 1343TIP3    H1 3993   0.319   1.814   1.034 -0.4260  0.8877  1.4295
 1343TIP3    H2 3994   0.314   1.703   1.137  1.5293 -0.5046  0.0953
 1344TIP3   OH2 3995   1.865   2.264   5.484  0.1091  0.4477 -0.0948
 1344TIP3    H1 3996   1.929   2.230   5.547 -1.0245 -1.2792  0.1927
 1344TIP3    H2 3997   1.915   2.273   5.402  1.3382  1.6960  0.7394
 1345TIP3   OH2 3998   6.129   2.820   3.249 -0.1115  0.0986 -0.2956
 1345TIP3    H1 3999   6.176   2.739   3.228 -0.1182 -0.1286  0.5246
 1345TIP3    H2 4000   6.188   2.867   3.308  0.3295  1.1783 -1.5617
 1346TIP3   OH2 4001   2.891   1.964   0.080  0.0152  0.3304 -0.0659
 1346TIP3    H1 4002   2.809   1.992   0.038 -1.1484 -1.3297  0.9781
 1346TIP3    H2 4003   2.891   1.869   0.070  1.3938  0.2325  0.7403
 1347TIP3   OH2 4004   0.566   6.739   1.147 -0.0926  0.0229 -0.2494
 1347TIP3    H1 4005   0.661   6.727   1.142  0.1058  1.0989  0.5861
 1347TIP3    H2 4006   0.550   6.820   1.098 -0.8075 -0.9856 -1.7787
 1348TIP3   OH2 4007   3.219   1.676   3.526 -0.2056 -0.1385 -0.6879
 1348TIP3    H1 4008   3.293   1.617   3.538 -0.0403 -0.0395 -1.1812
 1348TIP3    H2 4009   3.171   1.640   3.451  0.2330  0.6706 -1.3790
 1349TIP3   OH2 4010   3.282   0.906   1.651 -0.0123  0.0250 -0.0685
 1349TIP3    H1 4011   3.347   0.976   1.644  0.6626 -0.5379  0.4513
 1349TIP3    H2 4012   3.215   0.941   1.709 -0.0843  0.5305 -0.4445
 1350TIP3   OH2 4013   0.003   0.992   1.684 -0.3489 -0.3969  0.1749
 1350TIP3    H1 4014   0.083   1.005   1.633 -0.3079  0.2788  0.4128
 1350TIP3    H2 4015  -0.041   1.076   1.682 -1.3503 -0.9184 -0.4398
 1351TIP3   OH2 4016   7.110   6.739   4.346  0.3636  0.2026  0.1966
 1351TIP3    H1 4017   7.021   6.769   4.327  0.5500  1.7063  1.4690
 1351TIP3    H2 4018   7.166   6.801   4.300  0.7580 -0.1894  0.1445
 1352TIP3   OH2 4019   2.742   0.854   4.793  0.1878  0.2175 -0.4824
 1352TIP3    H1 4020   2.704   0.828   4.876 -1.3504  1.8831 -0.5854
 1352TIP3    H2 4021   2.698   0.800   4.728  1.7749 -1.4630 -0.2291
 1353TIP3   OH2 4022   3.671   3.267   0.132  0.0567  0.1439  0.1822
 1353TIP3    H1 4023   3.727   3.292   0.059  1.9149  1.8445  2.0694
 1353TIP3    H2 4024   3.649   3.350   0.175 -0.1491 -0.8673  2.1260
 1354TIP3   OH2 4025   4.449   3.678   0.893 -0.3289 -0.0992  0.4512
 1354TIP3    H1 4026   4.524   3.672   0.952 -0.3233  0.1802  0.4709
 1354TIP3    H2 4027   4.479   3.732   0.820  0.1199 -1.5829 -0.5108
 1355TIP3   OH2 4028   5.568   3.930   1.424  0.5588  0.1393  0.2921
 1355TIP3    H1 4029   5.475   3.944   1.403  0.3019 -2.6860 -0.9632
 1355TIP3    H2 4030   5.608   4.016   1.413 -1.5680  1.0506 -1.1229
 1356TIP3   OH2 4031   6.161   6.195   1.937 -0.5503 -0.2397  0.4639
 1356TIP3    H1 4032   6.084   6.252   1.928  0.9958  1.8285 -0.4931
 1356TIP3    H2 4033   6.207   6.204   1.854  1.6253 -0.0114  1.6286
 1357TIP3   OH2 4034   2.510   4.486   4.833  0.2266  0.2628 -0.4870
 1357TIP3    H1 4035   2.453   4.429   4.884 -0.0949 -0.5412 -1.6964
 1357TIP3    H2 4036   2.598   4.463   4.862  0.1216 -1.1251 -1.1834
 1358TIP3   OH2 4037   5.305   5.982   0.793  0.4229 -0.0553 -0.3870
 1358TIP3    H1 4038   5.378   5.920   0.798  2.2065  2.0000  0.7962
 1358TIP3    H2 4039   5.258   5.970   0.875  0.2205 -0.4762 -0.5650
 1359TIP3   OH2 4040   4.926   1.885   0.218 -0.0967 -0.2032 -0.2050
 1359TIP3    H1 4041   4.892   1.973   0.235 -0.3526 -0.3952  0.3261
 1359TIP3    H2 4042   4.910   1.871   0.125 -2.9787 -0.8698  0.2931
 1360TIP3   OH2 4043   3.126   4.334   4.830 -0.0946  0.2588 -0.0676
 1360TIP3    H1 4044   3.123   4.426   4.858 -0.5149  0.5201 -0.9232
 1360TIP3    H2 4045   3.076   4.287   4.897  0.3446  0.6119  0.5165
 1361TIP3   OH2 4046   4.968   5.721   3.116  0.2541 -0.2658 -0.2815
 1361TIP3    H1 4047   4.893   5.759   3.071 -0.7147 -0.8907  0.7707
 1361TIP3    H2 4048   5.040   5.728   3.053 -0.7200  0.1860 -1.3684
 1362TIP3   OH2 4049   4.984   1.295   3.353 -0.0466  0.7706 -0.0612
 1362TIP3    H1 4050   5.026   1.363   3.406  1.5444  0.9585 -1.4965
 1362TIP3    H2 4051   5.007   1.213   3.397  0.6455  0.9707 -0.0372
 1363TIP3   OH2 4052   1.024   3.295   5.827  0.1500  0.2944 -0.2884
 1363TIP3    H1 4053   1.030   3.293   5.731  1.7729  1.0005 -0.2521
 1363TIP3    H2 4054   1.057   3.210   5.855 -0.6014 -0.0228 -0.3560
 1364TIP3   OH2 4055   5.627   6.248   5.175 -0.7459  0.1736 -0.4949
 1364TIP3    H1 4056   5.710   6.251   5.127 -1.7124 -1.7094 -2.4660
 1364TIP3    H2 4057   5.651   6.219   5.263  0.9030  1.9531 -0.3123
 1365TIP3   OH2 4058   4.371   1.071   2.253 -0.3874 -0.1651 -0.4216
 1365TIP3    H1 4059   4.357   0.977   2.246 -0.1926 -0.1781 -0.6536
 1365TIP3    H2 4060   4.291   1.105   2.293  0.6942 -0.8047  2.5605
 1366TIP3   OH2 4061   2.054   0.776   5.260 -0.7961  0.2686 -0.3121
 1366TIP3    H1 4062   2.074   0.724   5.338  0.3715 -0.4173 -1.0370
 1366TIP3    H2 4063   1.982   0.833   5.287 -0.3061  0.1624  1.3100
 1367TIP3   OH2 4064   2.644   1.877   5.661 -0.1438  0.0440  0.3077
 1367TIP3    H1 4065   2.650   1.939   5.734  0.6135 -1.4294  1.5542
 1367TIP3    H2 4066   2.732   1.877   5.622  0.0330 -0.6587  0.6890
 1368TIP3   OH2 4067   5.375   6.114   5.011 -0.0993  0.1403 -0.1254
 1368TIP3    H1 4068   5.416   6.045   5.063  0.2169  1.3379  1.2758
 1368TIP3    H2 4069   5.322   6.163   5.073 -2.8593 -0.6499 -1.6603
 1369TIP3   OH2 4070   7.026   2.416   1.349 -0.3819 -0.3519 -0.3684
 1369TIP3    H1 4071   6.942   2.461   1.338  0.3890  0.7616 -2.1928
 1369TIP3    H2 4072   7.061   2.449   1.431 -1.7044 -0.8292  0.4221
 1370TIP3   OH2 4073   6.169   2.414   1.109 -0.5743  0.0343  0.6099
 1370TIP3    H1 4074   6.253   2.461   1.106 -0.4059 -0.3313 -0.7382
 1370TIP3    H2 4075   6.105   2.479   1.079 -0.5114 -0.2199 -0.0875
 1371TIP3   OH2 4076   6.829   2.221   0.860 -0.3091 -0.2000 -0.1358
 1371TIP3    H1 4077   6.743   2.257   0.841 -0.7384 -0.2674  1.5791
 1371TIP3    H2 4078   6.890   2.277   0.812 -1.2963 -0.3781 -1.6749
 1372TIP3   OH2 4079   5.996   5.717   3.028  0.1140 -0.2820  0.4933
 1372TIP3    H1 4080   6.036   5.655   3.089 -0.3875 -0.6930  0.4158
 1372TIP3    H2 4081   5.924   5.668   2.988  0.2266  0.0940 -0.1798
 1373TIP3   OH2 4082   4.097   1.714   2.459 -0.0892  0.0789 -0.2394
 1373TIP3    H1 4083   4.020   1.711   2.402 -0.4549 -1.6108  0.2679
 1373TIP3    H2 4084   4.158   1.651   2.420  0.3986  0.2518  0.2303
 1374TIP3   OH2 4085   3.281   5.144   5.267 -0.3274  0.2781  0.7238
 1374TIP3    H1 4086   3.191   5.166   5.288 -1.3261 -1.8033 -0.9603
 1374TIP3    H2 4087   3.314   5.219   5.217 -1.2488  0.8954  1.0340
 1375TIP3   OH2 4088   2.216   6.566   0.528  0.3977 -0.2488  0.5828
 1375TIP3    H1 4089   2.139   6.531   0.571  1.0646 -0.5423  1.5572
 1375TIP3    H2 4090   2.236   6.503   0.458 -1.3933  0.8452 -1.0169
 1376TIP3   OH2 4091   2.575   5.241   0.301  0.3581  0.1519  0.4246
 1376TIP3    H1 4092   2.525   5.228   0.381 -0.2684 -1.2718 -0.1651
 1376TIP3    H2 4093   2.656   5.192   0.314 -0.1589 -0.8856 -0.1630
 1377TIP3   OH2 4094   2.947   0.026   4.692  0.1510  0.3604 -0.0584
 1377TIP3    H1 4095   3.001   0.084   4.639 -0.7095  1.9282  0.7073
 1377TIP3    H2 4096   2.995   0.016   4.774  0.7611 -0.8444 -0.5331
 1378TIP3   OH2 4097   3.821   5.723   0.941 -0.1489  1.2601 -0.3017
 1378TIP3    H1 4098   3.895   5.674   0.976 -2.4031 -1.2645  1.3158
 1378TIP3    H2 4099   3.816   5.801   0.997 -0.8585 -0.4187  2.1614
 1379TIP3   OH2 4100   0.035   0.949   5.447  0.7813 -0.3487 -0.1123
 1379TIP3    H1 4101   0.034   1.043   5.462  0.3844 -0.2422 -0.7775
 1379TIP3    H2 4102   0.086   0.913   5.520 -1.7313  0.0372  1.9524
 1380TIP3   OH2 4103   6.959   3.833   0.764  0.1293  0.1464  0.0866
 1380TIP3    H1 4104   6.898   3.900   0.794 -0.2723  0.0928 -0.6056
 1380TIP3    H2 4105   7.021   3.824   0.837  0.4558  1.5752  0.0230
 1381TIP3   OH2 4106   5.174   5.891   0.562  0.2033 -0.2639  0.4308
 1381TIP3    H1 4107   5.222   5.898   0.644 -0.8440 -1.4322  1.1755
 1381TIP3    H2 4108   5.131   5.805   0.566 -0.7753  0.1326 -0.8412
 1382TIP3   OH2 4109   7.166   1.140   4.519 -0.0790  0.2348  0.0744
 1382TIP3    H1 4110   7.137   1.074   4.456  0.2667 -0.1972  0.3688
 1382TIP3    H2 4111   7.146   1.102   4.605 -0.8428  0.9542  0.2272
 1383TIP3   OH2 4112   2.937   6.369   3.043 -0.2135 -0.2340  0.2072
 1383TIP3    H1 4113   3.001   6.306   3.011  1.5593  2.2913 -1.7140
 1383TIP3    H2 4114   2.989   6.435   3.090 -1.3463  1.7625 -1.1615
 1384TIP3   OH2 4115   2.751   0.195   3.570 -0.0557 -0.2666 -0.1432
 1384TIP3    H1 4116   2.809   0.251   3.623  2.0220 -0.9357 -1.5784
 1384TIP3    H2 4117   2.672   0.247   3.559  0.6803  1.1852  0.9747
 1385TIP3   OH2 4118   5.080   0.347   2.425  0.0997 -0.1233 -0.6629
 1385TIP3    H1 4119   5.156   0.327   2.481  0.4413  1.6251 -0.4405
 1385TIP3    H2 4120   5.072   0.442   2.430 -2.2913 -0.2869 -0.4732
 1386TIP3   OH2 4121   4.435   5.430   5.423 -0.1235 -0.0941 -0.1312
 1386TIP3    H1 4122   4.452   5.500   5.360 -0.8861  0.4533  0.2657
 1386TIP3    H2 4123   4.366   5.378   5.383 -0.5244  0.1843  0.2017
 1387TIP3   OH2 4124   1.501   2.352   4.978  0.2069 -0.2562  0.1473
 1387TIP3    H1 4125   1.465   2.267   5.004  0.9937 -1.1331 -1.4535
 1387TIP3    H2 4126   1.447   2.379   4.904 -1.1805  1.5562  1.7205
 1388TIP3   OH2 4127   1.811   6.348   4.717  0.2275 -0.2016 -0.4769
 1388TIP3    H1 4128   1.884   6.367   4.658  0.0200 -1.2844 -1.1074
 1388TIP3    H2 4129   1.754   6.424   4.710  0.7767  0.1880 -0.7773
 1389TIP3   OH2 4130   0.509   4.946   0.841 -0.1371 -0.6244 -0.5448
 1389TIP3    H1 4131   0.561   5.015   0.882  0.6178 -1.6400  0.2668
 1389TIP3    H2 4132   0.419   4.965   0.867  0.1169 -0.1960  0.0336
 1390TIP3   OH2 4133   5.727   4.739   2.530  0.4876 -0.0977  0.2399
 1390TIP3    H1 4134   5.774   4.771   2.454 -0.6001  0.1890 -0.3416
 1390TIP3    H2 4135   5.786   4.677   2.571  0.8869 -0.6581 -1.1375
 1391TIP3   OH2 4136   3.603   2.772   2.708 -0.2003 -0.2011 -0.1238
 1391TIP3    H1 4137   3.643   2.700   2.758 -1.0637 -0.0797  0.7748
 1391TIP3    H2 4138   3.578   2.836   2.775 -1.6381 -0.1509 -0.6697
 1392TIP3   OH2 4139   2.778   6.448   1.716 -0.3505  0.4452 -0.0678
 1392TIP3    H1 4140   2.700   6.503   1.705 -0.3317  0.7273  1.0317
 1392TIP3    H2 4141   2.749   6.379   1.776  0.3174  0.7370  0.6100
 1393TIP3   OH2 4142   4.111   2.150   1.515  0.4023 -0.2305  0.6715
 1393TIP3    H1 4143   4.133   2.064   1.478  0.0531 -0.2813  0.5707
 1393TIP3    H2 4144   4.183   2.171   1.574  1.2903  0.1365 -0.5061
 1394TIP3   OH2 4145   0.746   1.063   0.646  0.2825 -0.3383 -0.0101
 1394TIP3    H1 4146   0.723   0.997   0.581 -1.3508 -0.8550  1.0480
 1394TIP3    H2 4147   0.785   1.013   0.718  0.5346  0.0426  0.1212
 1395TIP3   OH2 4148   6.249   3.722   4.686 -0.4181  0.2482  0.0880
 1395TIP3    H1 4149   6.229   3.650   4.745 -0.5739 -0.1255 -0.4164
 1395TIP3    H2 4150   6.166   3.742   4.643 -0.0124 -0.4821 -1.0993
 1396TIP3   OH2 4151   6.718   1.213   1.158 -0.0814  0.4693  0.4814
 1396TIP3    H1 4152   6.688   1.134   1.203 -0.6171  0.2708 -0.1883
 1396TIP3    H2 4153   6.812   1.215   1.172 -0.0137 -0.4796  0.2261
 1397TIP3   OH2 4154   1.447   6.128   4.217  0.3024 -0.3259 -0.9005
 1397TIP3    H1 4155   1.358   6.163   4.218 -0.9126 -3.1174 -1.1076
 1397TIP3    H2 4156   1.482   6.155   4.132 -0.2099  1.0681 -0.6963
 1398TIP3   OH2 4157   2.774   6.569   1.112  0.0276  0.1845  0.4285
 1398TIP3    H1 4158   2.779   6.574   1.017  0.3614 -0.6678  0.3952
 1398TIP3    H2 4159   2.698   6.513   1.130 -1.6530  2.3885  0.7351
 1399TIP3   OH2 4160   0.392   1.257   5.546  0.1135 -0.2103 -0.2204
 1399TIP3    H1 4161   0.450   1.214   5.609  0.3294 -0.5679 -0.6639
 1399TIP3    H2 4162   0.355   1.186   5.494 -1.0116 -0.0242  0.2772
 1400TIP3   OH2 4163   3.451   3.108   5.260  0.6069  0.6064 -0.4477
 1400TIP3    H1 4164   3.498   3.049   5.318 -1.2362 -0.5588 -0.0734
 1400TIP3    H2 4165   3.437   3.187   5.312 -0.5662 -0.2266  0.5477
 1401TIP3   OH2 4166   3.217   2.233   5.608 -0.5899  0.4548  0.0386
 1401TIP3    H1 4167   3.255   2.320   5.611 -2.5870  1.3721  1.7737
 1401TIP3    H2 4168   3.208   2.208   5.700 -0.3634 -1.4542 -0.4224
 1402TIP3   OH2 4169   0.325   5.511   1.039 -0.1825  0.0489  0.1077
 1402TIP3    H1 4170   0.243   5.491   0.993  0.6709 -0.8304 -1.0838
 1402TIP3    H2 4171   0.320   5.461   1.120 -0.2078 -1.2006 -0.6336
 1403TIP3   OH2 4172   3.613   2.977   3.207  0.3576 -0.2999  0.7074
 1403TIP3    H1 4173   3.551   3.043   3.177 -0.3527 -0.2171  2.2555
 1403TIP3    H2 4174   3.698   3.020   3.202 -0.1129  0.8373  1.8536
 1404TIP3   OH2 4175   6.219   4.446   4.764 -0.5462  0.0548  0.0287
 1404TIP3    H1 4176   6.168   4.516   4.721 -0.4859 -0.5464 -1.0544
 1404TIP3    H2 4177   6.269   4.491   4.831 -0.8555  0.9935 -0.3494
 1405TIP3   OH2 4178   3.567   6.088   4.988 -0.2922 -0.1009 -0.1613
 1405TIP3    H1 4179   3.521   6.017   4.944  1.2344 -0.5903 -1.0655
 1405TIP3    H2 4180   3.622   6.043   5.053  0.9059  0.1691 -0.9395
 1406TIP3   OH2 4181   0.136   4.611   0.826  0.3928 -0.2308 -0.3728
 1406TIP3    H1 4182   0.154   4.551   0.898  1.1252  0.2387 -0.1500
 1406TIP3    H2 4183   0.069   4.670   0.859 -0.2213 -0.8208 -0.5413
 1407TIP3   OH2 4184   4.911   5.999   0.810  0.1252 -0.0564  0.4828
 1407TIP3    H1 4185   4.971   6.047   0.866 -0.3487 -0.6263  1.4946
 1407TIP3    H2 4186   4.883   6.063   0.745  0.6904  0.6075  0.8823
 1408TIP3   OH2 4187   0.946   1.866   4.537 -0.4752  0.4107 -0.5567
 1408TIP3    H1 4188   0.908   1.807   4.473  0.8233 -1.9051  0.6772
 1408TIP3    H2 4189   0.895   1.852   4.617  0.7567 -0.1990  0.1571
 1409TIP3   OH2 4190   5.972   4.756   2.859  0.4255 -0.1998  0.3231
 1409TIP3    H1 4191   5.979   4.729   2.767 -3.1387 -1.3556  0.2370
 1409TIP3    H2 4192   5.941   4.678   2.904 -2.1711  1.4701  1.6323
 1410TIP3   OH2 4193   2.137   1.026   0.751 -0.3151  0.0388 -0.1151
 1410TIP3    H1 4194   2.212   1.025   0.811 -1.1894  0.3121  1.0111
 1410TIP3    H2 4195   2.171   0.988   0.670  0.7257 -0.9341  0.7455
 1411TIP3   OH2 4196   2.331   5.521   3.066 -0.1291  0.2654 -0.3506
 1411TIP3    H1 4197   2.354   5.432   3.041 -0.8058 -0.1600  0.4934
 1411TIP3    H2 4198   2.321   5.518   3.161  2.0534  1.7746 -0.0157
 1412TIP3   OH2 4199   2.775   6.327   0.818  0.0204  0.4129 -0.0362
 1412TIP3    H1 4200   2.749   6.415   0.847 -1.6928 -0.4166  1.1845
 1412TIP3    H2 4201   2.839   6.298   0.883 -0.6532  0.1702  0.5434
 1413TIP3   OH2 4202   3.693   1.810   5.698  0.4247  0.4282 -0.5705
 1413TIP3    H1 4203   3.752   1.774   5.764 -1.7302 -0.6224  0.8840
 1413TIP3    H2 4204   3.736   1.790   5.615  1.0705 -2.3836  0.3324
 1414TIP3   OH2 4205   3.154   2.017   4.145  0.0991  0.0873  0.6548
 1414TIP3    H1 4206   3.155   1.928   4.180 -0.3590 -0.3832 -0.5134
 1414TIP3    H2 4207   3.245   2.047   4.155 -0.2689  0.5394  3.5778
 1415TIP3   OH2 4208   4.747   5.840   0.016 -0.4558 -0.4428 -0.2377
 1415TIP3    H1 4209   4.805   5.858  -0.058 -0.8962  1.5503 -0.1291
 1415TIP3    H2 4210   4.748   5.919   0.069 -1.3407 -1.2792  1.1107
 1416TIP3   OH2 4211   4.493   1.723   4.801  0.2900  0.1107 -0.2289
 1416TIP3    H1 4212   4.485   1.654   4.735 -0.3070 -0.2934  0.2531
 1416TIP3    H2 4213   4.552   1.787   4.761  2.1494 -1.3945 -0.0683
 1417TIP3   OH2 4214   1.026   5.868   4.706  0.4663  0.4786 -0.4806
 1417TIP3    H1 4215   0.998   5.954   4.675 -0.5931  0.3491  0.0499
 1417TIP3    H2 4216   1.115   5.882   4.738  0.0083  1.5851  0.3945
 1418TIP3   OH2 4217   0.721   2.553   3.828  0.0803 -0.2060  0.2601
 1418TIP3    H1 4218   0.751   2.644   3.835 -0.6864  0.0321  0.5796
 1418TIP3    H2 4219   0.771   2.506   3.894  2.9598 -0.7376 -2.0757
 1419TIP3   OH2 4220   4.414   4.468   3.836 -0.4647  0.0852 -0.5647
 1419TIP3    H1 4221   4.411   4.391   3.779  0.7201 -0.1376 -0.3674
 1419TIP3    H2 4222   4.325   4.503   3.835 -0.8367 -0.8402 -1.2737
 1420TIP3   OH2 4223   2.100   2.735   4.069 -0.1162  0.1085  0.2168
 1420TIP3    H1 4224   2.160   2.697   4.005 -0.4420  2.1100 -1.4100
 1420TIP3    H2 4225   2.078   2.821   4.033  0.2418  1.6855  3.4016
 1421TIP3   OH2 4226   6.218   0.925   0.223 -0.1200  0.4542 -0.0167
 1421TIP3    H1 4227   6.154   0.992   0.244 -0.2832 -0.0008  1.0606
 1421TIP3    H2 4228   6.289   0.971   0.178 -0.5601  1.2065  0.0568
 1422TIP3   OH2 4229   6.691   1.964   3.771 -0.3636  0.9136 -0.3483
 1422TIP3    H1 4230   6.771   2.014   3.790 -1.0298  1.2231  2.0191
 1422TIP3    H2 4231   6.620   2.027   3.783 -1.1092 -0.1038  0.7925
 1423TIP3   OH2 4232   2.138   1.137   0.180  0.5258 -0.5650  0.2372
 1423TIP3    H1 4233   2.206   1.153   0.246  1.1787 -2.0605 -0.0429
 1423TIP3    H2 4234   2.056   1.139   0.230  0.9172 -0.5321  0.8976
 1424TIP3   OH2 4235   6.778   3.434   4.578  0.0273 -0.4997  0.4833
 1424TIP3    H1 4236   6.764   3.347   4.540 -0.5353  0.1666 -0.9472
 1424TIP3    H2 4237   6.701   3.449   4.632  0.2031 -0.9491  0.8652
 1425TIP3   OH2 4238   6.438   5.026   0.797 -0.7305  0.1801 -0.0705
 1425TIP3    H1 4239   6.466   5.021   0.705  1.2546 -0.6846  0.5293
 1425TIP3    H2 4240   6.344   5.006   0.794 -0.6206 -0.2946 -1.8576
 1426TIP3   OH2 4241   5.427   4.329   5.193 -0.0580  0.2567  0.7398
 1426TIP3    H1 4242   5.414   4.420   5.219 -0.5862  0.2016  0.6854
 1426TIP3    H2 4243   5.464   4.287   5.271  2.7316  1.0613 -0.0431
 1427TIP3   OH2 4244   2.681   0.789   0.978 -0.2697 -0.2952  0.0316
 1427TIP3    H1 4245   2.735   0.710   0.973 -0.8727 -0.7451  0.5115
 1427TIP3    H2 4246   2.620   0.780   0.904  0.8908  0.6738 -1.0952
 1428TIP3   OH2 4247   2.623   5.230   4.319 -0.2958 -0.8999  0.3233
 1428TIP3    H1 4248   2.670   5.307   4.350 -0.5969 -0.6958  0.2853
 1428TIP3    H2 4249   2.573   5.262   4.243  0.5537 -1.4193 -0.4789
 1429TIP3   OH2 4250   3.369   5.026   1.113 -0.1186 -0.1226 -0.1564
 1429TIP3    H1 4251   3.423   4.951   1.137  1.2613  0.7877 -0.3137
 1429TIP3    H2 4252   3.304   4.991   1.052 -0.6931 -1.5372  1.1960
 1430TIP3   OH2 4253   5.533   4.642   5.262 -0.3439  0.0263 -0.1171
 1430TIP3    H1 4254   5.487   4.613   5.341  2.1934 -0.5222  1.2559
 1430TIP3    H2 4255   5.464   4.652   5.197 -2.3609 -0.9172  1.7468
 1431TIP3   OH2 4256   0.183   3.166   5.846  0.6058  0.0861 -0.4639
 1431TIP3    H1 4257   0.185   3.136   5.937  0.4326  1.4793  0.0188
 1431TIP3    H2 4258   0.267   3.139   5.810  0.5923 -0.6647  0.0306
 1432TIP3   OH2 4259   2.083   0.698   4.837 -0.4615 -0.2156  0.3460
 1432TIP3    H1 4260   1.991   0.692   4.810 -0.2874  0.0553 -0.3179
 1432TIP3    H2 4261   2.091   0.785   4.875 -0.3838 -0.0720  0.0098
 1433TIP3   OH2 4262   1.169   1.118   4.771 -0.1617 -0.0804  0.1888
 1433TIP3    H1 4263   1.157   1.131   4.865  0.2379 -1.7434  0.5021
 1433TIP3    H2 4264   1.082   1.093   4.739  0.1412 -1.7941  0.5745
 1434TIP3   OH2 4265   5.732   6.616   2.614 -0.1258  0.1236 -0.0144
 1434TIP3    H1 4266   5.772   6.688   2.565  0.2916 -1.2803 -1.8106
 1434TIP3    H2 4267   5.806   6.567   2.650 -0.3745 -0.1003  0.2011
 1435TIP3   OH2 4268   0.023   3.664   1.945 -0.7167  0.1809  0.0882
 1435TIP3    H1 4269   0.061   3.615   2.018  1.1960 -0.1775 -1.0750
 1435TIP3    H2 4270   0.076   3.744   1.940 -0.9288  0.2688 -0.8248
 1436TIP3   OH2 4271   0.984   2.899   1.831 -0.0850  0.2244 -0.1618
 1436TIP3    H1 4272   0.990   2.806   1.851  0.0638  0.3010  0.1636
 1436TIP3    H2 4273   0.991   2.942   1.917 -0.3698  0.5230 -0.2885
 1437TIP3   OH2 4274   4.884   4.538   0.665 -0.1023  0.2227 -0.1324
 1437TIP3    H1 4275   4.881   4.511   0.573 -1.2009 -1.1805  0.2900
 1437TIP3    H2 4276   4.821   4.609   0.671 -0.5290 -0.1380 -0.3190
 1438TIP3   OH2 4277   6.702   6.372   1.912  0.2466 -0.3720 -0.0104
 1438TIP3    H1 4278   6.629   6.396   1.969  1.3922 -0.0024  1.3591
 1438TIP3    H2 4279   6.742   6.297   1.956  0.5213 -0.7490 -0.8934
 1439TIP3   OH2 4280   0.946   5.060   0.984  0.2544 -0.0192 -0.1258
 1439TIP3    H1 4281   0.909   5.074   0.897  0.1309 -1.6186 -0.3622
 1439TIP3    H2 4282   0.941   5.145   1.027 -0.7147  0.5308 -1.2907
 1440TIP3   OH2 4283   7.193   5.231   3.372 -0.0419 -0.1712  0.1971
 1440TIP3    H1 4284   7.243   5.151   3.353 -0.3957 -0.1100 -1.1008
 1440TIP3    H2 4285   7.151   5.214   3.456  0.5827 -1.0046  0.3524
 1441TIP3   OH2 4286   0.342   3.633   5.767  0.4560 -0.3696  0.3299
 1441TIP3    H1 4287   0.337   3.541   5.794 -0.0975 -0.1157  1.1358
 1441TIP3    H2 4288   0.294   3.635   5.684  0.9040 -0.8944  0.0486
 1442TIP3   OH2 4289   2.700   0.219   5.719  0.2143 -0.3438 -0.0677
 1442TIP3    H1 4290   2.650   0.163   5.779  3.2299 -3.4784 -0.1328
 1442TIP3    H2 4291   2.764   0.263   5.774 -0.5411  1.1812 -0.3651
 1443TIP3   OH2 4292   1.200   6.475   3.417  0.2073 -0.6322  0.6544
 1443TIP3    H1 4293   1.145   6.497   3.342 -0.3880  0.8527  1.4866
 1443TIP3    H2 4294   1.166   6.391   3.448 -0.8270 -0.2996  0.4466
 1444TIP3   OH2 4295   6.147   2.588   3.652  0.1201 -0.3225 -0.5799
 1444TIP3    H1 4296   6.055   2.575   3.676  0.4864 -0.3467  0.8952
 1444TIP3    H2 4297   6.144   2.610   3.559 -1.4324  0.2690 -0.4277
 1445TIP3   OH2 4298   0.614   6.675   2.017 -0.2919 -0.3799  0.1577
 1445TIP3    H1 4299   0.686   6.688   2.079 -1.1441 -0.3533  1.1729
 1445TIP3    H2 4300   0.605   6.580   2.011  2.0097 -0.5731 -2.6284
 1446TIP3   OH2 4301   3.394   6.218   1.143 -0.6221  0.1540 -0.0290
 1446TIP3    H1 4302   3.366   6.137   1.185 -0.3300 -0.0672 -0.2544
 1446TIP3    H2 4303   3.378   6.287   1.208 -1.2263 -0.0322  0.0252
 1447TIP3   OH2 4304   4.272   6.222   3.835  0.3429 -0.4549  0.9594
 1447TIP3    H1 4305   4.304   6.241   3.747  2.6459  0.3449  1.8836
 1447TIP3    H2 4306   4.177   6.231   3.828  0.3356 -1.5876 -1.6689
 1448TIP3   OH2 4307   2.648   4.162   1.029 -0.2493 -0.3727 -0.5340
 1448TIP3    H1 4308   2.661   4.083   1.082  0.1485  0.8809  1.3267
 1448TIP3    H2 4309   2.590   4.217   1.081 -0.8627  0.4095 -1.9905
 1449TIP3   OH2 4310   6.345   4.161   5.367  0.0634 -0.1785 -0.2102
 1449TIP3    H1 4311   6.381   4.227   5.427  0.9999  0.2574 -1.2049
 1449TIP3    H2 4312   6.422   4.112   5.338 -0.4134 -0.5559 -0.8436
 1450TIP3   OH2 4313   5.002   1.263   5.486  0.3925 -0.8521 -0.0141
 1450TIP3    H1 4314   4.931   1.313   5.525 -0.0572 -1.7149  0.3193
 1450TIP3    H2 4315   5.042   1.217   5.560  1.7884  0.1964 -0.0844
 1451TIP3   OH2 4316   0.239   6.534   4.465 -0.0614  0.2374 -0.2863
 1451TIP3    H1 4317   0.175   6.513   4.533 -0.4887 -0.3088 -0.8430
 1451TIP3    H2 4318   0.254   6.628   4.473 -0.0074  0.1607  0.6405
 1452TIP3   OH2 4319   0.274   3.236   0.141  0.3059  0.0381  0.2294
 1452TIP3    H1 4320   0.265   3.203   0.230 -0.2306 -1.5035 -0.3478
 1452TIP3    H2 4321   0.364   3.267   0.135  0.8730 -1.3897  0.8579
 1453TIP3   OH2 4322   6.186   0.198   3.342 -0.0029  0.1527  0.0959
 1453TIP3    H1 4323   6.158   0.179   3.253  0.5264 -0.1205 -0.0141
 1453TIP3    H2 4324   6.181   0.293   3.349 -2.0524  0.0483  0.4474
 1454TIP3   OH2 4325   4.644   1.117   3.342 -0.0482 -0.0785  0.2338
 1454TIP3    H1 4326   4.674   1.201   3.376 -1.0641  1.1391 -1.7031
 1454TIP3    H2 4327   4.686   1.109   3.256  0.1316 -1.6235  0.4377
 1455TIP3   OH2 4328   7.101   3.165   0.901  0.6364 -0.0614 -0.0751
 1455TIP3    H1 4329   7.052   3.227   0.954  1.0550  1.6518 -1.5938
 1455TIP3    H2 4330   7.035   3.102   0.871 -0.3057  1.0999 -0.5264
 1456TIP3   OH2 4331   4.260   4.814   1.009  0.0270  0.1886  0.7515
 1456TIP3    H1 4332   4.185   4.825   1.067 -0.1783 -1.4221  0.8239
 1456TIP3    H2 4333   4.330   4.782   1.066 -0.3829 -2.1255  0.0533
 1457TIP3   OH2 4334   1.512   1.630   4.504  0.4313  0.6443 -0.1544
 1457TIP3    H1 4335   1.508   1.650   4.410  1.3535  0.5938 -0.2158
 1457TIP3    H2 4336   1.469   1.545   4.512 -1.3987  1.5128 -0.2308
 1458TIP3   OH2 4337   0.205   2.343   1.857  0.3876 -0.3294  0.1754
 1458TIP3    H1 4338   0.220   2.293   1.937 -0.8850 -0.2342  0.4923
 1458TIP3    H2 4339   0.233   2.285   1.786  1.1449 -0.5669  0.6586
 1459TIP3   OH2 4340   3.208   1.363   5.871 -0.2752 -1.0188 -0.2984
 1459TIP3    H1 4341   3.128   1.319   5.901  0.3568 -1.0163  1.4674
 1459TIP3    H2 4342   3.178   1.450   5.845 -0.6978 -0.5410  1.6343
 1460TIP3   OH2 4343   3.665   0.761   0.151  0.3699  0.3075  0.0711
 1460TIP3    H1 4344   3.678   0.777   0.057 -2.8039 -1.7260 -0.8826
 1460TIP3    H2 4345   3.724   0.689   0.171 -0.1787 -0.4254 -0.8689
 1461TIP3   OH2 4346   6.213   1.779   1.987 -0.1841 -0.1316 -0.1552
 1461TIP3    H1 4347   6.239   1.690   2.010  0.0008  0.0799  0.4818
 1461TIP3    H2 4348   6.194   1.821   2.071  1.9515  1.1267 -0.2232
 1462TIP3   OH2 4349   4.586   2.162   1.814  0.0135 -0.0728 -0.3672
 1462TIP3    H1 4350   4.514   2.205   1.769  0.8727  1.7692 -0.0760
 1462TIP3    H2 4351   4.630   2.110   1.747  0.2252  1.2316 -1.2727
 1463TIP3   OH2 4352   0.262   1.790   1.337  0.9008  0.6944 -0.1025
 1463TIP3    H1 4353   0.318   1.786   1.414  0.9328  1.4846 -0.0752
 1463TIP3    H2 4354   0.263   1.882   1.311 -0.0793  0.6630 -0.3204
 1464TIP3   OH2 4355   5.987   2.121   5.229  0.5005 -0.5770 -0.1843
 1464TIP3    H1 4356   6.024   2.064   5.161 -0.1721 -0.3725 -0.7418
 1464TIP3    H2 4357   5.905   2.078   5.254 -0.0592  0.1741 -0.6755
 1465TIP3   OH2 4358   4.980   1.684   3.015 -0.7150  0.3951 -0.1395
 1465TIP3    H1 4359   4.896   1.660   2.977 -0.9459  0.3519  0.3866
 1465TIP3    H2 4360   5.034   1.605   3.006 -0.7357  0.4180 -0.4622
 1466TIP3   OH2 4361   1.283   5.761   3.247 -0.1656 -0.2979  0.0932
 1466TIP3    H1 4362   1.355   5.737   3.188  0.3843 -1.9665  1.3556
 1466TIP3    H2 4363   1.314   5.735   3.334 -0.9940  1.9837  1.1531
 1467TIP3   OH2 4364   2.698   5.219   2.612  0.0908 -0.0235  0.2128
 1467TIP3    H1 4365   2.767   5.216   2.545  0.7426 -0.3340  0.8802
 1467TIP3    H2 4366   2.655   5.303   2.599 -0.4181 -0.4711 -1.2000
 1468TIP3   OH2 4367   3.610   2.198   4.396 -0.1600  0.0964  0.4399
 1468TIP3    H1 4368   3.536   2.144   4.423  1.3857 -2.2790  0.1782
 1468TIP3    H2 4369   3.686   2.160   4.442  1.5238 -0.0431 -2.2433
 1469TIP3   OH2 4370   5.159   3.148   4.040 -0.5883 -0.4756  0.2991
 1469TIP3    H1 4371   5.069   3.181   4.037  0.1796  2.0855  2.1415
 1469TIP3    H2 4372   5.189   3.149   3.949 -2.1591 -0.6790 -0.2424
 1470TIP3   OH2 4373   6.924   5.426   1.883  0.1516  0.8335 -0.6585
 1470TIP3    H1 4374   7.012   5.449   1.914 -0.2498  1.8845 -0.2706
 1470TIP3    H2 4375   6.912   5.479   1.804 -0.1275  0.6797 -0.7180
 1471TIP3   OH2 4376   5.672   1.672   5.444  0.2374  0.7448 -0.5418
 1471TIP3    H1 4377   5.670   1.744   5.507 -0.2953  1.1344 -0.9919
 1471TIP3    H2 4378   5.676   1.715   5.359  1.7428  0.2168 -0.7681
 1472TIP3   OH2 4379   3.596   2.050   5.249 -0.5020  0.4551  0.4573
 1472TIP3    H1 4380   3.667   2.065   5.310  0.3732 -2.2882  0.2433
 1472TIP3    H2 4381   3.521   2.096   5.288  0.1268 -0.7631  3.3613
 1473TIP3   OH2 4382   3.610   2.259   2.055  0.3404 -0.0545  0.0613
 1473TIP3    H1 4383   3.662   2.336   2.029  0.4558 -0.5090 -1.0962
 1473TIP3    H2 4384   3.632   2.193   1.990  0.8943 -1.3648  1.5282
 1474TIP3   OH2 4385   1.655   5.094   2.434  0.1151 -0.1921  0.4714
 1474TIP3    H1 4386   1.599   5.022   2.462 -0.9373 -0.3638 -1.8878
 1474TIP3    H2 4387   1.597   5.154   2.387  1.4444  0.9194  0.1449
 1475TIP3   OH2 4388   3.200   5.617   4.451 -0.5653  0.4248  0.5845
 1475TIP3    H1 4389   3.247   5.544   4.411 -0.8064  0.7077 -0.2336
 1475TIP3    H2 4390   3.174   5.584   4.537 -1.8478 -0.9650 -0.2669
 1476TIP3   OH2 4391   1.748   6.530   5.342  0.3135  0.5571  0.0399
 1476TIP3    H1 4392   1.754   6.612   5.294  0.7103 -0.6811 -2.1702
 1476TIP3    H2 4393   1.836   6.514   5.375  1.5546 -1.1667 -3.5809
 1477TIP3   OH2 4394   2.634   0.450   1.161  0.1803  0.2943  0.0138
 1477TIP3    H1 4395   2.729   0.459   1.151  0.4287  1.4431  2.5054
 1477TIP3    H2 4396   2.623   0.403   1.244 -1.4453 -0.5196 -0.6285
 1478TIP3   OH2 4397   1.723   4.926   2.804 -0.0024 -0.2323  0.2213
 1478TIP3    H1 4398   1.637   4.967   2.811 -0.2029 -0.8157  1.2369
 1478TIP3    H2 4399   1.773   4.963   2.876 -0.0137 -1.3405  0.8111
 1479TIP3   OH2 4400   7.134   6.292   2.612  0.2075 -0.0297 -0.2554
 1479TIP3    H1 4401   7.172   6.359   2.669 -1.3076 -0.3117  1.1559
 1479TIP3    H2 4402   7.040   6.298   2.627  0.0263 -2.5989  0.0837
 1480TIP3   OH2 4403   4.596   5.094   4.562  0.1246 -0.1386  0.0462
 1480TIP3    H1 4404   4.683   5.070   4.529  1.2122  1.1527  1.8303
 1480TIP3    H2 4405   4.593   5.189   4.554 -1.1793 -0.1728 -0.0314
 1481TIP3   OH2 4406   2.624   0.671   0.490 -0.0879 -0.5082  0.4426
 1481TIP3    H1 4407   2.597   0.762   0.478  1.0930 -0.0984  0.8248
 1481TIP3    H2 4408   2.717   0.670   0.468  0.1657 -1.4074  1.4769
 1482TIP3   OH2 4409   2.990   5.430   5.771 -0.1629 -0.6263  0.0266
 1482TIP3    H1 4410   3.073   5.398   5.737 -0.0204 -0.7643  0.4865
 1482TIP3    H2 4411   2.925   5.402   5.707  0.3952  1.5898 -1.6301
 1483TIP3   OH2 4412   1.145   5.770   3.879  0.3933 -0.3596  0.2297
 1483TIP3    H1 4413   1.097   5.711   3.937  0.8518 -0.0854  0.9021
 1483TIP3    H2 4414   1.194   5.711   3.822 -1.0679 -0.6521 -0.7786
 1484TIP3   OH2 4415   3.047   0.175   0.721  0.6327  0.0184  0.4045
 1484TIP3    H1 4416   3.053   0.111   0.650 -1.1090  0.1902  0.0665
 1484TIP3    H2 4417   3.017   0.124   0.797 -1.2171  0.4752  0.0155
 1485TIP3   OH2 4418   1.213   1.857   3.005 -0.2562 -0.1370 -0.5851
 1485TIP3    H1 4419   1.141   1.911   2.971 -0.4354  1.7046  2.3096
 1485TIP3    H2 4420   1.182   1.828   3.091  3.0557  2.3693  1.6823
 1486TIP3   OH2 4421   1.997   2.150   0.285  0.1539  0.5269  0.0388
 1486TIP3    H1 4422   2.031   2.064   0.313  1.0916  0.4482 -1.2742
 1486TIP3    H2 4423   2.055   2.213   0.328 -1.1631  0.5790  1.8427
 1487TIP3   OH2 4424   1.774   4.225   0.303  0.0279  0.4537  0.1207
 1487TIP3    H1 4425   1.767   4.300   0.243 -4.4219 -0.5852 -1.0923
 1487TIP3    H2 4426   1.819   4.158   0.253  0.8999  1.1982 -0.1079
 1488TIP3   OH2 4427   2.267   2.331   1.942  0.3178  0.1146 -0.6254
 1488TIP3    H1 4428   2.250   2.425   1.929  2.5402  0.6716 -0.0018
 1488TIP3    H2 4429   2.302   2.325   2.030 -2.0335 -1.7132  0.2959
 1489TIP3   OH2 4430   0.397   0.147   4.250 -0.5242  0.3413 -0.1743
 1489TIP3    H1 4431   0.326   0.096   4.287  0.3026 -0.4177  0.3947
 1489TIP3    H2 4432   0.367   0.238   4.255 -1.3266  0.0527  0.3035
 1490TIP3   OH2 4433   4.932   2.921   3.028 -0.2561  0.3268  0.1733
 1490TIP3    H1 4434   4.962   2.846   3.080  0.9624  0.3097 -0.5258
 1490TIP3    H2 4435   5.005   2.940   2.969 -0.2159  2.5500  0.8418
 1491TIP3   OH2 4436   0.725   0.917   4.461  0.0288 -0.0648  0.5829
 1491TIP3    H1 4437   0.634   0.928   4.489  0.3131 -2.2409  2.6285
 1491TIP3    H2 4438   0.775   0.978   4.515  0.1354 -1.5124  2.2056
 1492TIP3   OH2 4439   1.333   4.121   0.432 -0.4340 -0.0673  0.0645
 1492TIP3    H1 4440   1.418   4.158   0.454  0.3885  0.4624 -3.3993
 1492TIP3    H2 4441   1.275   4.197   0.421 -0.8362 -0.3027  0.5275
 1493TIP3   OH2 4442   2.921   1.257   0.799 -0.2724  0.2069 -0.2608
 1493TIP3    H1 4443   2.963   1.209   0.870 -0.6794 -1.4418 -1.0801
 1493TIP3    H2 4444   2.846   1.203   0.774 -1.5591  1.9406 -0.3589
 1494TIP3   OH2 4445   5.693   6.184   4.672  0.0221 -0.1874  0.1042
 1494TIP3    H1 4446   5.666   6.105   4.718 -1.5662  0.8123  0.9847
 1494TIP3    H2 4447   5.761   6.223   4.728 -0.9692  0.3423  0.9628
 1495TIP3   OH2 4448   3.683   6.429   0.722  0.2082  0.5468 -0.7992
 1495TIP3    H1 4449   3.683   6.366   0.649 -0.7592  0.0419 -0.3694
 1495TIP3    H2 4450   3.634   6.385   0.791  2.0320  0.5722  0.5750
 1496TIP3   OH2 4451   2.861   6.354   5.538 -0.3112 -0.5163 -0.0115
 1496TIP3    H1 4452   2.909   6.299   5.600 -1.2737 -0.9324  0.3946
 1496TIP3    H2 4453   2.897   6.332   5.453  1.4602  0.5139  0.4322
 1497TIP3   OH2 4454   6.691   0.529   4.298 -1.0507 -0.3607 -0.3553
 1497TIP3    H1 4455   6.734   0.613   4.284 -0.1064 -0.6927  0.4443
 1497TIP3    H2 4456   6.597   0.550   4.299 -0.8570  0.5752 -0.8282
 1498TIP3   OH2 4457   3.099   0.785   0.300  0.3485 -0.3918  0.1771
 1498TIP3    H1 4458   3.174   0.749   0.252  0.5536  1.2473 -0.8461
 1498TIP3    H2 4459   3.123   0.877   0.314 -0.9175 -0.1747  0.9992
 1499TIP3   OH2 4460   0.681   6.780   0.503 -0.4913  0.5773 -0.0325
 1499TIP3    H1 4461   0.768   6.771   0.542 -0.9030 -0.3752  0.7109
 1499TIP3    H2 4462   0.687   6.730   0.422 -0.7892 -0.8677  0.8014
 1500TIP3   OH2 4463   4.137   5.128   3.332 -0.0944  0.3504 -0.3282
 1500TIP3    H1 4464   4.136   5.064   3.261 -2.7923 -0.2847  0.1402
 1500TIP3    H2 4465   4.090   5.085   3.403 -1.2708  2.5015  0.3000
 1501TIP3   OH2 4466   7.115   4.262   1.059  0.1423  0.1880 -0.2097
 1501TIP3    H1 4467   7.119   4.219   0.974 -1.1951  2.5574 -1.5735
 1501TIP3    H2 4468   7.021   4.266   1.079  0.4554 -0.9056  1.7493
 1502TIP3   OH2 4469   3.212   1.819   1.108  0.0728  0.0317 -0.1618
 1502TIP3    H1 4470   3.117   1.812   1.115 -0.0757  1.1816 -0.7781
 1502TIP3    H2 4471   3.245   1.786   1.191 -0.7494 -2.1682 -0.6385
 1503TIP3   OH2 4472   7.186   2.799   5.329  0.3115  0.1113 -0.4218
 1503TIP3    H1 4473   7.126   2.846   5.387 -0.2354 -2.6405  1.4082
 1503TIP3    H2 4474   7.129   2.744   5.275  1.0388 -1.1760  0.0739
 1504TIP3   OH2 4475   3.175   3.812   1.608  0.2388  0.4900 -0.6612
 1504TIP3    H1 4476   3.200   3.903   1.625  2.2372 -0.1482  0.1515
 1504TIP3    H2 4477   3.257   3.769   1.583 -0.2544 -1.4763  0.8203
 1505TIP3   OH2 4478   0.058   6.132   0.160 -0.1087 -0.3547  0.4235
 1505TIP3    H1 4479   0.094   6.212   0.198  0.8636 -0.2538 -0.6501
 1505TIP3    H2 4480   0.083   6.062   0.221  2.0981 -0.3075 -0.3388
 1506TIP3   OH2 4481   2.199   3.295   4.422  0.4052  0.0768  0.3283
 1506TIP3    H1 4482   2.286   3.324   4.394  0.7833 -1.5664 -0.3066
 1506TIP3    H2 4483   2.145   3.299   4.343  0.4973 -1.0026  0.1971
 1507TIP3   OH2 4484   5.325   6.419   1.206 -0.4340 -0.4869 -0.3458
 1507TIP3    H1 4485   5.415   6.415   1.174 -0.3958  0.9617 -0.4869
 1507TIP3    H2 4486   5.272   6.387   1.133 -0.0291 -1.7581 -0.1104
 1508TIP3   OH2 4487   2.146   0.411   1.228 -0.4822 -0.2730  0.8423
 1508TIP3    H1 4488   2.104   0.445   1.149 -0.9612  0.7846  1.5416
 1508TIP3    H2 4489   2.219   0.359   1.194 -1.8260 -1.4813 -0.3663
 1509TIP3   OH2 4490   1.436   5.768   2.450 -0.8704 -0.0484  0.3756
 1509TIP3    H1 4491   1.433   5.673   2.440 -2.1718  0.1478 -1.8340
 1509TIP3    H2 4492   1.419   5.784   2.542  0.5541 -1.9726  1.0402
 1510TIP3   OH2 4493   4.687   0.873   2.106  0.1309 -0.1085 -0.6426
 1510TIP3    H1 4494   4.703   0.802   2.044  1.2137 -1.4061  1.0424
 1510TIP3    H2 4495   4.753   0.939   2.083  1.6390 -1.2822  0.0921
 1511TIP3   OH2 4496   2.238   5.649   2.219 -0.0465  0.5778  0.1257
 1511TIP3    H1 4497   2.330   5.631   2.239  0.4178 -0.5250 -2.5785
 1511TIP3    H2 4498   2.193   5.565   2.230 -0.7488  1.0777  1.2906
 1512TIP3   OH2 4499   0.246   3.041   5.477  0.2648 -0.0757 -0.2536
 1512TIP3    H1 4500   0.161   3.083   5.491  1.0379  1.9178 -1.1554
 1512TIP3    H2 4501   0.226   2.961   5.428 -1.0533  0.5784 -0.8189
 1513TIP3   OH2 4502   6.412   1.968   1.473 -0.0770 -0.4027 -0.1004
 1513TIP3    H1 4503   6.374   1.999   1.556  0.1641 -0.5976  0.0842
 1513TIP3    H2 4504   6.336   1.937   1.423 -0.2514 -0.0666 -0.0494
 1514TIP3   OH2 4505   1.062   5.303   0.767 -0.3195  0.5554  0.4965
 1514TIP3    H1 4506   1.114   5.262   0.698  0.2156  0.6466  0.8354
 1514TIP3    H2 4507   0.990   5.241   0.783 -0.7881  0.8136 -0.5464
 1515TIP3   OH2 4508   5.961   6.651   0.494 -0.1518 -0.2028 -0.0164
 1515TIP3    H1 4509   5.873   6.681   0.471 -0.3732 -0.7647  0.0798
 1515TIP3    H2 4510   5.976   6.576   0.437 -0.1821 -0.7957  0.7521
 1516TIP3   OH2 4511   3.659   4.300   0.685  0.3141  0.5050  0.0439
 1516TIP3    H1 4512   3.701   4.332   0.765  2.2814  0.5637 -0.9444
 1516TIP3    H2 4513   3.669   4.205   0.689  0.5776  0.5203 -0.1987
 1517TIP3   OH2 4514   7.161   4.265   1.975  0.8683  0.5169  0.2581
 1517TIP3    H1 4515   7.216   4.271   1.897  1.6458  0.7939  0.8225
 1517TIP3    H2 4516   7.097   4.335   1.965 -1.3197 -1.5448 -1.8375
 1518TIP3   OH2 4517   5.531   2.141   4.079  0.0649  0.4170  0.2944
 1518TIP3    H1 4518   5.520   2.094   4.162 -0.4785  0.6849  0.3781
 1518TIP3    H2 4519   5.443   2.142   4.040 -0.1134  2.1092  0.6949
 1519TIP3   OH2 4520   4.397   1.127   5.665  0.0139  0.2939  0.2870
 1519TIP3    H1 4521   4.428   1.206   5.620  0.4611 -0.2143 -0.3294
 1519TIP3    H2 4522   4.462   1.060   5.642 -2.0413 -1.0923 -1.9090
 1520TIP3   OH2 4523   0.673   1.171   2.384 -0.7393 -0.6445  0.2005
 1520TIP3    H1 4524   0.752   1.204   2.342 -0.7945  0.0871  0.6474
 1520TIP3    H2 4525   0.703   1.137   2.468 -0.8022 -0.9983  0.0814
 1521TIP3   OH2 4526   0.535   0.506   1.662 -0.8024 -0.4093  0.5911
 1521TIP3    H1 4527   0.471   0.577   1.668  1.9338  2.3333 -0.1096
 1521TIP3    H2 4528   0.568   0.496   1.752  0.3940  0.8678  0.3211
 1522TIP3   OH2 4529   5.337   1.583   2.255 -0.5798  0.0630  0.2496
 1522TIP3    H1 4530   5.330   1.642   2.180 -0.4422 -0.2635 -0.0215
 1522TIP3    H2 4531   5.247   1.554   2.270 -0.4439 -0.8662 -0.5999
 1523TIP3   OH2 4532   2.053   3.897   2.710  0.2206  0.6969  0.6029
 1523TIP3    H1 4533   2.008   3.815   2.731  0.2604  0.6085  0.3391
 1523TIP3    H2 4534   2.076   3.889   2.618  0.1108  1.0606  0.5439
 1524TIP3   OH2 4535   0.583   0.131   0.613  0.1655 -0.2496  0.0847
 1524TIP3    H1 4536   0.592   0.072   0.538 -1.6464  0.5119 -0.7675
 1524TIP3    H2 4537   0.660   0.112   0.667  1.0527 -1.4356 -1.5169
 1525TIP3   OH2 4538   6.093   6.213   3.581 -0.3864  0.6873 -0.3062
 1525TIP3    H1 4539   6.153   6.224   3.508  2.7720 -1.6312  1.6663
 1525TIP3    H2 4540   6.050   6.129   3.565  0.0144  0.3677  0.2397
 1526TIP3   OH2 4541   2.816   2.953   0.550  0.0904  0.0175 -0.5909
 1526TIP3    H1 4542   2.779   3.037   0.575 -0.9051 -0.9174  1.2814
 1526TIP3    H2 4543   2.743   2.905   0.512  0.4174 -0.3486 -0.7653
 1527TIP3   OH2 4544   7.011   2.483   5.218 -0.0879 -0.2095  0.5567
 1527TIP3    H1 4545   7.030   2.473   5.311  0.1398  0.1482  0.5480
 1527TIP3    H2 4546   7.087   2.445   5.174 -0.8488 -1.7399  0.4982
 1528TIP3   OH2 4547   3.207   3.195   0.684  0.6007  0.2465  0.2250
 1528TIP3    H1 4548   3.296   3.223   0.663  0.8951 -0.7730  0.0683
 1528TIP3    H2 4549   3.203   3.197   0.780  0.0582  2.4370  0.2281
 1529TIP3   OH2 4550   6.852   4.523   3.586 -0.5158 -0.5205  0.0485
 1529TIP3    H1 4551   6.846   4.435   3.622  0.1779  0.1580  2.0240
 1529TIP3    H2 4552   6.945   4.535   3.568 -0.8649 -0.8692 -2.1807
 1530TIP3   OH2 4553   2.097   4.340   3.622 -0.0086  0.0114 -0.3651
 1530TIP3    H1 4554   2.112   4.304   3.709  0.9262 -0.2102 -0.6006
 1530TIP3    H2 4555   2.073   4.431   3.637 -1.2640 -0.3913  0.1807
 1531TIP3   OH2 4556   5.281   6.329   3.420  0.1424 -0.0693  0.2739
 1531TIP3    H1 4557   5.217   6.387   3.461  0.0046  0.5939 -0.8384
 1531TIP3    H2 4558   5.361   6.381   3.416  0.4654 -0.5350  0.7484
 1532TIP3   OH2 4559   0.806   0.963   5.733  0.1316  0.5848  0.1728
 1532TIP3    H1 4560   0.798   0.997   5.644  0.1145  2.0051  0.6882
 1532TIP3    H2 4561   0.864   0.887   5.725  0.4443  0.9297 -0.9886
 1533TIP3   OH2 4562   6.543   0.956   4.328  0.6927  0.0445  0.1862
 1533TIP3    H1 4563   6.501   0.916   4.252 -1.3991 -0.4720  1.5251
 1533TIP3    H2 4564   6.561   0.883   4.387  2.0791  0.4619  0.3030
 1534TIP3   OH2 4565   1.848   5.327   2.779  0.6851 -0.2981  0.2303
 1534TIP3    H1 4566   1.893   5.291   2.856 -0.2633  0.1672  1.0219
 1534TIP3    H2 4567   1.919   5.364   2.726  1.2957 -0.0050  1.2165
 1535TIP3   OH2 4568   0.748   4.445   5.748  0.6403  0.2152  0.4425
 1535TIP3    H1 4569   0.765   4.430   5.841 -1.3536 -0.5413  0.7177
 1535TIP3    H2 4570   0.729   4.539   5.742  1.4687  0.4065  0.6579
 1536TIP3   OH2 4571   1.470   1.598   2.269 -0.1034 -0.1944 -0.1058
 1536TIP3    H1 4572   1.469   1.658   2.343  0.7222  0.6270 -0.7287
 1536TIP3    H2 4573   1.559   1.562   2.268  0.0078  0.0670 -0.8765
 1537TIP3   OH2 4574   6.848   3.874   0.436  0.0851 -0.0335  0.0132
 1537TIP3    H1 4575   6.941   3.866   0.455 -0.2158 -1.5783  0.9739
 1537TIP3    H2 4576   6.838   3.963   0.401  2.1891 -0.4473 -1.8426
 1538TIP3   OH2 4577   6.058   5.431   1.833  0.2648  0.1251 -0.7126
 1538TIP3    H1 4578   6.069   5.389   1.918  0.7745  0.0802 -0.7983
 1538TIP3    H2 4579   6.035   5.522   1.854  0.5658  0.1601 -0.5193
 1539TIP3   OH2 4580   2.422   4.627   1.464 -0.6301  0.2438 -0.0411
 1539TIP3    H1 4581   2.400   4.566   1.534 -0.1041  0.9066  0.7194
 1539TIP3    H2 4582   2.514   4.609   1.444 -1.1765 -0.9812 -1.6437
 1540TIP3   OH2 4583   5.633   5.653   0.379 -0.6481 -0.0615  0.3382
 1540TIP3    H1 4584   5.648   5.559   0.378  3.8102  0.3429  2.6854
 1540TIP3    H2 4585   5.684   5.687   0.304 -1.7035  0.5769 -0.1188
 1541TIP3   OH2 4586   4.377   1.603   4.274 -0.1638 -0.0097 -0.5895
 1541TIP3    H1 4587   4.450   1.541   4.278  0.0722  0.3136  1.8366
 1541TIP3    H2 4588   4.302   1.550   4.247  0.6377 -0.6723 -1.5846
 1542TIP3   OH2 4589   6.962   1.794   3.617  0.3760  0.1682  0.0271
 1542TIP3    H1 4590   7.034   1.819   3.675  0.3115  0.3197  0.0405
 1542TIP3    H2 4591   6.936   1.875   3.574  1.9363 -0.2787 -1.9363
 1543TIP3   OH2 4592   0.633   1.043   1.969 -0.0220 -0.0063 -0.6365
 1543TIP3    H1 4593   0.558   1.065   2.025 -0.7709  0.0860 -1.6516
 1543TIP3    H2 4594   0.631   0.948   1.963  1.2089 -0.1752  1.0200
 1544TIP3   OH2 4595   4.150   0.034   0.676 -0.2954  0.5611 -0.2813
 1544TIP3    H1 4596   4.139  -0.036   0.740  0.0749 -0.9081 -1.7413
 1544TIP3    H2 4597   4.241   0.027   0.648  0.1829  2.6016  0.5586
 1545TIP3   OH2 4598   1.336   1.347   1.517 -0.1491  0.0607  0.1544
 1545TIP3    H1 4599   1.398   1.361   1.445 -0.2651 -0.1533  0.0118
 1545TIP3    H2 4600   1.254   1.322   1.474 -0.5058  0.9096  0.3132
 1546TIP3   OH2 4601   6.286   4.972   3.622 -0.1515  0.2421 -0.5820
 1546TIP3    H1 4602   6.356   5.036   3.637  1.3127 -0.8615 -2.2575
 1546TIP3    H2 4603   6.285   4.918   3.701 -0.5769  1.5506  0.3335
 1547TIP3   OH2 4604   2.194   3.137   4.631 -0.1216  0.0699  0.2266
 1547TIP3    H1 4605   2.125   3.186   4.677 -0.1588 -1.2053  1.6048
 1547TIP3    H2 4606   2.217   3.192   4.556 -1.3684  1.3643  0.7562
 1548TIP3   OH2 4607   6.819   6.449   4.846 -0.2717 -0.9959  0.1317
 1548TIP3    H1 4608   6.852   6.406   4.767 -1.2270 -1.5892  0.0454
 1548TIP3    H2 4609   6.725   6.457   4.831 -0.4129 -0.8097  1.0748
 1549TIP3   OH2 4610   3.244   1.613   2.794 -0.0742  0.2821 -0.4505
 1549TIP3    H1 4611   3.174   1.678   2.794  0.3552  0.7512 -0.2892
 1549TIP3    H2 4612   3.200   1.531   2.813 -0.4243  0.7514  0.9010
 1550TIP3   OH2 4613   1.993   0.388   0.708 -0.4099 -0.6145 -0.7078
 1550TIP3    H1 4614   1.969   0.296   0.701 -1.8254 -0.1825 -2.0769
 1550TIP3    H2 4615   2.068   0.398   0.648 -0.8296 -0.6940 -1.2505
 1551TIP3   OH2 4616   0.234   3.570   1.316  0.1975 -0.0618 -0.2270
 1551TIP3    H1 4617   0.188   3.487   1.305  2.7986 -1.6427  0.1593
 1551TIP3    H2 4618   0.277   3.564   1.401  0.7184  1.5443 -0.3358
 1552TIP3   OH2 4619   6.424   0.929   4.090  0.9825  0.1425  0.0213
 1552TIP3    H1 4620   6.346   0.971   4.055  1.0467  0.3567  0.1315
 1552TIP3    H2 4621   6.417   0.838   4.063  0.7895  0.2028 -0.1312
 1553TIP3   OH2 4622   2.136   4.389   2.193 -0.4301 -0.1586 -0.2607
 1553TIP3    H1 4623   2.204   4.421   2.253 -1.2683  0.4749  0.3769
 1553TIP3    H2 4624   2.136   4.294   2.205 -0.2719 -0.0795  0.4032
 1554TIP3   OH2 4625   5.799   6.609   1.299  0.0167  0.3595  0.3656
 1554TIP3    H1 4626   5.749   6.670   1.244  0.2739 -0.4042 -0.7465
 1554TIP3    H2 4627   5.875   6.658   1.327 -0.0475  0.7198 -0.0836
 1555TIP3   OH2 4628   1.614   0.097   5.028 -0.3186 -0.2501 -0.9456
 1555TIP3    H1 4629   1.582   0.034   5.092  0.8510  1.3821  1.4115
 1555TIP3    H2 4630   1.664   0.045   4.965  0.7987 -1.6896  1.0239
 1556TIP3   OH2 4631   7.055   0.679   5.050 -0.1003 -0.5616 -0.4864
 1556TIP3    H1 4632   7.100   0.764   5.052 -1.4647  0.1972 -0.3244
 1556TIP3    H2 4633   6.980   0.692   5.108 -2.3836 -0.6722 -3.2028
 1557TIP3   OH2 4634   4.112   5.668   0.245 -0.5717  0.1148 -0.4122
 1557TIP3    H1 4635   4.159   5.659   0.327  1.8825 -3.8851 -1.9432
 1557TIP3    H2 4636   4.175   5.707   0.185 -2.8468  4.5936 -0.3070
 1558TIP3   OH2 4637   3.012   4.191   5.047  0.1801 -0.0263  0.4752
 1558TIP3    H1 4638   3.009   4.218   5.139 -0.9686 -0.2006  0.5067
 1558TIP3    H2 4639   2.925   4.155   5.030  0.1908  0.5110 -0.8371
 1559TIP3   OH2 4640   0.855   5.904   3.172  0.3607 -0.3508 -0.2672
 1559TIP3    H1 4641   0.841   5.832   3.233  0.0508  0.2978  0.4522
 1559TIP3    H2 4642   0.947   5.929   3.186  0.2038 -0.0030  0.1664
 1560TIP3   OH2 4643   0.406   3.139   3.599 -0.5554  0.3646 -0.0782
 1560TIP3    H1 4644   0.321   3.156   3.638 -0.7736 -0.5310 -0.1437
 1560TIP3    H2 4645   0.388   3.082   3.524  0.1408 -0.2757  0.2181
 1561TIP3   OH2 4646   4.937   6.175   0.299  0.4643 -0.4408 -0.1920
 1561TIP3    H1 4647   4.965   6.085   0.282  0.3789 -0.4575 -0.2474
 1561TIP3    H2 4648   4.898   6.171   0.386  1.5313 -0.2099  0.3120
 1562TIP3   OH2 4649   1.594   0.134   0.999  0.0649 -0.1277  0.3807
 1562TIP3    H1 4650   1.507   0.133   0.958 -0.2697 -1.7358  1.0573
 1562TIP3    H2 4651   1.579   0.174   1.084  0.3192  1.0921 -0.1317
 1563TIP3   OH2 4652   5.207   2.424   3.658 -0.2452  0.1854  0.0855
 1563TIP3    H1 4653   5.259   2.364   3.605  0.1760 -0.8662  1.6464
 1563TIP3    H2 4654   5.211   2.507   3.610  2.9244  0.1827  0.1639
 1564TIP3   OH2 4655   4.298   5.997   5.549 -0.1013 -0.0052  0.0610
 1564TIP3    H1 4656   4.356   5.977   5.475 -0.0516  1.2701 -0.2607
 1564TIP3    H2 4657   4.232   5.927   5.547  0.6449 -0.7167 -0.3820
 1565TIP3   OH2 4658   0.606   1.104   4.172  0.1040  0.5041  0.1882
 1565TIP3    H1 4659   0.595   1.009   4.159 -0.3589  0.4270  1.1216
 1565TIP3    H2 4660   0.700   1.119   4.160  0.1588 -0.0489 -0.1089
 1566TIP3   OH2 4661   3.403   1.379   1.712  0.0199  0.1193 -0.5075
 1566TIP3    H1 4662   3.335   1.405   1.775  0.1471 -0.4438 -0.1344
 1566TIP3    H2 4663   3.357   1.376   1.628 -0.4890 -0.5344 -0.2117
 1567TIP3   OH2 4664   6.475   2.916   4.741  0.6050 -0.3491 -0.7309
 1567TIP3    H1 4665   6.544   2.904   4.675 -0.9184 -0.1056 -2.4377
 1567TIP3    H2 4666   6.459   3.010   4.741  0.8738 -0.2894  0.3343
 1568TIP3   OH2 4667   5.292   4.884   4.419 -0.4829 -0.0886  0.0639
 1568TIP3    H1 4668   5.347   4.814   4.385  1.4472  2.1387 -1.8410
 1568TIP3    H2 4669   5.351   4.959   4.426 -2.4142  1.3751  1.9976
 1569TIP3   OH2 4670   6.721   1.304   3.245 -0.2157 -0.3476  0.4602
 1569TIP3    H1 4671   6.660   1.262   3.185 -0.2742 -0.7735  0.8119
 1569TIP3    H2 4672   6.699   1.266   3.331 -0.1306  0.2440  0.7470
 1570TIP3   OH2 4673   2.147   1.354   3.338 -0.6379  0.4966 -0.4031
 1570TIP3    H1 4674   2.158   1.291   3.267 -1.3108  0.1082 -0.1740
 1570TIP3    H2 4675   2.186   1.311   3.414 -0.7329  0.5227 -0.3392
 1571TIP3   OH2 4676   1.938   2.179   3.352  0.2061  0.1928  0.1042
 1571TIP3    H1 4677   2.025   2.167   3.389  0.3347 -0.6801 -0.4493
 1571TIP3    H2 4678   1.884   2.211   3.425  1.1304  1.4051  0.2821
 1572TIP3   OH2 4679   5.611   6.660   1.623  0.7273 -0.7748  0.0242
 1572TIP3    H1 4680   5.655   6.582   1.589  3.1769  0.5234  0.0264
 1572TIP3    H2 4681   5.671   6.732   1.604 -1.2285  1.0810  0.4595
 1573TIP3   OH2 4682   2.032   1.477   4.873 -0.0843  0.2210  0.3710
 1573TIP3    H1 4683   1.949   1.434   4.894  0.4147  0.5677  3.4146
 1573TIP3    H2 4684   2.007   1.564   4.843 -0.8552 -0.2416 -0.3701
 1574TIP3   OH2 4685   4.570   0.778   4.736 -0.1985 -0.6881  0.5508
 1574TIP3    H1 4686   4.563   0.683   4.740 -1.1337 -0.7572 -1.4717
 1574TIP3    H2 4687   4.493   0.806   4.687  0.1623  1.1106  0.9360
 1575TIP3   OH2 4688   6.360   0.369   0.028 -0.0047  0.4317 -0.2044
 1575TIP3    H1 4689   6.338   0.380   0.120 -1.5197  0.0236 -0.4929
 1575TIP3    H2 4690   6.374   0.276   0.017 -3.7530 -0.2190 -1.0968
 1576TIP3   OH2 4691   5.792   5.640   2.890 -0.0890  0.0967 -0.3025
 1576TIP3    H1 4692   5.745   5.694   2.826 -0.6163  0.7533  0.6081
 1576TIP3    H2 4693   5.725   5.610   2.950  0.3982 -0.5330 -0.0639
 1577TIP3   OH2 4694   6.303   1.418   0.545  0.2503 -0.4289  0.5631
 1577TIP3    H1 4695   6.255   1.496   0.516  0.3269 -0.4877  0.2690
 1577TIP3    H2 4696   6.280   1.408   0.637 -0.1419 -0.3390  0.4772
 1578TIP3   OH2 4697   4.396   3.210   5.680  0.2082  0.1561  0.6885
 1578TIP3    H1 4698   4.399   3.290   5.627  0.1568 -0.1871  0.1616
 1578TIP3    H2 4699   4.303   3.184   5.679  0.5419 -1.1541 -1.0467
 1579TIP3   OH2 4700   0.217   4.078   1.252 -0.1957 -0.2490  0.1821
 1579TIP3    H1 4701   0.260   3.996   1.276  2.4885  1.0996  0.4574
 1579TIP3    H2 4702   0.275   4.115   1.184 -0.8625  1.7679  0.6564
 1580TIP3   OH2 4703   5.558   0.225   5.508  0.1768 -0.1189 -0.4265
 1580TIP3    H1 4704   5.604   0.150   5.547  1.3221  0.1358 -1.2223
 1580TIP3    H2 4705   5.628   0.278   5.470 -0.6848  0.9771 -0.5310
 1581TIP3   OH2 4706   1.673   4.058   5.375  0.5485  0.3243 -0.6362
 1581TIP3    H1 4707   1.609   4.062   5.304 -1.2727 -1.7285  0.7644
 1581TIP3    H2 4708   1.685   3.965   5.391  1.6029  0.7242  1.1558
 1582TIP3   OH2 4709   0.394   5.789   5.506 -0.0929  0.6456 -0.1486
 1582TIP3    H1 4710   0.426   5.702   5.531 -0.7232  0.5296  0.2693
 1582TIP3    H2 4711   0.443   5.850   5.560  1.9371  0.7284 -1.9568
 1583TIP3   OH2 4712   5.997   5.655   2.304  0.0571  0.0840 -0.0324
 1583TIP3    H1 4713   6.000   5.560   2.302 -0.8622 -0.0418  1.8703
 1583TIP3    H2 4714   6.058   5.679   2.374 -1.5015  0.6967  1.1920
 1584TIP3   OH2 4715   6.014   1.499   5.457 -0.2346  0.0595  0.0612
 1584TIP3    H1 4716   6.068   1.499   5.377  0.3448  1.5410  0.4137
 1584TIP3    H2 4717   6.040   1.420   5.504  0.0166 -0.4020 -0.8283
 1585TIP3   OH2 4718   2.332   6.728   0.905  0.0424  0.1900 -0.2379
 1585TIP3    H1 4719   2.421   6.703   0.880  0.9094  1.7861  1.0277
 1585TIP3    H2 4720   2.278   6.653   0.882  1.8279 -1.1006 -0.3754
 1586TIP3   OH2 4721   4.821   3.794   5.573 -0.0040 -0.3108  0.1417
 1586TIP3    H1 4722   4.735   3.818   5.607 -0.5284 -2.1426  0.2175
 1586TIP3    H2 4723   4.868   3.759   5.648  0.7138  0.3713  0.0283
 1587TIP3   OH2 4724   1.289   5.859   4.753  0.2517  0.0156 -0.3143
 1587TIP3    H1 4725   1.378   5.824   4.743 -0.4710 -1.9685 -0.2497
 1587TIP3    H2 4726   1.249   5.803   4.820 -1.3904  0.1651 -1.1380
 1588TIP3   OH2 4727   1.008   6.105   4.608  0.0786 -0.5941  0.3802
 1588TIP3    H1 4728   0.953   6.119   4.531 -0.8495  0.2788  1.1852
 1588TIP3    H2 4729   1.073   6.175   4.604 -0.9372  0.4294  1.2140
 1589TIP3   OH2 4730   5.019   3.704   3.992 -0.3069 -0.6885 -0.4325
 1589TIP3    H1 4731   4.972   3.675   4.071  0.0090  0.2717  0.1237
 1589TIP3    H2 4732   5.048   3.623   3.951 -0.3265 -1.2043  0.5301
 1590TIP3   OH2 4733   5.888   1.343   4.314 -0.4135  0.4564 -0.5322
 1590TIP3    H1 4734   5.844   1.336   4.229  0.1070  0.4479 -0.8033
 1590TIP3    H2 4735   5.952   1.272   4.314  0.3021  1.0889 -0.5598
 1591TIP3   OH2 4736   0.399   1.787   1.564 -0.2713  0.8394 -0.2492
 1591TIP3    H1 4737   0.340   1.720   1.598 -1.5474  3.1226  2.3715
 1591TIP3    H2 4738   0.487   1.751   1.580 -0.9044  0.1066  1.9157
 1592TIP3   OH2 4739   0.352   3.129   3.110  0.1110 -0.2982  0.5747
 1592TIP3    H1 4740   0.341   3.224   3.102  0.0713 -0.4309 -1.7367
 1592TIP3    H2 4741   0.266   3.094   3.088  0.6152 -0.9072 -0.4779
 1593TIP3   OH2 4742   3.990   6.174   3.829 -0.6802  0.7357 -0.0536
 1593TIP3    H1 4743   3.937   6.116   3.884  0.0094  2.0779  2.1720
 1593TIP3    H2 4744   3.953   6.261   3.843  1.1327  1.4835  0.3800
 1594TIP3   OH2 4745   5.256   5.769   1.559 -0.5626 -0.1903 -0.4159
 1594TIP3    H1 4746   5.239   5.827   1.633  0.4726  1.5108 -1.4382
 1594TIP3    H2 4747   5.199   5.693   1.574 -2.6274  1.4436  0.5372
 1595TIP3   OH2 4748   2.035   0.658   4.403 -0.3469  0.2088  0.1240
 1595TIP3    H1 4749   2.026   0.588   4.338  0.4158  1.0499 -0.9351
 1595TIP3    H2 4750   1.992   0.734   4.363 -0.8394  0.4620  1.0959
 1596TIP3   OH2 4751   6.468   6.421   2.328  0.0718  0.6408  0.3295
 1596TIP3    H1 4752   6.543   6.374   2.364 -1.2476  0.0678  2.5123
 1596TIP3    H2 4753   6.400   6.412   2.395 -1.8549  1.4017 -1.4373
 1597TIP3   OH2 4754   5.417   1.681   3.742  0.3277 -0.1533 -0.2553
 1597TIP3    H1 4755   5.451   1.722   3.821 -1.8933 -0.9131  1.2126
 1597TIP3    H2 4756   5.399   1.754   3.683  2.2510  0.4136 -0.2091
 1598TIP3   OH2 4757   1.410   0.897   2.488  0.4179 -0.0521  0.2645
 1598TIP3    H1 4758   1.317   0.906   2.505  0.8484  0.9573  2.4890
 1598TIP3    H2 4759   1.416   0.870   2.396 -2.0033  0.5409 -0.1192
 1599TIP3   OH2 4760   2.690   4.337   1.531  0.0762  0.8317 -0.6381
 1599TIP3    H1 4761   2.694   4.422   1.486 -3.1276  1.4653  0.0439
 1599TIP3    H2 4762   2.690   4.359   1.624  1.6846 -0.1345 -0.3779
 1600TIP3   OH2 4763   0.592   3.554   0.383  1.2353 -0.3043 -0.1529
 1600TIP3    H1 4764   0.579   3.504   0.302  2.8096 -1.3950  0.2165
 1600TIP3    H2 4765   0.613   3.488   0.449  0.3277  0.6008  1.0879
 1601TIP3   OH2 4766   4.523   0.350  -0.031 -0.3312  0.3854 -0.1207
 1601TIP3    H1 4767   4.595   0.319   0.023 -0.5804  0.2781  0.1505
 1601TIP3    H2 4768   4.479   0.416   0.023 -0.9612 -0.1737  0.0616
 1602TIP3   OH2 4769   4.748   3.413   2.535 -0.3992 -0.0517 -0.1205
 1602TIP3    H1 4770   4.681   3.473   2.569 -0.2056  0.8387 -1.2485
 1602TIP3    H2 4771   4.819   3.470   2.507  1.0100 -0.9936  1.3445
 1603TIP3   OH2 4772   0.307   1.385   4.803 -0.2444  0.0929  0.0919
 1603TIP3    H1 4773   0.335   1.438   4.729  0.7465 -1.3309 -0.6056
 1603TIP3    H2 4774   0.366   1.410   4.874 -0.8065  1.0283  0.2457
 1604TIP3   OH2 4775   2.647   3.442   2.205  0.2348  0.4201  0.0302
 1604TIP3    H1 4776   2.649   3.529   2.166  1.6928  0.3504 -0.1073
 1604TIP3    H2 4777   2.664   3.456   2.298 -0.0135  0.3110  0.0943
 1605TIP3   OH2 4778   0.289   5.648   1.631 -0.1495 -0.1330 -0.2619
 1605TIP3    H1 4779   0.290   5.588   1.557 -1.5728 -0.1277 -0.3082
 1605TIP3    H2 4780   0.240   5.602   1.699  2.3269 -0.7464  1.2568
 1606TIP3   OH2 4781   6.707   6.253   3.481 -0.1578 -0.1107  0.2284
 1606TIP3    H1 4782   6.706   6.174   3.534  1.1776 -0.9391 -0.8956
 1606TIP3    H2 4783   6.695   6.221   3.391 -0.8472  1.0859 -0.1195
 1607TIP3   OH2 4784   0.034   1.937   3.014 -0.5916  0.5487 -0.1462
 1607TIP3    H1 4785  -0.056   1.915   2.990 -0.2416  0.0845 -1.0809
 1607TIP3    H2 4786   0.070   1.856   3.050 -0.2285  0.4256 -0.7731
 1608TIP3   OH2 4787   6.458   1.577   5.471 -0.3032  0.1436  0.5118
 1608TIP3    H1 4788   6.518   1.642   5.436 -1.2822  0.6078 -0.3385
 1608TIP3    H2 4789   6.474   1.499   5.418 -0.7560  0.3997 -0.0027
 1609TIP3   OH2 4790   6.761   3.491   3.643  0.2691 -0.3582 -0.3633
 1609TIP3    H1 4791   6.836   3.500   3.702 -1.1455 -1.9214  1.8614
 1609TIP3    H2 4792   6.743   3.580   3.612  1.9698  0.2888  0.4066
 1610TIP3   OH2 4793   7.071   1.846   2.595 -0.1927  0.6919 -0.1275
 1610TIP3    H1 4794   7.120   1.897   2.530 -0.0865  3.6219  2.0949
 1610TIP3    H2 4795   7.012   1.792   2.542  0.6461  2.0779 -2.6795
 1611TIP3   OH2 4796   5.206   5.958   1.761 -1.1300  0.1952 -0.1979
 1611TIP3    H1 4797   5.113   5.969   1.740 -1.2309  3.8537  1.4124
 1611TIP3    H2 4798   5.207   5.933   1.853 -0.4730 -2.1911 -0.7949
 1612TIP3   OH2 4799   3.185   5.112   1.466  0.1446  0.1993 -0.4682
 1612TIP3    H1 4800   3.152   5.190   1.423  1.8548  0.6813 -0.9570
 1612TIP3    H2 4801   3.109   5.076   1.512 -0.8685  1.6427 -0.9641
 1613TIP3   OH2 4802   4.488   3.977   5.335 -0.1684  0.5730  0.1748
 1613TIP3    H1 4803   4.424   3.909   5.355  2.3094 -2.1499 -0.5522
 1613TIP3    H2 4804   4.504   4.020   5.419 -0.7793 -0.6864  0.9687
 1614TIP3   OH2 4805   6.032   3.523   2.497 -0.0419 -0.0297 -0.2372
 1614TIP3    H1 4806   5.945   3.491   2.473  0.2583 -1.7139  0.7374
 1614TIP3    H2 4807   6.093   3.471   2.444  0.3956  2.3694 -2.2627
 1615TIP3   OH2 4808   1.915   1.652   5.747 -0.0019 -0.0299 -0.2030
 1615TIP3    H1 4809   2.000   1.673   5.709 -0.5138  1.9798 -0.3437
 1615TIP3    H2 4810   1.899   1.721   5.812 -0.9217 -1.1417  0.8115
 1616TIP3   OH2 4811   0.525   6.524   4.668  0.2031  0.0267 -0.2210
 1616TIP3    H1 4812   0.500   6.615   4.653 -2.2481 -0.7903 -1.7390
 1616TIP3    H2 4813   0.493   6.504   4.756 -1.0949  0.1053 -0.6569
 1617TIP3   OH2 4814   2.443   6.159   3.300  0.0416  0.1133  0.8605
 1617TIP3    H1 4815   2.425   6.080   3.249  1.2829  1.3891 -1.7993
 1617TIP3    H2 4816   2.357   6.195   3.320 -0.5578 -1.9770  2.3579
 1618TIP3   OH2 4817   6.475   2.725   5.460 -0.5158  0.2437  0.4749
 1618TIP3    H1 4818   6.486   2.704   5.367 -0.0094  1.6280  0.2094
 1618TIP3    H2 4819   6.398   2.675   5.486  0.7260 -2.0826 -0.0508
 1619TIP3   OH2 4820   4.231   3.924   0.392 -0.6120  0.8707 -0.1757
 1619TIP3    H1 4821   4.159   3.971   0.350 -1.1094 -0.8886 -1.3800
 1619TIP3    H2 4822   4.239   3.843   0.343  0.5045 -0.1340  1.5683
 1620TIP3   OH2 4823   5.657   6.432   1.460  0.5585 -0.2514  0.0976
 1620TIP3    H1 4824   5.677   6.346   1.424 -0.5271 -0.3266 -0.3527
 1620TIP3    H2 4825   5.691   6.494   1.395 -0.0980 -0.3691 -0.3679
 1621TIP3   OH2 4826   2.784   1.132   4.839 -0.1244  0.4889 -0.6206
 1621TIP3    H1 4827   2.761   1.045   4.805  0.5679 -0.0565  0.2381
 1621TIP3    H2 4828   2.862   1.116   4.892 -0.7833  1.4250  0.6619
 1622TIP3   OH2 4829   5.379   5.576   0.265  0.5388 -0.2580 -0.3624
 1622TIP3    H1 4830   5.382   5.584   0.360 -3.8848  0.1308 -0.0461
 1622TIP3    H2 4831   5.437   5.645   0.233  1.5330  0.0923  2.0303
 1623TIP3   OH2 4832   0.335   5.643   3.183  0.5454 -0.0953  0.1359
 1623TIP3    H1 4833   0.413   5.675   3.229 -0.7348  2.2515  0.8298
 1623TIP3    H2 4834   0.276   5.613   3.252  0.6678 -1.5694 -0.3652
 1624TIP3   OH2 4835   4.309   0.802   0.600 -0.6775  0.1409  0.1754
 1624TIP3    H1 4836   4.294   0.716   0.559 -2.6085  0.3259  0.3919
 1624TIP3    H2 4837   4.325   0.781   0.692 -0.2730 -0.0420  0.0641
 1625TIP3   OH2 4838   4.608   6.483   0.311  0.2345 -0.0226 -0.3515
 1625TIP3    H1 4839   4.558   6.538   0.251 -0.6969  1.4679  1.6394
 1625TIP3    H2 4840   4.639   6.544   0.379 -0.0185 -1.7782  1.4383
 1626TIP3   OH2 4841   3.342   2.390   0.337 -0.4893  0.1403  0.1845
 1626TIP3    H1 4842   3.434   2.414   0.325 -0.1680 -0.6928  0.8308
 1626TIP3    H2 4843   3.305   2.393   0.249  0.4250 -0.4971 -0.2447
 1627TIP3   OH2 4844   0.870   2.810   2.941 -0.0325  0.2251  0.2752
 1627TIP3    H1 4845   0.922   2.877   2.985 -1.7073  0.3180  2.2842
 1627TIP3    H2 4846   0.896   2.816   2.849  1.8933  1.6849  0.8475
 1628TIP3   OH2 4847   3.476   4.916   5.065 -0.1907 -0.2412 -0.5007
 1628TIP3    H1 4848   3.495   4.978   5.135 -0.9472  0.1236 -0.6023
 1628TIP3    H2 4849   3.465   4.832   5.109 -1.8208  0.1852 -0.0028
 1629TIP3   OH2 4850   5.338   2.030   0.182 -0.0040 -0.2671 -0.3902
 1629TIP3    H1 4851   5.281   2.106   0.196 -0.9156 -0.7428 -1.3527
 1629TIP3    H2 4852   5.366   2.039   0.091 -0.0946 -1.0586 -0.4970
 1630TIP3   OH2 4853   1.032   3.038   0.100 -0.1007  0.3926 -0.2077
 1630TIP3    H1 4854   0.975   2.974   0.058  1.8141 -0.5774 -1.5335
 1630TIP3    H2 4855   1.121   3.007   0.080  0.9173  3.0817 -0.3182
 1631TIP3   OH2 4856   4.045   0.141   1.170 -0.2231 -0.2783  0.1630
 1631TIP3    H1 4857   4.131   0.106   1.193 -0.6891 -0.9924  0.8838
 1631TIP3    H2 4858   3.995   0.138   1.251 -0.0627  2.9388  0.5088
 1632TIP3   OH2 4859   4.085   0.301   0.722  0.4874  0.3930  0.1819
 1632TIP3    H1 4860   4.054   0.298   0.812 -0.7226  0.0461 -0.2374
 1632TIP3    H2 4861   4.107   0.210   0.701 -0.8851  0.1885 -0.4288
 1633TIP3   OH2 4862   4.113   1.309   4.573 -0.8107  0.1431  0.1237
 1633TIP3    H1 4863   4.073   1.245   4.514 -0.8394 -0.8387  1.1678
 1633TIP3    H2 4864   4.070   1.392   4.551 -2.6147 -0.6522  0.4173
 1634TIP3   OH2 4865   1.879   2.722   3.348 -0.4625 -0.1452  0.5862
 1634TIP3    H1 4866   1.786   2.722   3.373 -0.4143 -0.9743  0.8030
 1634TIP3    H2 4867   1.925   2.739   3.430 -0.4137  0.1420  0.5006
 1635TIP3   OH2 4868   5.332   5.229   3.294 -0.3457 -0.3494 -0.0839
 1635TIP3    H1 4869   5.349   5.256   3.384 -0.0307 -2.4406  0.5399
 1635TIP3    H2 4870   5.240   5.251   3.279 -1.0195 -1.8434  1.5183
 1636TIP3   OH2 4871   6.747   0.463   2.270 -0.2081 -0.3822  0.4851
 1636TIP3    H1 4872   6.696   0.525   2.218 -0.8359 -0.6308  0.8043
 1636TIP3    H2 4873   6.838   0.488   2.253 -0.4130 -0.2133 -0.4249
 1637TIP3   OH2 4874   6.558   4.930   4.103 -0.5184 -0.6023  0.0855
 1637TIP3    H1 4875   6.649   4.960   4.108 -1.3239  2.2918 -0.6098
 1637TIP3    H2 4876   6.519   4.958   4.186 -0.6211 -2.6712  0.7927
 1638TIP3   OH2 4877   5.660   3.861   4.174 -0.1000  0.3296 -0.2902
 1638TIP3    H1 4878   5.606   3.858   4.252  1.9064 -2.4242  1.1770
 1638TIP3    H2 4879   5.743   3.897   4.203  0.3560  0.2266 -1.3921
 1639TIP3   OH2 4880   4.387   0.179   1.544  0.6240  0.2222  0.5685
 1639TIP3    H1 4881   4.357   0.138   1.625  0.6057 -1.4781 -0.2449
 1639TIP3    H2 4882   4.449   0.115   1.507  0.5062  0.8884 -0.8374
 1640TIP3   OH2 4883   4.043   2.801   3.813 -0.1359  0.4259 -0.0901
 1640TIP3    H1 4884   3.984   2.733   3.844  0.4959 -0.0459  0.0874
 1640TIP3    H2 4885   4.039   2.795   3.718  1.6039 -1.3715 -0.1097
 1641TIP3   OH2 4886   2.915   1.008   2.893 -0.0180  0.0363 -0.0773
 1641TIP3    H1 4887   2.972   1.033   2.967  0.3637 -1.8528  0.3318
 1641TIP3    H2 4888   2.971   0.954   2.838 -0.3178  1.3886 -1.7834
 1642TIP3   OH2 4889   3.085   4.224   1.192 -0.0754 -0.3506  0.4011
 1642TIP3    H1 4890   3.030   4.204   1.268  0.2100  1.4640  1.1397
 1642TIP3    H2 4891   3.138   4.145   1.180 -1.0165 -1.1599  1.2803
 1643TIP3   OH2 4892   3.506   2.502   0.721  0.3595  0.1608  0.2678
 1643TIP3    H1 4893   3.511   2.570   0.654 -1.5884 -0.8010 -0.9149
 1643TIP3    H2 4894   3.439   2.534   0.782  0.4378 -0.0697  0.4754
 1644TIP3   OH2 4895   3.436   4.478   0.013 -0.5282 -0.2426 -0.1760
 1644TIP3    H1 4896   3.455   4.563  -0.025 -0.2270 -0.3143 -0.1895
 1644TIP3    H2 4897   3.452   4.489   0.107 -0.9166 -0.1649 -0.1170
 1645TIP3   OH2 4898   6.901   4.102   5.505 -0.0700  0.8655 -0.2936
 1645TIP3    H1 4899   6.924   4.055   5.425  2.2043 -2.7838  2.1938
 1645TIP3    H2 4900   6.849   4.039   5.556 -3.4060  3.8444  0.3723
 1646TIP3   OH2 4901   5.348   1.149   1.645  0.4348 -0.2136 -0.0122
 1646TIP3    H1 4902   5.361   1.076   1.585  1.8207  0.4511 -0.5834
 1646TIP3    H2 4903   5.352   1.109   1.732  0.9722 -0.8541 -0.3196
 1647TIP3   OH2 4904   2.843   3.827   4.133  0.3915  0.1176 -0.2599
 1647TIP3    H1 4905   2.867   3.739   4.102  2.0035 -0.4233  2.2600
 1647TIP3    H2 4906   2.826   3.816   4.226 -2.5639  1.9642 -0.4469
 1648TIP3   OH2 4907   5.377   1.250   5.281 -0.1394 -0.6440  0.1316
 1648TIP3    H1 4908   5.380   1.346   5.281  0.1527 -0.6249  2.0620
 1648TIP3    H2 4909   5.289   1.229   5.249  0.7148  0.1380 -3.1025
 1649TIP3   OH2 4910   4.353   3.703   2.033  0.1153 -0.1386 -0.0232
 1649TIP3    H1 4911   4.346   3.672   1.943  0.3837 -0.4046  0.0483
 1649TIP3    H2 4912   4.331   3.627   2.087 -0.1455  0.0475  0.1336
 1650TIP3   OH2 4913   7.119   5.481   1.131 -0.1880 -0.1708  0.4505
 1650TIP3    H1 4914   7.076   5.396   1.128  1.3228 -0.9578 -0.3210
 1650TIP3    H2 4915   7.146   5.498   1.041  0.1987  0.7589  0.7245
 1651TIP3   OH2 4916   0.282   3.894   3.262  0.4211  0.5954  0.1450
 1651TIP3    H1 4917   0.238   3.929   3.339  1.3745  0.2636  0.8567
 1651TIP3    H2 4918   0.329   3.969   3.225 -0.0753  0.7655 -0.1565
 1652TIP3   OH2 4919   2.905   2.060   3.060 -0.5275 -0.3681  0.0851
 1652TIP3    H1 4920   2.860   1.998   3.003  0.1256 -1.4174  0.6755
 1652TIP3    H2 4921   2.997   2.035   3.055 -0.3613  0.0307  0.9637
 1653TIP3   OH2 4922   2.554   3.847   1.918 -0.0759 -0.6020  0.0568
 1653TIP3    H1 4923   2.583   3.790   1.989 -0.5210 -0.9130 -0.0062
 1653TIP3    H2 4924   2.503   3.790   1.861 -0.1640 -0.2351 -0.2365
 1654TIP3   OH2 4925   6.357   3.270   3.590  0.2135  0.1687  0.4378
 1654TIP3    H1 4926   6.389   3.296   3.503  1.3502  0.7221  0.9971
 1654TIP3    H2 4927   6.377   3.345   3.646 -0.4161 -0.2256  1.2008
 1655TIP3   OH2 4928   2.065   3.000   1.402 -0.3892 -0.2554  0.6278
 1655TIP3    H1 4929   2.119   3.036   1.332 -1.0858  0.4237  0.4360
 1655TIP3    H2 4930   1.984   3.050   1.399 -1.3455 -1.7393  0.4273
 1656TIP3   OH2 4931   3.373   2.106   3.541 -0.0523 -0.0376  0.0302
 1656TIP3    H1 4932   3.402   2.197   3.540  1.4748 -0.5056  0.1442
 1656TIP3    H2 4933   3.372   2.080   3.449 -2.0052  0.5131 -0.1619
 1657TIP3   OH2 4934   6.232   5.090   4.100  0.3639  0.1103  0.4025
 1657TIP3    H1 4935   6.205   5.036   4.173 -1.1751 -1.4801 -1.2509
 1657TIP3    H2 4936   6.190   5.175   4.115 -1.4494 -0.7698  0.4433
 1658TIP3   OH2 4937   4.368   6.267   5.526 -0.2770  0.3083  0.0861
 1658TIP3    H1 4938   4.336   6.293   5.439 -1.4002 -1.8483 -0.2099
 1658TIP3    H2 4939   4.332   6.180   5.540  1.7292 -0.3360  1.7867
 1659TIP3   OH2 4940   5.150   5.774   4.542 -0.1562  0.2485 -0.0938
 1659TIP3    H1 4941   5.129   5.865   4.563 -1.1389 -0.3700  1.8157
 1659TIP3    H2 4942   5.219   5.780   4.476 -0.0620  2.3587  0.1288
 1660TIP3   OH2 4943   6.100   0.564   5.283 -0.1010 -0.2239 -0.0968
 1660TIP3    H1 4944   6.141   0.481   5.261 -0.5860 -0.1280 -1.4403
 1660TIP3    H2 4945   6.034   0.542   5.349  2.2961 -0.3134  2.4365
 1661TIP3   OH2 4946   0.080   0.956   3.763  0.2077  0.4148  0.0690
 1661TIP3    H1 4947   0.073   1.034   3.707 -0.2977  0.3410  0.0305
 1661TIP3    H2 4948   0.099   0.991   3.850  1.4562  0.5100 -0.2271
 1662TIP3   OH2 4949   5.728   5.043   2.185 -0.3929 -0.3409 -0.4865
 1662TIP3    H1 4950   5.820   5.037   2.212  0.0025  1.6597 -1.1597
 1662TIP3    H2 4951   5.685   5.091   2.255 -0.9214 -1.1683 -0.2304
 1663TIP3   OH2 4952   2.165   4.369   4.718  0.5202  0.3317 -0.2907
 1663TIP3    H1 4953   2.184   4.443   4.775  0.0270 -0.3482  0.7910
 1663TIP3    H2 4954   2.085   4.330   4.754  1.5238 -1.5496  0.0291
 1664TIP3   OH2 4955   0.457   0.554   4.280 -0.3718  0.0012 -0.2151
 1664TIP3    H1 4956   0.517   0.483   4.299 -1.2960 -0.8148 -0.2473
 1664TIP3    H2 4957   0.393   0.551   4.351 -2.5488 -1.6151 -2.0742
 1665TIP3   OH2 4958   4.686   4.230   3.688 -0.1883  0.1733  0.1119
 1665TIP3    H1 4959   4.631   4.154   3.668 -0.2745  0.6088 -1.4366
 1665TIP3    H2 4960   4.761   4.221   3.630  0.3827  0.6655  0.7601
 1666TIP3   OH2 4961   5.922   2.495   1.785 -0.0329 -0.2568 -0.0479
 1666TIP3    H1 4962   5.852   2.440   1.821 -0.3497  0.4231  0.3955
 1666TIP3    H2 4963   5.904   2.496   1.691  0.0162 -0.9599 -0.0701
 1667TIP3   OH2 4964   0.466   2.964   0.052  0.1178 -0.1144  0.3673
 1667TIP3    H1 4965   0.447   2.870   0.052 -1.1984  0.1011 -1.3554
 1667TIP3    H2 4966   0.397   3.003  -0.003  1.3553  1.6996 -0.0029
 1668TIP3   OH2 4967   5.786   4.613   4.368  0.2762  0.1990  0.3697
 1668TIP3    H1 4968   5.772   4.620   4.273  0.5927 -0.2664  0.2833
 1668TIP3    H2 4969   5.709   4.566   4.400  0.2188  0.2639  0.3278
 1669TIP3   OH2 4970   4.803   0.823   0.171 -0.3580 -0.1089 -0.0179
 1669TIP3    H1 4971   4.726   0.788   0.216 -1.7888 -0.2072 -2.4071
 1669TIP3    H2 4972   4.790   0.917   0.171 -0.1056 -0.0715  0.1761
 1670TIP3   OH2 4973   5.235   4.556   3.437 -0.4254 -0.4558  0.1088
 1670TIP3    H1 4974   5.149   4.535   3.400 -0.3595 -1.0529  0.2882
 1670TIP3    H2 4975   5.216   4.610   3.514 -0.5916  0.2585 -0.4228
 1671TIP3   OH2 4976   3.321   0.097   4.277 -0.5902  0.0869 -0.0820
 1671TIP3    H1 4977   3.408   0.073   4.307 -0.6964  1.5428  1.5229
 1671TIP3    H2 4978   3.270   0.016   4.286  0.3648 -0.5582 -0.2412
 1672TIP3   OH2 4979   2.259   4.753   5.068 -0.1675 -0.1895  0.8400
 1672TIP3    H1 4980   2.207   4.728   4.992  0.4629 -0.9683  0.6506
 1672TIP3    H2 4981   2.230   4.693   5.138  0.2104 -0.3929  0.8281
 1673TIP3   OH2 4982   0.154   0.937   4.642 -0.1130 -0.4537 -0.2933
 1673TIP3    H1 4983   0.186   0.986   4.718 -0.2479  0.9665 -1.1216
 1673TIP3    H2 4984   0.094   0.872   4.679  3.0628 -2.8153  1.2554
 1674TIP3   OH2 4985   4.313   3.439   1.006 -0.4935  0.0802 -0.6527
 1674TIP3    H1 4986   4.393   3.470   0.962  0.0902 -1.4295 -0.7022
 1674TIP3    H2 4987   4.243   3.489   0.965  0.2134 -0.0625 -2.0958
 1675TIP3   OH2 4988   2.232   0.134   4.542 -0.0796 -0.3205 -0.2289
 1675TIP3    H1 4989   2.237   0.040   4.525  1.3853 -0.3845  0.3972
 1675TIP3    H2 4990   2.311   0.153   4.594  0.7522  1.6186 -2.0820
 1676TIP3   OH2 4991   1.337   2.811   1.833  0.1936 -0.2196  0.0427
 1676TIP3    H1 4992   1.405   2.877   1.822  1.0836 -1.2248 -0.6379
 1676TIP3    H2 4993   1.255   2.859   1.819  0.7859  0.8409  0.0926
 1677TIP3   OH2 4994   4.241   3.795   4.691 -0.3620 -0.9010 -0.3936
 1677TIP3    H1 4995   4.294   3.802   4.612 -0.3773  0.5082 -0.3079
 1677TIP3    H2 4996   4.153   3.773   4.660 -0.2014 -1.0929 -0.7114
 1678TIP3   OH2 4997   0.022   3.612   3.461  0.2329  0.0428  0.2594
 1678TIP3    H1 4998   0.025   3.650   3.548 -0.5154 -0.6115  0.5851
 1678TIP3    H2 4999   0.099   3.554   3.457  0.7333  0.7056  0.1706
 1679TIP3   OH2 5000   0.663   4.843   5.300 -0.1890 -0.1732 -0.2446
 1679TIP3    H1 5001   0.705   4.819   5.217 -0.1272  0.6913 -0.4747
 1679TIP3    H2 5002   0.714   4.798   5.367  0.7420  0.3892 -0.5656
 1680TIP3   OH2 5003   2.979   3.507   2.109  0.2297 -0.2589 -0.0684
 1680TIP3    H1 5004   2.924   3.443   2.063  0.8954 -1.6371  0.9847
 1680TIP3    H2 5005   2.978   3.585   2.052 -0.3593 -1.2958 -1.5381
 1681TIP3   OH2 5006   4.186   6.794   5.559  0.4624  1.1079  0.0062
 1681TIP3    H1 5007   4.100   6.756   5.540  1.0087 -0.7556  0.9926
 1681TIP3    H2 5008   4.247   6.741   5.507  1.0782  2.0703 -0.2687
 1682TIP3   OH2 5009   4.723   2.118   0.618  0.1458  0.2143  0.1155
 1682TIP3    H1 5010   4.777   2.044   0.592  1.6558  1.8075 -1.5514
 1682TIP3    H2 5011   4.754   2.141   0.706  0.2709 -0.5846  0.2816
 1683TIP3   OH2 5012   5.235   0.557   3.040 -0.1673 -0.1415 -0.2384
 1683TIP3    H1 5013   5.240   0.478   2.986 -2.6800  0.7371 -1.9266
 1683TIP3    H2 5014   5.144   0.561   3.069 -0.5041  2.8621 -1.4064
 1684TIP3   OH2 5015   5.904   4.825   1.023  0.2368 -0.4993 -0.2712
 1684TIP3    H1 5016   5.822   4.798   1.065  1.0638 -0.9550  1.1063
 1684TIP3    H2 5017   5.915   4.917   1.048  1.2213 -1.0315  1.4175
 1685TIP3   OH2 5018   4.991   4.857   5.376  0.3705 -0.0998  0.2086
 1685TIP3    H1 5019   4.975   4.762   5.380 -1.7595  0.2110  0.2042
 1685TIP3    H2 5020   4.907   4.896   5.398  1.0543  1.8025 -0.3995
 1686TIP3   OH2 5021   5.947   1.899   3.478 -0.5486  0.5644 -0.2633
 1686TIP3    H1 5022   5.882   1.963   3.508 -1.9416  0.1540 -2.2031
 1686TIP3    H2 5023   5.936   1.824   3.536 -1.0616  0.9051  0.0834
 1687TIP3   OH2 5024   1.593   5.017   1.767 -0.4318 -0.2364 -0.2814
 1687TIP3    H1 5025   1.646   4.948   1.806 -0.3443 -1.1217 -1.9213
 1687TIP3    H2 5026   1.553   5.061   1.843  2.2026  0.1840  0.9933
 1688TIP3   OH2 5027   4.273   0.088   1.277  0.4431  0.5154 -0.2328
 1688TIP3    H1 5028   4.301  -0.004   1.274 -0.5401  0.1450  0.8936
 1688TIP3    H2 5029   4.280   0.112   1.369 -1.7526  0.7363 -0.0572
 1689TIP3   OH2 5030   1.068   2.823   2.614  0.2403 -0.0048  0.0336
 1689TIP3    H1 5031   1.093   2.738   2.649  0.3972 -0.7837 -1.8574
 1689TIP3    H2 5032   0.972   2.823   2.615  0.2346  0.4589  1.4827
 1690TIP3   OH2 5033   7.183   3.138   5.445  0.1734  0.0441 -0.2402
 1690TIP3    H1 5034   7.121   3.098   5.383  1.0087 -1.9176  0.1294
 1690TIP3    H2 5035   7.229   3.203   5.392 -1.0155  0.3353 -0.9631
 1691TIP3   OH2 5036   3.249   0.982   4.099 -0.1956 -0.2362  0.2044
 1691TIP3    H1 5037   3.234   1.070   4.133 -0.1456  0.4350 -1.4350
 1691TIP3    H2 5038   3.168   0.961   4.052 -0.1825 -1.0499  0.5327
 1692TIP3   OH2 5039   6.629   5.401   0.692 -0.3245  0.0758  0.3937
 1692TIP3    H1 5040   6.670   5.348   0.623 -2.7661  0.5143 -1.5518
 1692TIP3    H2 5041   6.622   5.341   0.767  0.8763 -0.9562 -0.2652
 1693TIP3   OH2 5042   4.621   0.704   1.679  0.1372 -0.1324  0.2487
 1693TIP3    H1 5043   4.603   0.619   1.639  0.8357 -0.1534 -0.0279
 1693TIP3    H2 5044   4.618   0.766   1.606 -1.7371  0.3064  0.6369
 1694TIP3   OH2 5045   3.286   1.333   3.169  0.1406 -0.4016 -0.4256
 1694TIP3    H1 5046   3.377   1.315   3.143  0.0140 -0.9313 -0.5089
 1694TIP3    H2 5047   3.277   1.289   3.254 -0.0860 -0.4942 -0.4975
 1695TIP3   OH2 5048   2.437   4.830   4.314  0.1060  0.3398  0.0837
 1695TIP3    H1 5049   2.408   4.841   4.404  0.2450  2.7196 -0.1093
 1695TIP3    H2 5050   2.365   4.863   4.261  0.1599 -0.7286 -0.7000
 1696TIP3   OH2 5051   3.420   6.288   0.890  0.6756 -0.4097 -0.0073
 1696TIP3    H1 5052   3.462   6.209   0.857  3.1725  0.5134  0.8003
 1696TIP3    H2 5053   3.404   6.270   0.983 -0.7375 -0.7159 -0.2817
 1697TIP3   OH2 5054   1.999   3.505   0.059 -0.3823 -0.5303  0.1580
 1697TIP3    H1 5055   2.067   3.477   0.120 -3.0595 -3.1459  2.2324
 1697TIP3    H2 5056   2.001   3.439  -0.011 -0.0992  0.0582 -0.4073
 1698TIP3   OH2 5057   7.055   0.585   2.876 -0.4412 -0.1401  0.0573
 1698TIP3    H1 5058   7.017   0.559   2.792 -1.0628  0.9807 -0.0319
 1698TIP3    H2 5059   7.130   0.640   2.852 -0.3385 -0.1995  0.2409
 1699TIP3   OH2 5060   3.699   1.217   0.868  0.2254  0.2567 -0.6281
 1699TIP3    H1 5061   3.664   1.275   0.935  1.4692  1.2134 -0.7726
 1699TIP3    H2 5062   3.630   1.152   0.854 -0.2836  0.3786  1.1529
 1700TIP3   OH2 5063   3.474   5.885   3.194 -0.3119  0.4155 -0.2655
 1700TIP3    H1 5064   3.547   5.915   3.139  0.3501  0.7232  0.7609
 1700TIP3    H2 5065   3.490   5.926   3.279  0.1985 -2.2063  0.9865
 1701TIP3   OH2 5066   1.063   6.209   5.266 -1.2081  0.2167  0.5213
 1701TIP3    H1 5067   1.006   6.132   5.266 -2.1054  0.8401 -0.5662
 1701TIP3    H2 5068   1.111   6.202   5.183 -0.2000  0.0640  1.1084
 1702TIP3   OH2 5069   1.496   0.338   0.234  0.1313 -0.3164 -0.5715
 1702TIP3    H1 5070   1.410   0.356   0.195  0.3684  0.5506 -0.7117
 1702TIP3    H2 5071   1.481   0.261   0.290 -1.3108  1.1893  1.2445
 1703TIP3   OH2 5072   5.242   4.078   2.173 -0.3845  0.3506 -0.4142
 1703TIP3    H1 5073   5.178   4.082   2.244 -1.8031  1.1628 -1.7055
 1703TIP3    H2 5074   5.286   4.163   2.175 -0.7787  0.5629 -0.8369
 1704TIP3   OH2 5075   4.330   3.624   3.876  0.1887  0.6562  0.2980
 1704TIP3    H1 5076   4.239   3.599   3.857  0.3906  1.1925 -1.5931
 1704TIP3    H2 5077   4.322   3.700   3.934 -0.6470  1.6609 -1.0796
 1705TIP3   OH2 5078   1.687   5.406   0.470  0.0544 -0.2138 -0.6490
 1705TIP3    H1 5079   1.665   5.439   0.557  0.5283 -1.9521  0.1811
 1705TIP3    H2 5080   1.750   5.336   0.486 -0.0089 -0.7195 -2.3815
 1706TIP3   OH2 5081   4.550   1.410   0.284  0.3893  0.4697 -0.2918
 1706TIP3    H1 5082   4.549   1.429   0.190  0.8314  1.5900 -0.0785
 1706TIP3    H2 5083   4.499   1.481   0.323  2.7649  1.7850  0.6030
 1707TIP3   OH2 5084   2.444   6.218   3.958  0.3545  0.1136 -0.3493
 1707TIP3    H1 5085   2.350   6.211   3.974  0.5782 -2.1172  0.2393
 1707TIP3    H2 5086   2.465   6.309   3.982 -1.6848  0.7770 -0.8509
 1708TIP3   OH2 5087   5.470   4.136   1.100  0.0607  0.2186  0.8247
 1708TIP3    H1 5088   5.545   4.080   1.081  0.2504  0.7819 -0.1659
 1708TIP3    H2 5089   5.397   4.076   1.113  0.0596 -0.2555 -1.1185
 1709TIP3   OH2 5090   3.240   1.735   1.660  0.2181 -0.2250 -0.5948
 1709TIP3    H1 5091   3.301   1.766   1.727  0.7342  0.1746 -1.2402
 1709TIP3    H2 5092   3.208   1.651   1.693 -0.8567  0.7480  0.9784
 1710TIP3   OH2 5093   2.488   1.046   3.977  0.5204  0.0811 -0.4143
 1710TIP3    H1 5094   2.546   1.118   4.001  0.1618  0.1463  0.3035
 1710TIP3    H2 5095   2.502   1.033   3.884 -0.5583  2.0979 -0.9087
 1711TIP3   OH2 5096   4.101   1.996   5.229  0.1069 -0.3106  0.4012
 1711TIP3    H1 5097   4.150   1.914   5.229  1.0101  0.1798  1.9719
 1711TIP3    H2 5098   4.113   2.031   5.317 -0.0279  1.6304 -0.2892
 1712TIP3   OH2 5099   4.523   0.308   5.128  0.3271  0.0620  0.3177
 1712TIP3    H1 5100   4.451   0.262   5.084  0.6538 -0.2257  0.0683
 1712TIP3    H2 5101   4.482   0.355   5.200 -0.4118  1.5489 -1.0214
 1713TIP3   OH2 5102   0.968   4.642   2.954 -0.0588 -0.3711 -0.2118
 1713TIP3    H1 5103   0.972   4.633   2.859 -0.3548 -1.9212 -0.1131
 1713TIP3    H2 5104   0.875   4.636   2.975 -0.0542  0.5928  0.1410
 1714TIP3   OH2 5105   1.201   4.176   5.693  0.0999  0.1144 -0.0297
 1714TIP3    H1 5106   1.208   4.258   5.643 -1.0012 -0.7118 -1.6182
 1714TIP3    H2 5107   1.109   4.171   5.719  0.0788 -0.7742 -0.2479
 1715TIP3   OH2 5108   1.029   4.499   3.183 -0.3556 -0.0584  0.1250
 1715TIP3    H1 5109   1.025   4.530   3.093 -1.8803  0.6783  0.4107
 1715TIP3    H2 5110   1.010   4.406   3.178  0.0510 -0.1203 -0.3474
 1716TIP3   OH2 5111   4.548   6.148   0.546  0.0251  0.6228 -0.2800
 1716TIP3    H1 5112   4.501   6.067   0.526  1.0360  0.1633 -0.8739
 1716TIP3    H2 5113   4.525   6.167   0.637 -2.6999  1.3963 -1.0078
 1717TIP3   OH2 5114   2.586   1.622   4.460  0.3282  0.2277 -0.1304
 1717TIP3    H1 5115   2.635   1.543   4.436  0.4407 -0.2276  1.4721
 1717TIP3    H2 5116   2.650   1.680   4.500 -0.3480 -0.2897  1.7982
 1718TIP3   OH2 5117   5.354   1.337   0.393 -0.2926 -0.6504 -0.5288
 1718TIP3    H1 5118   5.313   1.254   0.369 -0.9327 -0.8209  1.0754
 1718TIP3    H2 5119   5.325   1.398   0.325 -1.1928 -1.3460 -0.7962
 1719TIP3   OH2 5120   1.119   4.480   3.786  0.6126 -0.5961  0.0413
 1719TIP3    H1 5121   1.085   4.392   3.807  1.2037 -0.6666  0.7551
 1719TIP3    H2 5122   1.214   4.469   3.788  0.6984  0.1895  0.7478
 1720TIP3   OH2 5123   5.639   4.473   5.662  0.0258  0.2779  0.2300
 1720TIP3    H1 5124   5.696   4.434   5.728  1.3557  0.8054 -0.5614
 1720TIP3    H2 5125   5.608   4.554   5.702  1.6061  1.0859 -0.1156
 1721TIP3   OH2 5126   2.721   4.623   3.942  0.0460 -0.1005  0.2338
 1721TIP3    H1 5127   2.741   4.664   3.859  1.5356  0.4859  0.8505
 1721TIP3    H2 5128   2.696   4.695   4.000  0.1126 -0.3602  0.5954
 1722TIP3   OH2 5129   3.082   5.318   5.161  0.0177  0.8495  0.0181
 1722TIP3    H1 5130   3.133   5.321   5.081 -0.5521  0.8280 -0.3514
 1722TIP3    H2 5131   3.063   5.410   5.181  0.9648  0.9176  0.6590
 1723TIP3   OH2 5132   4.546   3.150   3.634  0.6887 -0.4042  0.6215
 1723TIP3    H1 5133   4.537   3.181   3.544  1.2297 -1.5938  0.1331
 1723TIP3    H2 5134   4.598   3.069   3.626  1.1474 -0.2743  2.0418
 1724TIP3   OH2 5135   4.794   1.763   2.180 -0.0721 -0.4055  0.0272
 1724TIP3    H1 5136   4.779   1.719   2.263 -0.1548  0.2155  0.3443
 1724TIP3    H2 5137   4.736   1.719   2.118 -0.4303 -0.4903  0.4239
 1725TIP3   OH2 5138   0.397   4.186   5.365  0.2279  0.4856  0.4396
 1725TIP3    H1 5139   0.446   4.240   5.428  1.2217  0.2333 -0.1053
 1725TIP3    H2 5140   0.462   4.129   5.326 -0.3086  0.8699 -1.0826
 1726TIP3   OH2 5141   4.330   3.783   3.605  0.3525  0.2139 -0.0059
 1726TIP3    H1 5142   4.369   3.870   3.615  0.7742 -0.0865  1.0835
 1726TIP3    H2 5143   4.243   3.791   3.643  0.1680  0.3048 -0.4388
 1727TIP3   OH2 5144   1.705   3.083   2.495  0.1205 -0.0010  0.0479
 1727TIP3    H1 5145   1.737   3.027   2.566  0.6287 -1.4899 -1.2826
 1727TIP3    H2 5146   1.646   3.144   2.537  1.1893 -0.1686  1.9091
 1728TIP3   OH2 5147   0.220   1.908   4.583 -0.4790 -0.4013 -0.6488
 1728TIP3    H1 5148   0.294   1.921   4.643 -0.1115 -0.6824 -1.0349
 1728TIP3    H2 5149   0.161   1.981   4.601 -0.6264 -0.7637  0.4295
 1729TIP3   OH2 5150   0.185   2.756   5.489 -0.0993 -0.0431 -0.3290
 1729TIP3    H1 5151   0.183   2.661   5.506  0.3940 -0.3309 -1.7524
 1729TIP3    H2 5152   0.110   2.772   5.433 -1.2497  0.7547  1.3634
 1730TIP3   OH2 5153   0.043   0.790   2.489 -0.5280  0.2766  0.1259
 1730TIP3    H1 5154   0.060   0.732   2.415 -1.2169 -0.6622  0.6903
 1730TIP3    H2 5155  -0.052   0.785   2.503 -0.5488  1.2341  0.4455
 1731TIP3   OH2 5156   6.457   6.699   4.489 -0.3111 -1.0652 -0.0111
 1731TIP3    H1 5157   6.449   6.775   4.430 -0.5646 -0.1534  1.1674
 1731TIP3    H2 5158   6.372   6.693   4.532 -0.1956 -1.8578  0.1068
 1732TIP3   OH2 5159   4.172   3.402   2.244  0.2006  0.8307 -0.2048
 1732TIP3    H1 5160   4.135   3.415   2.157 -0.6885  0.3747  0.0958
 1732TIP3    H2 5161   4.096   3.390   2.301  0.7805  0.8664  0.5917
 1733TIP3   OH2 5162   6.999   5.644   3.220 -0.4225  0.5078 -0.6539
 1733TIP3    H1 5163   7.009   5.606   3.307 -1.2594  0.5562 -0.5270
 1733TIP3    H2 5164   6.928   5.708   3.229  0.0829  1.1670 -1.1652
 1734TIP3   OH2 5165   2.383   4.659   5.632 -0.6033  0.2013  0.4797
 1734TIP3    H1 5166   2.355   4.636   5.543  1.4098 -1.9325  0.3369
 1734TIP3    H2 5167   2.328   4.606   5.689 -0.3558 -0.1307  0.4104
 1735TIP3   OH2 5168   4.811   6.538   2.869  0.2236 -1.5521  0.3555
 1735TIP3    H1 5169   4.773   6.623   2.891  0.3855  0.0562 -4.3192
 1735TIP3    H2 5170   4.736   6.481   2.853  0.0061 -1.2757  0.3897
 1736TIP3   OH2 5171   1.886   6.295   2.022  0.0042 -0.1974 -0.7375
 1736TIP3    H1 5172   1.835   6.241   1.962 -0.4014 -1.0547  0.3603
 1736TIP3    H2 5173   1.977   6.284   1.993 -0.2991  0.5010 -2.0395
 1737TIP3   OH2 5174   7.147   0.551   5.566 -0.0003  0.0277 -0.1783
 1737TIP3    H1 5175   7.084   0.623   5.564 -0.3393 -0.1028  2.5106
 1737TIP3    H2 5176   7.208   0.575   5.636  0.3584 -1.9180  0.2226
 1738TIP3   OH2 5177   0.695   2.634   5.326  0.6347 -0.3184 -0.1529
 1738TIP3    H1 5178   0.648   2.709   5.362 -0.3599 -0.7597 -0.4756
 1738TIP3    H2 5179   0.672   2.634   5.233 -1.7929 -2.6246  0.2999
 1739TIP3   OH2 5180   0.288   2.117   4.359 -0.3668 -0.4206  0.2258
 1739TIP3    H1 5181   0.195   2.096   4.364 -0.1170 -1.4741  0.6889
 1739TIP3    H2 5182   0.327   2.073   4.434  0.8357 -1.8476 -1.1524
 1740TIP3   OH2 5183   6.079   0.717   0.061  0.1558  0.1559 -0.0140
 1740TIP3    H1 5184   6.076   0.771  -0.018 -2.2443  1.4007  0.8325
 1740TIP3    H2 5185   6.122   0.773   0.126  2.7740 -1.1253 -0.5351
 1741TIP3   OH2 5186   5.543   3.929   4.524 -0.0465 -0.4282 -0.1973
 1741TIP3    H1 5187   5.544   3.994   4.455 -1.9683 -0.1556 -0.0310
 1741TIP3    H2 5188   5.514   3.849   4.481 -1.6973 -0.1490  0.3274
 1742TIP3   OH2 5189   2.306   2.677   4.419 -0.0734 -0.0735  0.3160
 1742TIP3    H1 5190   2.397   2.649   4.429  0.2111  1.0169  0.9156
 1742TIP3    H2 5191   2.302   2.762   4.462 -1.0232  0.5805 -1.0044
 1743TIP3   OH2 5192   4.838   2.340   1.381  0.5352 -0.1457 -0.5595
 1743TIP3    H1 5193   4.804   2.275   1.320  0.3088 -0.6156  0.0563
 1743TIP3    H2 5194   4.916   2.300   1.418  1.9307  0.9952 -2.0925
 1744TIP3   OH2 5195   3.723   1.478   5.840  0.2539 -0.6703  0.6295
 1744TIP3    H1 5196   3.748   1.391   5.809  1.1858 -0.1494 -0.1402
 1744TIP3    H2 5197   3.800   1.532   5.824 -0.4936  0.4186  0.6196
 1745TIP3   OH2 5198   4.669   4.035   3.233 -0.4140  0.6213  0.1236
 1745TIP3    H1 5199   4.581   4.032   3.194 -0.2911 -2.7337 -0.1172
 1745TIP3    H2 5200   4.728   4.026   3.159  0.1112  1.3406  0.4418
 1746TIP3   OH2 5201   4.812   6.274   0.833 -0.4677 -0.3004  0.0610
 1746TIP3    H1 5202   4.747   6.345   0.830 -0.3549  0.0345  3.0066
 1746TIP3    H2 5203   4.883   6.309   0.886  0.0170 -2.2953  0.7923
 1747TIP3   OH2 5204   2.749   2.991   1.800 -0.0187  0.2385 -0.2873
 1747TIP3    H1 5205   2.693   2.989   1.723 -0.3539  2.5905 -0.1933
 1747TIP3    H2 5206   2.688   2.985   1.874  0.1294 -0.1459 -0.1950
 1748TIP3   OH2 5207   1.993   5.134   5.129 -0.3844 -0.3951 -0.1756
 1748TIP3    H1 5208   2.005   5.042   5.151 -0.8488 -0.5714 -0.6155
 1748TIP3    H2 5209   1.899   5.141   5.110 -1.2580  1.0209  3.7603
 1749TIP3   OH2 5210   5.107   5.399   2.169  0.1495  0.2802  0.1039
 1749TIP3    H1 5211   5.054   5.471   2.204 -1.5129 -0.2477 -1.1981
 1749TIP3    H2 5212   5.114   5.419   2.076  1.8400  0.0479  0.1586
 1750TIP3   OH2 5213   3.473   3.846   5.539  0.4936  0.3771 -0.2308
 1750TIP3    H1 5214   3.456   3.757   5.570 -1.4332  0.9714  0.5356
 1750TIP3    H2 5215   3.393   3.872   5.493  1.7388  1.0519 -2.1623
 1751TIP3   OH2 5216   3.519   0.398   4.867  0.0840 -0.1380 -0.1482
 1751TIP3    H1 5217   3.577   0.464   4.905  0.2013 -0.0436 -0.4877
 1751TIP3    H2 5218   3.543   0.395   4.774  0.1658 -0.7471 -0.1125
 1752TIP3   OH2 5219   2.677   2.781   1.382  0.4362 -0.1605 -0.3847
 1752TIP3    H1 5220   2.686   2.686   1.381 -3.5733 -0.6853 -0.3588
 1752TIP3    H2 5221   2.665   2.805   1.290  0.5748  0.2252 -0.3051
 1753TIP3   OH2 5222   5.949   0.975   3.676 -0.5401  0.1319  0.1552
 1753TIP3    H1 5223   6.014   0.998   3.610 -0.9301 -0.5582 -0.4880
 1753TIP3    H2 5224   5.890   1.050   3.680 -2.0261 -0.8035 -2.1958
 1754TIP3   OH2 5225   5.505   4.664   4.556 -0.2300  0.0758  0.2577
 1754TIP3    H1 5226   5.431   4.613   4.523 -0.1042  0.5121 -0.7391
 1754TIP3    H2 5227   5.540   4.612   4.628  1.2888 -2.4078 -2.0884
 1755TIP3   OH2 5228   5.263   2.329   3.242 -0.1977  0.3768  0.5157
 1755TIP3    H1 5229   5.186   2.379   3.271  0.1829  1.3049 -0.0403
 1755TIP3    H2 5230   5.306   2.386   3.179  1.9161  0.6123  2.0655
 1756TIP3   OH2 5231   1.721   3.119   4.748  0.1102  0.1239  0.1308
 1756TIP3    H1 5232   1.731   3.141   4.655  1.5164  1.0542  0.4740
 1756TIP3    H2 5233   1.743   3.026   4.753 -0.6550 -0.1046 -0.5560
 1757TIP3   OH2 5234   4.078   1.300   1.697 -0.4024  0.5691  0.0626
 1757TIP3    H1 5235   3.998   1.310   1.645 -0.4284  0.8754  0.1600
 1757TIP3    H2 5236   4.049   1.310   1.788 -0.4743 -0.6896  0.1872
 1758TIP3   OH2 5237   2.150   2.187   2.720  0.5839  0.2968  0.0340
 1758TIP3    H1 5238   2.097   2.196   2.641  0.3335  1.3215  0.2938
 1758TIP3    H2 5239   2.228   2.240   2.703  0.0202  1.4464  0.8698
 1759TIP3   OH2 5240   5.316   4.808   2.922 -0.0897 -0.3140  0.1277
 1759TIP3    H1 5241   5.351   4.784   2.836 -0.7446 -1.0186  0.0483
 1759TIP3    H2 5242   5.394   4.818   2.977  0.4015  1.3130 -0.8152
 1760TIP3   OH2 5243   6.932   4.890   0.846  0.0849  0.1607 -0.2520
 1760TIP3    H1 5244   6.922   4.984   0.829  2.4162  0.8727  1.7993
 1760TIP3    H2 5245   6.854   4.867   0.897 -0.0020  1.2458  0.1342
 1761TIP3   OH2 5246   1.791   2.062   0.454  0.0282  0.0721 -0.3730
 1761TIP3    H1 5247   1.857   2.074   0.386  0.5051  2.0797  0.3885
 1761TIP3    H2 5248   1.789   2.145   0.501  0.6040 -1.5785  2.8678
 1762TIP3   OH2 5249   4.914   4.169   5.423  0.3361  0.1420  0.5281
 1762TIP3    H1 5250   4.921   4.132   5.511  0.9409 -0.7612  0.1265
 1762TIP3    H2 5251   4.851   4.113   5.378 -0.2663  0.8400  0.5024
 1763TIP3   OH2 5252   0.833   1.371   0.178 -0.4629  0.0151 -0.2104
 1763TIP3    H1 5253   0.885   1.332   0.108  0.0687 -0.2242  0.3086
 1763TIP3    H2 5254   0.804   1.455   0.143  0.0866  0.0460 -0.5966
 1764TIP3   OH2 5255   3.104   5.069   3.765  0.4412 -0.8151  0.0523
 1764TIP3    H1 5256   3.088   4.987   3.719  2.4443 -3.2334  3.2734
 1764TIP3    H2 5257   3.022   5.088   3.811  0.2990 -1.6364  0.1496
 1765TIP3   OH2 5258   6.131   4.217   3.998  0.0450  0.3838 -0.4129
 1765TIP3    H1 5259   6.203   4.172   4.042 -1.0955 -0.6629  0.4648
 1765TIP3    H2 5260   6.097   4.277   4.064 -0.8991 -0.3027 -0.2594
 1766TIP3   OH2 5261   1.207   5.082   4.100 -0.7048 -0.0794 -0.5215
 1766TIP3    H1 5262   1.206   5.107   4.007 -2.7418 -0.2632 -0.5987
 1766TIP3    H2 5263   1.182   5.162   4.146  0.8055  0.1495 -0.0591
 1767TIP3   OH2 5264   4.558   2.407   5.584  0.2649  0.9509 -0.1291
 1767TIP3    H1 5265   4.636   2.418   5.530 -0.5307  0.5124 -1.4098
 1767TIP3    H2 5266   4.520   2.495   5.588  0.5907  1.0823  0.1447
 1768TIP3   OH2 5267   5.333   1.199   4.625 -0.4641  0.0532 -0.9592
 1768TIP3    H1 5268   5.427   1.215   4.625 -0.4134 -0.2332 -1.1048
 1768TIP3    H2 5269   5.306   1.219   4.535 -0.8506  1.8741 -0.4637
 1769TIP3   OH2 5270   0.848   0.158   5.330 -0.5067  0.3778  0.2836
 1769TIP3    H1 5271   0.837   0.243   5.288 -0.4193  0.3606  0.2268
 1769TIP3    H2 5272   0.870   0.099   5.258 -0.7851  0.2645  0.2891
 1770TIP3   OH2 5273   3.698   3.517   3.652 -0.0393  0.3184 -0.7126
 1770TIP3    H1 5274   3.622   3.474   3.613  1.0149 -0.9982 -1.3678
 1770TIP3    H2 5275   3.714   3.469   3.733 -0.0767  0.8003 -0.4119
 1771TIP3   OH2 5276   5.171   0.254   3.170 -0.1850  0.3841 -0.4595
 1771TIP3    H1 5277   5.161   0.280   3.078 -1.8029  0.3051 -0.3426
 1771TIP3    H2 5278   5.081   0.246   3.202  0.3521  0.4128  1.1427
 1772TIP3   OH2 5279   0.331   0.636   0.930 -0.8460  0.3992  0.5113
 1772TIP3    H1 5280   0.397   0.705   0.929  0.3996 -0.7032 -1.8262
 1772TIP3    H2 5281   0.253   0.678   0.892  0.5734  0.1023 -3.1859
 1773TIP3   OH2 5282   0.911   3.578   4.805 -0.0789  0.1084  0.0607
 1773TIP3    H1 5283   0.973   3.530   4.748 -0.4143 -0.1597 -0.0838
 1773TIP3    H2 5284   0.907   3.665   4.766 -0.3604 -0.0938 -0.3777
 1774TIP3   OH2 5285   3.636   4.585   0.525  0.2953  0.0621  0.6643
 1774TIP3    H1 5286   3.606   4.673   0.503  0.7509 -0.1059 -0.7491
 1774TIP3    H2 5287   3.576   4.527   0.479  0.4524 -0.3540  0.9810
 1775TIP3   OH2 5288   6.743   2.946   0.290 -0.1523  0.1503  0.6355
 1775TIP3    H1 5289   6.691   3.018   0.327  1.3415  1.8143 -0.3463
 1775TIP3    H2 5290   6.701   2.927   0.206  0.3997  1.0449  0.1405
 1776TIP3   OH2 5291   2.525   5.199   2.028 -0.7114  0.2014 -0.7887
 1776TIP3    H1 5292   2.553   5.288   2.010  1.7737 -0.6896 -1.7367
 1776TIP3    H2 5293   2.563   5.147   1.957 -0.1435 -1.9055  0.9428
 1777TIP3   OH2 5294   5.888   2.510   3.902 -0.6282  0.0817 -0.2948
 1777TIP3    H1 5295   5.961   2.564   3.934  0.4333 -1.2447 -0.4054
 1777TIP3    H2 5296   5.855   2.558   3.826  0.0188  0.7807 -0.1554
 1778TIP3   OH2 5297   1.617   4.723   4.150 -0.1656 -0.0347  0.0188
 1778TIP3    H1 5298   1.706   4.754   4.164 -0.1247 -0.5335  0.9171
 1778TIP3    H2 5299   1.562   4.783   4.201 -0.1283 -1.0917  1.3529
 1779TIP3   OH2 5300   5.049   2.149   1.469  0.1719  0.1815  0.2096
 1779TIP3    H1 5301   5.067   2.201   1.548  0.5798 -0.1249  0.3241
 1779TIP3    H2 5302   5.022   2.064   1.502  0.0365  0.1498  0.0188
 1780TIP3   OH2 5303   5.163   5.068   3.934  0.7650  0.3215 -0.4468
 1780TIP3    H1 5304   5.190   5.011   4.006  1.1626  0.6415 -0.3369
 1780TIP3    H2 5305   5.124   5.009   3.870  2.7686 -0.3448 -1.1366
 1781TIP3   OH2 5306   2.955   0.039   2.317 -0.1557 -0.5251  0.3610
 1781TIP3    H1 5307   2.889   0.101   2.285 -0.9342 -2.7873 -2.9101
 1781TIP3    H2 5308   2.906  -0.019   2.376 -1.0210 -1.7142 -1.4392
 1782TIP3   OH2 5309   2.157   2.408   3.779  0.2846  0.1983 -0.6117
 1782TIP3    H1 5310   2.076   2.409   3.830  0.9145 -2.4326  0.5927
 1782TIP3    H2 5311   2.130   2.376   3.692 -0.3262  1.8224 -1.0443
 1783TIP3   OH2 5312   2.553   1.969   5.352 -0.1675  0.0757  0.5633
 1783TIP3    H1 5313   2.603   2.017   5.419  1.7149 -2.2304  0.9169
 1783TIP3    H2 5314   2.545   2.031   5.280  3.1670  0.6598  0.5471
 1784TIP3   OH2 5315   5.812   3.899   3.259 -0.0601  0.0213 -0.0049
 1784TIP3    H1 5316   5.794   3.985   3.297  0.7583 -0.0662  0.6025
 1784TIP3    H2 5317   5.734   3.880   3.206 -0.7284  0.6489  0.7191
 1785TIP3   OH2 5318   5.651   0.475   0.900 -0.0294  0.3419  0.4622
 1785TIP3    H1 5319   5.745   0.476   0.881 -0.0105 -0.0760  0.5250
 1785TIP3    H2 5320   5.627   0.567   0.905  0.3137  0.4517  0.1289
 1786TIP3   OH2 5321   4.248   4.354   4.144 -0.0259 -0.7698  0.4783
 1786TIP3    H1 5322   4.298   4.417   4.196 -1.6696 -0.0644  1.2537
 1786TIP3    H2 5323   4.315   4.302   4.099  1.3865  0.5385  0.9908
 1787TIP3   OH2 5324   6.270   5.143   1.419 -0.3637 -0.0429 -0.6141
 1787TIP3    H1 5325   6.204   5.089   1.376 -1.1402  0.2937  0.1452
 1787TIP3    H2 5326   6.225   5.182   1.494  0.6035  0.4524 -0.2753
 1788TIP3   OH2 5327   2.559   1.290   4.918  0.0993  0.7803 -0.2774
 1788TIP3    H1 5328   2.589   1.353   4.984 -1.6065 -0.5711  1.9078
 1788TIP3    H2 5329   2.634   1.231   4.906  0.5550  1.2620  0.1543
 1789TIP3   OH2 5330   0.927   4.269   2.841 -0.0233  0.1547  0.6680
 1789TIP3    H1 5331   0.995   4.294   2.778 -0.9487 -0.1912 -0.4963
 1789TIP3    H2 5332   0.846   4.306   2.806 -1.3296 -3.5603 -0.7210
 1790TIP3   OH2 5333   0.933   5.372   5.516 -0.3111 -0.5126  0.6413
 1790TIP3    H1 5334   0.935   5.393   5.423  0.4639 -2.6291  0.1472
 1790TIP3    H2 5335   0.926   5.458   5.559  0.1835  0.5655 -1.3029
 1791TIP3   OH2 5336   4.686   5.988   2.130 -0.0369 -0.0250 -0.3358
 1791TIP3    H1 5337   4.779   5.971   2.121 -0.0153 -0.9439  1.2275
 1791TIP3    H2 5338   4.652   5.987   2.040  0.7858 -3.8656 -0.7839
 1792TIP3   OH2 5339   5.903   0.411   0.773  0.2901  0.2157  0.1030
 1792TIP3    H1 5340   5.848   0.415   0.695  0.7132 -1.1955 -0.3029
 1792TIP3    H2 5341   5.975   0.472   0.755  0.4006 -0.1232 -0.6357
 1793TIP3   OH2 5342   4.790   0.013   0.031  0.0173 -0.4007  0.2364
 1793TIP3    H1 5343   4.808  -0.018   0.120  1.3761  0.5323  0.3194
 1793TIP3    H2 5344   4.698   0.038   0.033 -0.0006 -0.4906  1.3708
 1794TIP3   OH2 5345   2.960   0.252   1.712  0.0742 -0.1423  0.1186
 1794TIP3    H1 5346   2.943   0.234   1.804 -0.6414  0.3493  0.0914
 1794TIP3    H2 5347   2.885   0.303   1.683 -1.4930 -3.1764 -1.6451
 1795TIP3   OH2 5348   0.856   4.606   0.738  0.5105 -0.3636 -0.0135
 1795TIP3    H1 5349   0.825   4.618   0.828  0.0722  1.3282 -0.3522
 1795TIP3    H2 5350   0.914   4.530   0.743 -1.7238 -2.1237  1.1345
 1796TIP3   OH2 5351   1.211   2.391   3.115 -0.2886  0.3759  0.4433
 1796TIP3    H1 5352   1.257   2.346   3.186 -0.2795 -0.2223  0.0635
 1796TIP3    H2 5353   1.121   2.361   3.122 -0.3108  0.4013  0.2684
 1797TIP3   OH2 5354   0.654   5.567   2.192  0.6391 -0.2212  0.2022
 1797TIP3    H1 5355   0.712   5.528   2.257  0.5928 -0.2438  0.2305
 1797TIP3    H2 5356   0.566   5.553   2.227  0.6377  0.1716  0.3562
 1798TIP3   OH2 5357   5.478   6.268   2.965  0.3075 -0.0917  0.2140
 1798TIP3    H1 5358   5.390   6.306   2.967  0.6996  0.7956  2.1904
 1798TIP3    H2 5359   5.465   6.180   2.928 -1.0603  0.7912 -1.5501
 1799TIP3   OH2 5360   0.379   4.627   3.211  0.3384 -0.3849 -0.0833
 1799TIP3    H1 5361   0.388   4.708   3.161 -2.1248  0.2839  0.4518
 1799TIP3    H2 5362   0.303   4.583   3.173  0.1424 -1.2383  1.2300
 1800TIP3   OH2 5363   1.783   6.498   1.801 -0.3914 -0.1503 -0.1489
 1800TIP3    H1 5364   1.713   6.543   1.848  0.5005  1.6064 -0.4111
 1800TIP3    H2 5365   1.824   6.443   1.867 -0.5300  0.6285  0.6057
 1801TIP3   OH2 5366   5.116   3.377   4.811  0.2038 -0.3863 -0.4723
 1801TIP3    H1 5367   5.030   3.373   4.854  0.0641  0.5514 -0.6577
 1801TIP3    H2 5368   5.136   3.285   4.789 -0.5442 -0.6607 -0.0374
 1802TIP3   OH2 5369   4.547   6.213   4.870 -0.1013 -0.1797 -0.3380
 1802TIP3    H1 5370   4.563   6.206   4.776 -1.0448 -1.8140 -0.3979
 1802TIP3    H2 5371   4.501   6.133   4.893 -1.4059  0.9644  1.2179
 1803TIP3   OH2 5372   6.321   1.734   2.768 -0.4249  0.4324  0.3384
 1803TIP3    H1 5373   6.339   1.714   2.676  0.6121 -0.3889  0.6985
 1803TIP3    H2 5374   6.232   1.704   2.782  0.7429 -3.5311  0.6425
 1804TIP3   OH2 5375   0.254   1.470   2.943  0.7131 -0.3974 -0.3341
 1804TIP3    H1 5376   0.325   1.414   2.973  0.1228 -0.8798  0.1922
 1804TIP3    H2 5377   0.255   1.545   3.004  0.2168 -0.8364  0.2253
 1805TIP3   OH2 5378   5.152   3.493   3.883 -0.4204 -0.1474 -0.1271
 1805TIP3    H1 5379   5.179   3.519   3.794 -1.5492  2.2239  0.1473
 1805TIP3    H2 5380   5.097   3.415   3.869 -1.3824  0.7383 -1.6618
 1806TIP3   OH2 5381   2.782   3.488   5.032 -0.1988 -0.3624  0.0831
 1806TIP3    H1 5382   2.712   3.446   4.982  1.6315  0.3048 -3.3789
 1806TIP3    H2 5383   2.848   3.419   5.043 -1.5559 -1.2952  4.2248
 1807TIP3   OH2 5384   4.519   2.844   1.973  0.3847 -0.0531 -0.1764
 1807TIP3    H1 5385   4.476   2.920   1.932 -1.9364 -1.3982 -0.3803
 1807TIP3    H2 5386   4.583   2.816   1.908  0.6420  1.1827 -0.4812
 1808TIP3   OH2 5387   1.457   6.189   4.845 -0.0217 -0.4193  0.2051
 1808TIP3    H1 5388   1.401   6.266   4.845  2.0393  1.1518 -0.3739
 1808TIP3    H2 5389   1.428   6.138   4.769 -1.1997 -0.1027  0.4220
 1809TIP3   OH2 5390   4.979   6.750   4.024  0.4954 -0.3157  0.0443
 1809TIP3    H1 5391   4.917   6.777   4.092  0.0148 -1.5929  0.1499
 1809TIP3    H2 5392   5.065   6.758   4.065  0.4843  2.0250 -0.2894
 1810TIP3   OH2 5393   2.839   3.496   4.108  0.1705 -0.4820  0.5608
 1810TIP3    H1 5394   2.800   3.487   4.194  1.2199 -0.0519  1.0994
 1810TIP3    H2 5395   2.930   3.466   4.119  0.3561 -0.2938 -0.3574
 1811TIP3   OH2 5396   1.869   6.069   0.254  0.1715 -0.2871 -0.3654
 1811TIP3    H1 5397   1.962   6.094   0.249 -0.2187  2.0223  1.9910
 1811TIP3    H2 5398   1.831   6.101   0.172  1.1632  0.1941 -0.6531
 1812TIP3   OH2 5399   6.358   2.339   1.788 -0.2029 -0.8259 -0.0892
 1812TIP3    H1 5400   6.385   2.425   1.757  0.0784 -0.7665  0.3134
 1812TIP3    H2 5401   6.284   2.357   1.846 -0.5373 -0.9093 -0.4919
 1813TIP3   OH2 5402   2.570   5.373   2.432 -0.0713 -0.7611 -0.5949
 1813TIP3    H1 5403   2.651   5.424   2.427 -0.1943 -0.5474 -0.4317
 1813TIP3    H2 5404   2.586   5.297   2.376 -0.0132 -0.3634 -1.1224
 1814TIP3   OH2 5405   3.095   6.147   4.809 -0.4567  0.1655 -0.1069
 1814TIP3    H1 5406   3.053   6.189   4.735 -0.2793  0.8564  0.1781
 1814TIP3    H2 5407   3.112   6.218   4.871  1.2545 -0.0398 -0.2761
 1815TIP3   OH2 5408   0.078   6.652   2.965  0.3020  0.1191  0.5203
 1815TIP3    H1 5409   0.023   6.720   3.002  0.1391  0.8701 -1.0345
 1815TIP3    H2 5410   0.160   6.658   3.014  0.8011  2.3869 -0.4518
 1816TIP3   OH2 5411   2.413   4.892   5.353  0.1136 -0.0634 -0.0247
 1816TIP3    H1 5412   2.425   4.947   5.430  0.6372 -1.0277  0.6007
 1816TIP3    H2 5413   2.405   4.954   5.280 -0.3070  0.8583  0.7838
 1817TIP3   OH2 5414   0.332   6.084   2.815 -0.4836  0.6722 -0.4469
 1817TIP3    H1 5415   0.426   6.076   2.829 -0.1899  1.5549 -1.7577
 1817TIP3    H2 5416   0.315   6.036   2.735 -1.7990 -2.5784  1.5929
 1818TIP3   OH2 5417   2.299   1.183   1.935  0.2184 -0.2427 -0.1464
 1818TIP3    H1 5418   2.361   1.219   1.872  0.4961  2.2752  1.4034
 1818TIP3    H2 5419   2.231   1.250   1.943 -0.1059 -0.7283  1.7610
 1819TIP3   OH2 5420   4.525   5.867   2.561 -0.5187 -0.1891  0.3129
 1819TIP3    H1 5421   4.531   5.838   2.652 -0.1678 -0.1829  0.2919
 1819TIP3    H2 5422   4.605   5.834   2.520  0.4365  1.7016  0.5442
 1820TIP3   OH2 5423   0.118   0.056   3.038 -0.0994 -0.0680  0.2531
 1820TIP3    H1 5424   0.106   0.034   3.130  2.1546 -0.1564  0.5782
 1820TIP3    H2 5425   0.086   0.146   3.031 -2.7770 -0.9091  0.4602
 1821TIP3   OH2 5426   3.233   2.679   2.747  0.2820  0.2589  0.1336
 1821TIP3    H1 5427   3.270   2.724   2.671  1.6399  0.5997  0.9595
 1821TIP3    H2 5428   3.167   2.620   2.710  1.2444  0.0579 -1.3633
 1822TIP3   OH2 5429   1.295   3.666   1.162  0.0217  0.1785 -0.6779
 1822TIP3    H1 5430   1.390   3.673   1.161  0.0459  0.5417  1.1473
 1822TIP3    H2 5431   1.264   3.757   1.157 -0.2221  0.1011 -0.5917
 1823TIP3   OH2 5432   2.071   1.067   2.196 -0.5038 -0.2488 -0.1070
 1823TIP3    H1 5433   1.983   1.065   2.156 -0.6152 -0.0822  0.1334
 1823TIP3    H2 5434   2.089   1.160   2.209  0.4914 -0.1476 -1.8794
 1824TIP3   OH2 5435   0.817   0.739   4.306  0.4006 -0.3402 -0.0959
 1824TIP3    H1 5436   0.903   0.760   4.342 -0.0381  0.9475  0.2188
 1824TIP3    H2 5437   0.761   0.811   4.332 -0.6341 -0.8397 -0.8607
 1825TIP3   OH2 5438   5.956   5.340   2.096  0.0971 -0.3428 -0.1364
 1825TIP3    H1 5439   6.008   5.332   2.176 -0.3150 -0.5528  0.1131
 1825TIP3    H2 5440   5.866   5.352   2.127  0.2566  2.5305 -0.4887
 1826TIP3   OH2 5441   1.931   3.611   0.509  0.4476  0.3086  0.7599
 1826TIP3    H1 5442   1.907   3.704   0.506  0.9141  0.4720  1.4719
 1826TIP3    H2 5443   2.024   3.611   0.486  0.5796  0.0875  1.2740
 1827TIP3   OH2 5444   2.028   4.243   0.769 -0.1624 -0.0849 -0.1913
 1827TIP3    H1 5445   2.106   4.299   0.778 -0.6247  0.6980 -0.9418
 1827TIP3    H2 5446   1.969   4.274   0.837 -0.4599  0.4326 -0.6732
 1828TIP3   OH2 5447   5.170   0.730   1.525 -0.6617 -0.0678 -0.0566
 1828TIP3    H1 5448   5.251   0.778   1.509 -1.6816  1.6429 -0.3655
 1828TIP3    H2 5449   5.164   0.724   1.620 -0.3633  0.1626 -0.0213
 1829TIP3   OH2 5450   1.112   1.461   4.511 -0.4663 -0.0927 -0.8638
 1829TIP3    H1 5451   1.095   1.367   4.499 -0.6323 -0.2946  0.7277
 1829TIP3    H2 5452   1.037   1.493   4.560  1.2515  0.0574  1.9009
 1830TIP3   OH2 5453   5.288   1.110   0.265 -0.0437 -0.3875 -0.2743
 1830TIP3    H1 5454   5.299   1.023   0.228  1.0378 -0.0347 -0.8468
 1830TIP3    H2 5455   5.202   1.140   0.234  0.0562 -0.8232 -0.9878
 1831TIP3   OH2 5456   2.190   4.085   1.271  0.0474  0.3413  0.2600
 1831TIP3    H1 5457   2.148   4.032   1.339 -1.7590  0.1203 -0.9369
 1831TIP3    H2 5458   2.183   4.175   1.304  2.0230  0.0160  1.7404
 1832TIP3   OH2 5459   4.784   3.398   3.585 -0.5949  0.6373  0.3079
 1832TIP3    H1 5460   4.715   3.339   3.554 -1.9257  1.5922  1.3909
 1832TIP3    H2 5461   4.758   3.422   3.673  1.9601 -0.2346  1.3937
 1833TIP3   OH2 5462   0.103   0.569   3.089  0.4141  0.2945  0.0242
 1833TIP3    H1 5463   0.039   0.639   3.097  1.4049  1.5101 -1.8795
 1833TIP3    H2 5464   0.188   0.613   3.097  1.0532 -0.8747 -0.0535
 1834TIP3   OH2 5465   5.757   4.222   4.173 -0.2054  0.3216  0.0018
 1834TIP3    H1 5466   5.740   4.297   4.231  1.7171  0.8335 -0.0345
 1834TIP3    H2 5467   5.800   4.260   4.097  0.2337 -0.7539 -0.2994
 1835TIP3   OH2 5468   3.821   4.258   2.245 -0.2496  0.5553 -0.2852
 1835TIP3    H1 5469   3.906   4.294   2.218  0.7664 -1.3917  0.0592
 1835TIP3    H2 5470   3.806   4.294   2.332  0.4638  0.5894 -0.1704
 1836TIP3   OH2 5471   1.531   0.718   5.370 -0.2445 -0.0239 -0.1824
 1836TIP3    H1 5472   1.569   0.633   5.393  3.6862  1.0310 -1.8642
 1836TIP3    H2 5473   1.490   0.703   5.285  1.5524 -0.0642 -1.0848
 1837TIP3   OH2 5474   4.408   2.005   2.941  0.2244  0.7013 -1.0030
 1837TIP3    H1 5475   4.395   1.984   3.033 -2.8475  0.5341 -1.3687
 1837TIP3    H2 5476   4.462   2.084   2.941 -0.8087  1.4670  1.0269
 1838TIP3   OH2 5477   5.916   0.952   1.278  0.5104 -0.4956 -0.5488
 1838TIP3    H1 5478   5.940   0.909   1.196 -0.4181 -1.2917 -0.4274
 1838TIP3    H2 5479   5.905   1.044   1.255  1.5930 -0.4768 -1.0189
 1839TIP3   OH2 5480   3.722   2.924   0.883 -0.2470  0.1783 -0.3821
 1839TIP3    H1 5481   3.733   2.998   0.823 -1.9897  0.1837 -0.7198
 1839TIP3    H2 5482   3.795   2.866   0.862  0.6378  1.3598 -0.7337
 1840TIP3   OH2 5483   5.088   6.216   1.252 -0.1040 -0.1332  0.6417
 1840TIP3    H1 5484   5.175   6.186   1.277  0.4464  2.7050  2.6636
 1840TIP3    H2 5485   5.036   6.211   1.332 -1.4609 -0.5842 -0.2255
 1841TIP3   OH2 5486   1.567   1.123   1.603  0.3456 -0.2785  0.3504
 1841TIP3    H1 5487   1.477   1.104   1.631  0.1748 -2.0050 -1.2151
 1841TIP3    H2 5488   1.556   1.166   1.518  0.9711  1.5327  1.1412
 1842TIP3   OH2 5489   6.342   1.864   5.155 -0.0464 -0.0427 -0.0092
 1842TIP3    H1 5490   6.392   1.906   5.226 -1.2857 -0.5890  1.2388
 1842TIP3    H2 5491   6.380   1.899   5.075  1.5768  0.4234  0.9128
 1843TIP3   OH2 5492   6.835   0.293   3.028  0.4527 -0.5740  0.5734
 1843TIP3    H1 5493   6.885   0.289   2.946  0.1893 -2.4918  0.4517
 1843TIP3    H2 5494   6.745   0.276   3.001 -0.0561  1.3019  0.9893
 1844TIP3   OH2 5495   5.505   6.418   5.624  1.2356  0.1171  0.5410
 1844TIP3    H1 5496   5.419   6.456   5.638  0.4576 -1.9281  1.7800
 1844TIP3    H2 5497   5.489   6.325   5.611  3.2494 -0.3313  0.8330
 1845TIP3   OH2 5498   5.919   0.103   3.445  0.5066 -0.0221  0.0365
 1845TIP3    H1 5499   5.906   0.080   3.353 -1.7654  1.5565 -0.0906
 1845TIP3    H2 5500   5.946   0.195   3.444 -0.0932  0.1732  0.9747
 1846TIP3   OH2 5501   1.526   6.482   5.718 -0.3826 -0.1529 -0.9510
 1846TIP3    H1 5502   1.440   6.514   5.744 -0.5284 -0.1151 -1.4719
 1846TIP3    H2 5503   1.564   6.553   5.667  1.5017  1.3974  2.3072
 1847TIP3   OH2 5504   0.750   1.392   0.671 -0.3306 -0.0348 -0.2792
 1847TIP3    H1 5505   0.791   1.474   0.643 -0.4372  0.5791  1.2710
 1847TIP3    H2 5506   0.669   1.419   0.713 -0.2152 -0.9076  0.5346
 1848TIP3   OH2 5507   3.858   3.607   4.384 -0.1338  0.0561 -0.1891
 1848TIP3    H1 5508   3.863   3.663   4.461  1.2280 -1.2297  0.7131
 1848TIP3    H2 5509   3.821   3.525   4.416 -0.5749 -0.1338 -1.1449
 1849TIP3   OH2 5510   5.571   1.673   2.375 -0.4360  0.3462  0.4967
 1849TIP3    H1 5511   5.494   1.621   2.351  0.0613  0.6836 -2.1430
 1849TIP3    H2 5512   5.617   1.688   2.292  0.5185  3.2846  1.4211
 1850TIP3   OH2 5513   3.578   5.973   0.436 -0.5033  0.0608 -0.1935
 1850TIP3    H1 5514   3.567   5.890   0.484 -0.8367  0.4124  0.3440
 1850TIP3    H2 5515   3.657   6.011   0.472  0.1890 -0.4573 -1.1036
 1851TIP3   OH2 5516   4.304   5.873   2.409 -0.5776 -0.5222  0.2406
 1851TIP3    H1 5517   4.373   5.847   2.470  0.3930  0.8613 -0.2203
 1851TIP3    H2 5518   4.319   5.821   2.331  1.1722  1.0906 -0.5741
 1852TIP3   OH2 5519   2.133   1.276   1.639  0.4987 -0.6285  0.5047
 1852TIP3    H1 5520   2.039   1.259   1.641  0.1708  1.0261 -0.0072
 1852TIP3    H2 5521   2.151   1.321   1.722 -0.0806  3.2622 -1.2680
 1853TIP3   OH2 5522   2.944   0.653   4.996 -0.9759 -0.1509  0.0165
 1853TIP3    H1 5523   2.932   0.589   5.067  0.2575 -0.1211  0.2683
 1853TIP3    H2 5524   2.858   0.694   4.986 -0.9947  0.3789  2.0060
 1854TIP3   OH2 5525   6.829   2.052   2.401  0.4856  0.0694  0.4002
 1854TIP3    H1 5526   6.882   2.027   2.476  1.6021 -1.9202 -0.9626
 1854TIP3    H2 5527   6.794   1.969   2.368  0.6699  0.7812 -1.7194
 1855TIP3   OH2 5528   1.729   4.460   0.712  0.1302 -0.0663 -0.2154
 1855TIP3    H1 5529   1.746   4.547   0.750  1.2209  0.3859 -1.6398
 1855TIP3    H2 5530   1.773   4.463   0.627 -1.6060 -1.2951 -1.1951
 1856TIP3   OH2 5531   7.085   5.174   4.472 -0.6998  0.7198 -0.2822
 1856TIP3    H1 5532   7.044   5.175   4.386  0.0087  0.8637 -0.6251
 1856TIP3    H2 5533   7.122   5.261   4.482  2.1348 -0.2620 -1.2901
 1857TIP3   OH2 5534   3.890   0.447   2.066  0.1119  0.0192  0.5488
 1857TIP3    H1 5535   3.869   0.363   2.024 -0.8631  0.5249 -0.0172
 1857TIP3    H2 5536   3.874   0.512   1.999 -0.3923  0.7658  1.3699
 1858TIP3   OH2 5537   1.112   1.946   1.192  0.2451  0.6969 -0.7470
 1858TIP3    H1 5538   1.142   1.878   1.131 -1.4425  0.3508 -1.2526
 1858TIP3    H2 5539   1.061   2.006   1.137  0.0890  1.2954  0.0407
 1859TIP3   OH2 5540   0.734   2.410   0.228 -0.0052  0.8856  0.0417
 1859TIP3    H1 5541   0.777   2.459   0.159  0.3147  1.2472  0.4909
 1859TIP3    H2 5542   0.683   2.343   0.182  0.2988  1.0431 -0.5320
 1860TIP3   OH2 5543   3.402   5.181   2.822  0.0912 -0.2856  0.1814
 1860TIP3    H1 5544   3.334   5.230   2.868 -0.1367  0.1290 -0.5645
 1860TIP3    H2 5545   3.369   5.092   2.818 -1.1057  0.1744 -1.3848
 1861TIP3   OH2 5546   4.782   2.674   4.583  0.2435  0.0447  0.2592
 1861TIP3    H1 5547   4.844   2.614   4.542 -0.7541 -1.2505  0.5927
 1861TIP3    H2 5548   4.813   2.684   4.673  1.0098  0.9013 -0.0824
 1862TIP3   OH2 5549   5.567   0.950   4.641  0.2135  0.2505  0.0186
 1862TIP3    H1 5550   5.505   0.940   4.713 -1.4482 -1.7408 -1.5917
 1862TIP3    H2 5551   5.577   1.045   4.631 -1.2787  0.5876  1.3942
 1863TIP3   OH2 5552   3.928   3.080   2.380 -0.7073 -0.1017 -0.4459
 1863TIP3    H1 5553   3.838   3.067   2.410  0.1111 -0.4053  2.1320
 1863TIP3    H2 5554   3.978   3.012   2.425  0.5408 -1.5795 -3.7399
 1864TIP3   OH2 5555   6.106   2.422   4.520  0.3897 -0.0626 -0.5740
 1864TIP3    H1 5556   6.024   2.467   4.540  0.2060 -0.9405  0.8074
 1864TIP3    H2 5557   6.086   2.329   4.530  0.9442 -0.4544 -2.6502
 1865TIP3   OH2 5558   5.864   5.516   1.290 -0.4260  0.1638  0.2244
 1865TIP3    H1 5559   5.900   5.439   1.334 -2.1048 -0.7187  0.1239
 1865TIP3    H2 5560   5.859   5.583   1.358 -0.3186 -0.2746  0.6715
 1866TIP3   OH2 5561   6.979   5.990   3.996  0.0314  0.2075 -0.3295
 1866TIP3    H1 5562   6.949   6.034   4.075 -2.2657  0.2480 -1.1620
 1866TIP3    H2 5563   6.979   6.058   3.929  0.2824 -0.2000 -0.7515
 1867TIP3   OH2 5564   1.198   1.513   2.254 -0.5208 -1.1255 -0.1138
 1867TIP3    H1 5565   1.285   1.524   2.214 -0.6163  1.3183  0.2030
 1867TIP3    H2 5566   1.157   1.444   2.202  0.1775  0.3818 -2.8711
 1868TIP3   OH2 5567   3.323   3.695   5.011  0.3895 -0.5501 -0.3186
 1868TIP3    H1 5568   3.388   3.659   5.072  0.3206  1.1264  0.7928
 1868TIP3    H2 5569   3.373   3.751   4.952 -0.0678  1.1518  0.8587
 1869TIP3   OH2 5570   4.072   2.865   2.226 -0.4864 -0.2650  0.3525
 1869TIP3    H1 5571   3.976   2.866   2.221 -0.4179  0.3400 -2.8586
 1869TIP3    H2 5572   4.100   2.947   2.186  1.3648 -1.4303 -0.9445
 1870TIP3   OH2 5573   7.170   0.903   4.233 -0.6144 -0.6459 -0.0960
 1870TIP3    H1 5574   7.130   0.918   4.147  1.4230  1.2233 -0.8031
 1870TIP3    H2 5575   7.099   0.919   4.295 -1.1970  2.0182 -1.3103
 1871TIP3   OH2 5576   3.334   3.491   3.985 -0.3217 -0.2941  0.5189
 1871TIP3    H1 5577   3.376   3.540   4.056  1.5139 -0.7143 -0.2219
 1871TIP3    H2 5578   3.360   3.538   3.906  0.4444 -1.7291 -0.1139
 1872TIP3   OH2 5579   5.487   5.950   0.479 -0.0814  0.5589 -0.0011
 1872TIP3    H1 5580   5.402   5.941   0.521 -0.3477  2.5809  0.0250
 1872TIP3    H2 5581   5.473   5.925   0.388 -0.8971  1.4792 -0.1491
 1873TIP3   OH2 5582   0.378   3.962   4.635  0.2495 -0.1985 -0.0346
 1873TIP3    H1 5583   0.366   3.873   4.602 -0.9047  0.1857 -0.7001
 1873TIP3    H2 5584   0.461   3.958   4.684  0.2795 -1.5979 -0.1471
 1874TIP3   OH2 5585   1.861   4.826   0.135  0.5731 -0.5709 -0.0223
 1874TIP3    H1 5586   1.954   4.805   0.124  1.0123  1.3862 -0.5287
 1874TIP3    H2 5587   1.830   4.848   0.047 -0.5234 -1.6978  0.0602
 1875TIP3   OH2 5588   1.257   2.271   2.852 -0.1440 -0.2399 -0.1714
 1875TIP3    H1 5589   1.168   2.262   2.818 -0.2550  1.4033 -0.3892
 1875TIP3    H2 5590   1.245   2.297   2.944  0.0475  1.4964 -0.5984
 1876TIP3   OH2 5591   6.407   5.384   5.397 -0.1308 -0.3412 -1.0079
 1876TIP3    H1 5592   6.330   5.417   5.444 -0.0259 -0.0302 -1.0538
 1876TIP3    H2 5593   6.396   5.289   5.397 -0.6276 -0.2856 -1.2116
 1877TIP3   OH2 5594   6.705   3.536   5.053 -0.6399 -0.7257  0.3126
 1877TIP3    H1 5595   6.682   3.594   4.980 -2.1702 -1.3416  0.2619
 1877TIP3    H2 5596   6.740   3.457   5.011 -1.7327 -1.1728  0.1931
 1878TIP3   OH2 5597   5.058   0.099   2.584 -0.3396  0.3110 -0.0919
 1878TIP3    H1 5598   4.999   0.152   2.530 -2.4961 -1.9747 -0.1553
 1878TIP3    H2 5599   5.128   0.159   2.609  0.0727  1.9057 -4.2561
 1879TIP3   OH2 5600   3.145   3.599   3.200 -0.3791  0.3364 -0.0085
 1879TIP3    H1 5601   3.052   3.594   3.220 -0.8525 -0.5523 -2.1408
 1879TIP3    H2 5602   3.173   3.683   3.236 -2.1473  0.9240  0.1103
 1880TIP3   OH2 5603   2.660   1.439   5.134 -0.5827 -0.2125 -0.4094
 1880TIP3    H1 5604   2.665   1.364   5.194 -1.1284 -0.5620 -0.7857
 1880TIP3    H2 5605   2.692   1.513   5.185 -0.7587 -0.5645  0.2233
 1881TIP3   OH2 5606   3.982   5.073   3.983  0.7079  0.3036 -0.1145
 1881TIP3    H1 5607   3.963   5.023   3.904  0.8754  1.2768 -0.7870
 1881TIP3    H2 5608   4.074   5.098   3.974  0.3214  1.7154 -0.3740
 1882TIP3   OH2 5609   2.067   4.872   3.456  0.1065  0.5311 -0.3505
 1882TIP3    H1 5610   2.040   4.876   3.364  0.9886  1.5949 -0.6004
 1882TIP3    H2 5611   2.158   4.901   3.454  0.0165  0.9337  0.9062
 1883TIP3   OH2 5612   5.665   5.570   5.702  0.2230 -0.8830  0.1681
 1883TIP3    H1 5613   5.664   5.561   5.607 -3.9646  1.4576 -0.2514
 1883TIP3    H2 5614   5.660   5.480   5.734  1.7892 -1.7331 -1.7467
 1884TIP3   OH2 5615   1.716   3.423   4.970  0.0233  0.0553  0.4684
 1884TIP3    H1 5616   1.621   3.425   4.959 -0.1379 -3.0229  0.4130
 1884TIP3    H2 5617   1.733   3.474   5.049 -1.5508  1.3436  0.0109
 1885TIP3   OH2 5618   3.136   1.920   3.118 -0.4014  0.4915 -0.2130
 1885TIP3    H1 5619   3.132   1.928   3.213  1.1014  2.4036 -0.2464
 1885TIP3    H2 5620   3.212   1.863   3.102 -1.8437 -1.5182 -0.2929
 1886TIP3   OH2 5621   4.384   1.305   2.103 -0.3393 -0.3379 -0.1978
 1886TIP3    H1 5622   4.371   1.281   2.011  2.3851  0.3394 -0.8609
 1886TIP3    H2 5623   4.404   1.222   2.146 -0.0626 -0.4633 -0.5566
 1887TIP3   OH2 5624   2.542   3.707   5.659  0.2142 -0.4336 -0.1901
 1887TIP3    H1 5625   2.523   3.614   5.654  0.3389 -0.3889 -1.7570
 1887TIP3    H2 5626   2.598   3.725   5.584  0.8780  0.7518  0.5472
 1888TIP3   OH2 5627   4.724   5.682   4.577 -0.4410  0.2982 -0.5664
 1888TIP3    H1 5628   4.787   5.652   4.643 -0.0802 -0.4598 -1.2474
 1888TIP3    H2 5629   4.699   5.770   4.607 -0.3378 -0.0540  0.6163
 1889TIP3   OH2 5630   3.778   2.707   0.577 -0.2712 -0.4253 -0.2673
 1889TIP3    H1 5631   3.853   2.727   0.633  0.2690 -0.7184 -0.8827
 1889TIP3    H2 5632   3.775   2.612   0.573 -0.6837 -0.4179 -0.2415
 1890TIP3   OH2 5633   6.578   6.046   1.099  0.1046 -0.0306  0.0358
 1890TIP3    H1 5634   6.547   5.969   1.053  0.7192  0.4699 -1.2688
 1890TIP3    H2 5635   6.574   6.022   1.192 -1.8502 -0.8040 -0.2015
 1891TIP3   OH2 5636   3.489   1.654   0.994  0.9059  0.3756 -0.4183
 1891TIP3    H1 5637   3.520   1.721   1.056 -0.4716 -1.0462  1.9462
 1891TIP3    H2 5638   3.403   1.629   1.027 -0.0529 -0.2264 -3.1771
 1892TIP3   OH2 5639   5.617   5.761   4.415 -0.3715 -0.1992 -0.5309
 1892TIP3    H1 5640   5.628   5.667   4.398 -0.0351 -0.5373  1.2952
 1892TIP3    H2 5641   5.705   5.792   4.437 -0.7181  0.1793  0.3949
 1893TIP3   OH2 5642   4.868   6.182   1.778 -0.0586  0.0694  0.0921
 1893TIP3    H1 5643   4.777   6.205   1.760 -0.0068  0.6948  0.5693
 1893TIP3    H2 5644   4.864   6.095   1.816 -0.2942 -0.6555 -1.5174
 1894TIP3   OH2 5645   6.240   2.640   0.441  0.1076 -0.0567  0.3780
 1894TIP3    H1 5646   6.286   2.717   0.474 -0.9628  0.1363  1.5082
 1894TIP3    H2 5647   6.168   2.627   0.503 -0.9750 -0.7201 -0.9751
 1895TIP3   OH2 5648   5.376   1.423   4.946  0.4685 -0.2940  0.2279
 1895TIP3    H1 5649   5.349   1.467   4.865  3.2859 -0.3477 -0.8511
 1895TIP3    H2 5650   5.345   1.481   5.016  0.1569  1.0644 -0.9756
 1896TIP3   OH2 5651   0.437   1.106   0.160  0.1967 -0.3772 -0.2262
 1896TIP3    H1 5652   0.435   1.202   0.168  2.0930 -0.0178 -2.7227
 1896TIP3    H2 5653   0.382   1.088   0.083 -0.7717 -1.4172  0.6833
 1897TIP3   OH2 5654   3.543   6.070   3.436  0.0496 -0.0048  0.7750
 1897TIP3    H1 5655   3.501   6.021   3.507 -3.0599  1.9990  0.5107
 1897TIP3    H2 5656   3.519   6.161   3.453 -0.5928  0.5838 -2.6636
 1898TIP3   OH2 5657   4.998   1.610   0.859 -0.2635 -0.0101 -0.1904
 1898TIP3    H1 5658   5.002   1.584   0.767  0.4957 -1.0377  0.1050
 1898TIP3    H2 5659   4.918   1.568   0.892 -1.0092  1.0800 -0.5735
 1899TIP3   OH2 5660   1.301   2.051   3.646 -0.0087 -0.3155  0.5419
 1899TIP3    H1 5661   1.249   2.128   3.624  0.2582  0.1784  1.5341
 1899TIP3    H2 5662   1.355   2.034   3.569 -0.6964 -0.0399 -0.0026
 1900TIP3   OH2 5663   0.419   2.583   1.827  0.3395  0.4138  0.3813
 1900TIP3    H1 5664   0.372   2.544   1.901  0.0643  0.6726  0.3468
 1900TIP3    H2 5665   0.508   2.549   1.835 -0.3536 -1.9063 -0.8752
 1901TIP3   OH2 5666   2.042   5.792   4.839 -0.6078  1.1775 -0.0377
 1901TIP3    H1 5667   1.973   5.858   4.850 -1.5257 -0.1109  2.8379
 1901TIP3    H2 5668   2.046   5.747   4.923  2.2473 -0.3076 -0.8380
 1902TIP3   OH2 5669   6.227   6.322   0.630 -0.3099  0.0062  0.3356
 1902TIP3    H1 5670   6.298   6.268   0.596 -0.6551  0.5302 -1.3201
 1902TIP3    H2 5671   6.147   6.277   0.603 -0.6048  0.3744  0.5736
 1903TIP3   OH2 5672   2.415   1.304   3.052 -0.1310 -0.2982  0.5388
 1903TIP3    H1 5673   2.331   1.285   3.011 -0.3266  0.5734  0.5249
 1903TIP3    H2 5674   2.417   1.399   3.061  0.9677 -0.2816  0.3011
 1904TIP3   OH2 5675   0.859   3.604   2.228 -0.0025 -0.0329  0.2795
 1904TIP3    H1 5676   0.862   3.510   2.247  2.4426 -0.0494  0.1685
 1904TIP3    H2 5677   0.897   3.646   2.305  0.6120  0.6949 -0.3855
 1905TIP3   OH2 5678   4.369   2.979   2.395 -0.1848 -0.0846 -0.0967
 1905TIP3    H1 5679   4.364   2.937   2.481  0.1211 -0.9963 -0.5098
 1905TIP3    H2 5680   4.412   3.063   2.411 -0.3065 -0.1616  0.6649
 1906TIP3   OH2 5681   3.794   6.262   2.757 -0.0548 -0.5123 -0.0213
 1906TIP3    H1 5682   3.733   6.224   2.820 -0.2464 -0.1477  0.0166
 1906TIP3    H2 5683   3.743   6.270   2.676 -0.1429  0.0416  0.0832
 1907TIP3   OH2 5684   1.637   4.965   4.975 -0.2846 -0.5092  0.0222
 1907TIP3    H1 5685   1.662   4.965   4.882  2.8466  2.3878  0.6318
 1907TIP3    H2 5686   1.676   4.886   5.010  0.4757 -0.5000 -0.7523
 1908TIP3   OH2 5687   4.466   5.306   5.677  0.4325 -0.6269  0.0229
 1908TIP3    H1 5688   4.458   5.304   5.582 -1.6939  0.7987  0.1001
 1908TIP3    H2 5689   4.403   5.241   5.709  0.8841 -0.8531  0.4896
 1909TIP3   OH2 5690   0.186   2.583   1.624 -0.0349  0.1267  0.0820
 1909TIP3    H1 5691   0.248   2.548   1.689 -0.9840 -0.3845  0.7260
 1909TIP3    H2 5692   0.186   2.677   1.640 -1.6312 -0.1571  2.0943
 1910TIP3   OH2 5693   0.598   1.193   0.421  0.2777 -0.3132  0.2741
 1910TIP3    H1 5694   0.514   1.171   0.462 -0.1026 -0.2033 -0.4357
 1910TIP3    H2 5695   0.577   1.204   0.328  1.2566 -1.2770 -0.0791
 1911TIP3   OH2 5696   3.900   3.934   1.690 -0.6186  0.3066  0.4816
 1911TIP3    H1 5697   3.852   3.891   1.760 -1.8793  0.8594 -0.0124
 1911TIP3    H2 5698   3.986   3.954   1.729  0.3219 -3.1525  0.5209
 1912TIP3   OH2 5699   6.999   0.164   0.977  0.4383  0.0363  0.2606
 1912TIP3    H1 5700   7.011   0.256   1.001  1.7323  0.0873 -0.4631
 1912TIP3    H2 5701   6.941   0.166   0.902  1.0679  0.3398 -0.2306
 1913TIP3   OH2 5702   5.113   0.058   0.255  0.0385 -0.2525 -0.4001
 1913TIP3    H1 5703   5.097  -0.024   0.301  0.3589 -0.0810  0.0221
 1913TIP3    H2 5704   5.067   0.124   0.305 -2.0906 -0.4515 -1.9521
 1914TIP3   OH2 5705   2.024   5.961   3.730 -0.0296  0.6555  0.1870
 1914TIP3    H1 5706   1.928   5.957   3.730  0.0101 -0.8219  0.6276
 1914TIP3    H2 5707   2.044   6.048   3.766 -1.2023  0.6785  0.8547
 1915TIP3   OH2 5708   3.800   0.200   0.273 -0.3965 -0.6646  0.1040
 1915TIP3    H1 5709   3.738   0.130   0.293 -1.8036  0.5108  0.0456
 1915TIP3    H2 5710   3.813   0.245   0.357  0.0630 -0.6527  0.0286
 1916TIP3   OH2 5711   5.318   5.302   0.236 -0.2534  0.1874 -0.3110
 1916TIP3    H1 5712   5.227   5.297   0.263 -0.7931  0.1405 -2.0361
 1916TIP3    H2 5713   5.342   5.394   0.247 -0.4995  0.1934  0.1654
 1917TIP3   OH2 5714   2.271   5.242   3.294  0.5185  0.1958 -0.3026
 1917TIP3    H1 5715   2.357   5.265   3.329  0.8764  0.7746 -1.5005
 1917TIP3    H2 5716   2.226   5.325   3.285 -0.4807 -0.1779  1.0546
 1918TIP3   OH2 5717   3.956   1.785   1.326  0.0531 -0.3357  0.0561
 1918TIP3    H1 5718   3.952   1.732   1.246  0.9874  0.2023 -0.3618
 1918TIP3    H2 5719   3.900   1.861   1.307 -1.2085 -1.0845  0.6196
 1919TIP3   OH2 5720   2.330   1.384   1.184 -0.3655  0.1930 -0.3220
 1919TIP3    H1 5721   2.264   1.344   1.241 -1.1036  0.4180 -0.9997
 1919TIP3    H2 5722   2.385   1.311   1.156 -0.0334  0.0701  0.6046
 1920TIP3   OH2 5723   3.654   0.492   4.061  0.0740  0.2841  0.0440
 1920TIP3    H1 5724   3.658   0.554   4.134  0.1596 -0.0105  0.2894
 1920TIP3    H2 5725   3.655   0.406   4.102 -1.7229  0.1185 -0.2016
 1921TIP3   OH2 5726   5.844   4.264   1.632  0.3272 -0.0151  0.6780
 1921TIP3    H1 5727   5.878   4.287   1.718  1.1177 -1.3285  0.7385
 1921TIP3    H2 5728   5.753   4.292   1.634 -0.0310 -1.1261  2.4040
 1922TIP3   OH2 5729   4.395   2.649   4.083  0.1843 -0.0426 -0.3030
 1922TIP3    H1 5730   4.406   2.615   3.994 -2.1340 -2.5389  0.2319
 1922TIP3    H2 5731   4.316   2.703   4.079 -0.7583 -1.3005  0.4394
 1923TIP3   OH2 5732   2.258   6.784   5.372 -0.1281  0.1382  0.7473
 1923TIP3    H1 5733   2.313   6.724   5.322 -0.0261 -0.3307  1.4147
 1923TIP3    H2 5734   2.278   6.870   5.335  1.1203 -0.0175  1.0272
 1924TIP3   OH2 5735   6.059   1.721   2.792 -0.1354  0.3840 -0.4236
 1924TIP3    H1 5736   6.011   1.766   2.722 -0.9981  1.7220  0.9380
 1924TIP3    H2 5737   6.038   1.772   2.871 -0.8633 -2.2343  1.1851
 1925TIP3   OH2 5738   4.309   0.529   0.523  0.7643 -0.2782  0.2005
 1925TIP3    H1 5739   4.396   0.536   0.484  1.1225  0.4504  1.0926
 1925TIP3    H2 5740   4.295   0.435   0.535  1.2616 -0.4220 -0.2997
 1926TIP3   OH2 5741   6.000   2.573   5.738  0.0862  0.0675  0.2057
 1926TIP3    H1 5742   6.095   2.569   5.751  0.2469  0.5308 -0.7030
 1926TIP3    H2 5743   5.985   2.523   5.657 -0.4662 -0.1489  0.4373
 1927TIP3   OH2 5744   1.638   5.564   5.062 -0.8036  0.2301 -0.0566
 1927TIP3    H1 5745   1.678   5.650   5.051  1.4052 -0.7189  0.1219
 1927TIP3    H2 5746   1.615   5.560   5.154  0.3490  0.1403  0.2426
 1928TIP3   OH2 5747   1.948   1.544   1.313  0.1564 -0.1640  0.0038
 1928TIP3    H1 5748   1.881   1.566   1.377 -0.0437  0.5317 -0.4242
 1928TIP3    H2 5749   1.962   1.626   1.264  1.6120 -0.1646  0.3580
 1929TIP3   OH2 5750   4.117   1.552   4.870 -0.3586  0.4345  0.5577
 1929TIP3    H1 5751   4.021   1.555   4.868 -0.3656  0.5383  0.9800
 1929TIP3    H2 5752   4.143   1.638   4.903 -0.0613  0.9807 -0.9884
 1930TIP3   OH2 5753   1.175   3.582   5.089 -0.2889 -0.7865  0.1204
 1930TIP3    H1 5754   1.211   3.652   5.035  1.7030 -1.3849  0.5956
 1930TIP3    H2 5755   1.245   3.561   5.151 -1.8070 -1.4331  1.6892
 1931TIP3   OH2 5756   4.880   4.361   0.437  0.0320 -0.1832  0.0170
 1931TIP3    H1 5757   4.884   4.292   0.371 -1.8027 -2.0569  1.7341
 1931TIP3    H2 5758   4.887   4.442   0.387  0.4133 -1.5303 -2.2716
 1932TIP3   OH2 5759   5.895   5.166   4.112  0.6094 -0.3224 -0.3037
 1932TIP3    H1 5760   5.958   5.188   4.043  1.0649 -0.0093  0.2001
 1932TIP3    H2 5761   5.891   5.245   4.166 -0.1878 -0.3577 -0.3052
 1933TIP3   OH2 5762   4.910   2.722   1.837  0.1023  0.6428 -0.4980
 1933TIP3    H1 5763   4.900   2.748   1.929 -0.7682 -1.1854 -0.0406
 1933TIP3    H2 5764   4.860   2.788   1.788  0.2571  1.4124  0.3568
 1934TIP3   OH2 5765   6.930   3.801   1.168 -0.6767  0.4951  0.0021
 1934TIP3    H1 5766   6.982   3.829   1.093 -0.7852  0.8726  0.0681
 1934TIP3    H2 5767   6.990   3.744   1.218  0.1151  1.9168  0.7381
 1935TIP3   OH2 5768   3.780   1.894   0.365  0.0503 -0.1755  0.3578
 1935TIP3    H1 5769   3.757   1.916   0.455 -1.2276 -0.7570  0.2004
 1935TIP3    H2 5770   3.851   1.830   0.374 -0.5031 -0.7273  0.9888
 1936TIP3   OH2 5771   6.553   3.220   0.100 -0.4040 -0.0065 -0.1049
 1936TIP3    H1 5772   6.628   3.255   0.053  0.4872 -1.3482  0.2702
 1936TIP3    H2 5773   6.524   3.145   0.048  1.7659 -2.7236  2.2226
 1937TIP3   OH2 5774   1.705   2.492   5.423 -0.0583  0.1853  0.2796
 1937TIP3    H1 5775   1.750   2.415   5.457  0.7414  0.6248  0.2385
 1937TIP3    H2 5776   1.654   2.459   5.348  0.9166 -0.1670 -0.2502
 1938TIP3   OH2 5777   2.749   2.525   2.263 -0.1596 -0.1828  0.1892
 1938TIP3    H1 5778   2.696   2.533   2.343  2.0628  0.5943  1.6901
 1938TIP3    H2 5779   2.806   2.602   2.265  0.7566 -0.7704 -1.5491
 1939TIP3   OH2 5780   2.810   6.366   0.274  0.1866 -0.8198  1.0290
 1939TIP3    H1 5781   2.875   6.430   0.245  0.3525 -1.3310  0.2534
 1939TIP3    H2 5782   2.830   6.352   0.367 -0.0099  0.4274  1.2745
 1940TIP3   OH2 5783   6.298   6.677   2.628 -0.0930  0.2333 -0.0897
 1940TIP3    H1 5784   6.312   6.605   2.567  0.2128  0.7154 -0.6013
 1940TIP3    H2 5785   6.329   6.754   2.581  0.9327  0.4993  0.9862
 1941TIP3   OH2 5786   5.628   5.779   4.056  0.4088 -0.7393 -0.5204
 1941TIP3    H1 5787   5.596   5.690   4.039  0.4733 -1.1650  1.3364
 1941TIP3    H2 5788   5.723   5.772   4.055  0.4217 -0.5393 -1.0317
 1942TIP3   OH2 5789   3.190   0.976   5.903 -0.8502 -0.3366  0.1658
 1942TIP3    H1 5790   3.209   1.044   5.838 -3.7918  2.6561  2.0701
 1942TIP3    H2 5791   3.095   0.966   5.899 -1.0627 -0.6451  3.3260
 1943TIP3   OH2 5792   2.042   3.490   2.957  0.4544  0.6283  0.1104
 1943TIP3    H1 5793   1.977   3.471   3.024  0.4290 -0.5256 -0.2220
 1943TIP3    H2 5794   2.098   3.557   2.996 -0.3025  0.8849  0.7935
 1944TIP3   OH2 5795   1.303   2.470   3.855  0.8623  0.3231  0.5639
 1944TIP3    H1 5796   1.314   2.562   3.879  2.0870  0.1419  0.7663
 1944TIP3    H2 5797   1.368   2.424   3.907  0.7151 -0.5771 -0.0311
 1945TIP3   OH2 5798   1.465   0.614   3.655  0.8173 -0.2380  0.0230
 1945TIP3    H1 5799   1.457   0.710   3.659  0.5442 -0.2781  0.5998
 1945TIP3    H2 5800   1.427   0.584   3.737 -1.9679 -1.0273 -1.4211
 1946TIP3   OH2 5801   2.182   1.554   4.525 -0.0011 -0.7495 -0.2749
 1946TIP3    H1 5802   2.230   1.569   4.444  0.5163 -2.2342 -0.2805
 1946TIP3    H2 5803   2.101   1.509   4.497 -1.0158  0.9413 -0.1831
 1947TIP3   OH2 5804   0.442   5.193   1.643 -0.1224 -0.1739 -0.0327
 1947TIP3    H1 5805   0.357   5.184   1.599 -0.4723  1.5803  0.2051
 1947TIP3    H2 5806   0.425   5.166   1.733 -0.5117  0.4432  0.0835
 1948TIP3   OH2 5807   3.531   1.119   5.336 -0.2638  0.1019 -0.0599
 1948TIP3    H1 5808   3.476   1.184   5.293  1.1603  1.0320 -0.5607
 1948TIP3    H2 5809   3.502   1.035   5.300 -0.9698  0.6158 -0.7225
 1949TIP3   OH2 5810   1.634   1.996   1.839 -0.0526 -0.3845 -0.1417
 1949TIP3    H1 5811   1.667   1.970   1.753  0.9736  0.3647  0.0032
 1949TIP3    H2 5812   1.576   1.924   1.866  2.1412 -2.2101 -0.0362
 1950TIP3   OH2 5813   6.469   3.164   1.487 -0.3171 -0.3818  0.7031
 1950TIP3    H1 5814   6.467   3.116   1.570 -2.0245 -1.6832 -0.0179
 1950TIP3    H2 5815   6.545   3.130   1.441 -0.5968 -1.2380  0.8622
 1951TIP3   OH2 5816   6.441   2.159   0.386 -0.4274  0.0933  0.5683
 1951TIP3    H1 5817   6.363   2.204   0.355 -0.5955 -0.9839 -0.6630
 1951TIP3    H2 5818   6.413   2.115   0.467 -0.5663  1.2342  1.1523
 1952TIP3   OH2 5819   6.216   6.169   2.357  0.3005  0.7232 -0.4162
 1952TIP3    H1 5820   6.171   6.088   2.381  1.4812 -0.3261 -1.6203
 1952TIP3    H2 5821   6.302   6.141   2.326  0.3987  2.3590 -1.7717
 1953TIP3   OH2 5822   2.131   5.592   4.658  0.3516  0.4804 -0.4359
 1953TIP3    H1 5823   2.066   5.601   4.589  0.9168 -1.4475 -1.2948
 1953TIP3    H2 5824   2.089   5.626   4.736 -2.1650 -1.7805 -0.6925
 1954TIP3   OH2 5825   3.178   0.387   0.855  0.1135 -0.2315  0.4645
 1954TIP3    H1 5826   3.143   0.331   0.786 -2.4975  0.2387  1.3089
 1954TIP3    H2 5827   3.268   0.406   0.827 -0.4966 -0.9188 -2.2553
 1955TIP3   OH2 5828   6.760   6.499   0.176 -0.9004 -0.6733 -0.1773
 1955TIP3    H1 5829   6.795   6.477   0.089 -1.1010  0.2043 -0.4937
 1955TIP3    H2 5830   6.701   6.427   0.197 -1.6881 -0.3782 -1.2608
 1956TIP3   OH2 5831   0.681   4.474   1.963  0.2160 -0.0644 -1.0858
 1956TIP3    H1 5832   0.610   4.523   2.005 -0.4727 -0.4469 -1.7744
 1956TIP3    H2 5833   0.656   4.382   1.973  1.7335 -0.3597  0.6295
 1957TIP3   OH2 5834   0.884   0.998   3.803 -0.1631 -0.0962 -0.1908
 1957TIP3    H1 5835   0.861   0.975   3.712 -0.6944  1.3589 -0.4414
 1957TIP3    H2 5836   0.964   0.948   3.820  0.2638  0.0324 -1.6600
 1958TIP3   OH2 5837   4.067   4.067   4.590  0.4694  0.2658  0.1050
 1958TIP3    H1 5838   4.064   4.033   4.500  2.4282  1.6212 -0.5190
 1958TIP3    H2 5839   4.041   4.159   4.582 -0.6986  0.0653  1.1736
 1959TIP3   OH2 5840   1.846   0.633   4.030  0.4102 -0.1216  0.0317
 1959TIP3    H1 5841   1.803   0.611   3.947 -0.5047 -2.5430  1.0532
 1959TIP3    H2 5842   1.907   0.561   4.045  3.6479  2.3157 -0.4532
 1960TIP3   OH2 5843   4.945   5.167   0.019 -0.0232 -0.0637  0.4801
 1960TIP3    H1 5844   4.999   5.139   0.092  3.1237  2.1583 -0.7866
 1960TIP3    H2 5845   4.901   5.247   0.050 -1.3734 -0.9551  0.9577
 1961TIP3   OH2 5846   4.781   5.080   0.886 -0.0478 -0.8574 -0.3249
 1961TIP3    H1 5847   4.840   5.043   0.820 -1.6134 -0.5525 -1.9490
 1961TIP3    H2 5848   4.700   5.031   0.877 -1.1711  0.9253 -0.4685
 1962TIP3   OH2 5849   1.749   3.893   4.794 -0.8300 -0.1668 -0.2762
 1962TIP3    H1 5850   1.807   3.839   4.848 -1.2572  0.6688  1.0835
 1962TIP3    H2 5851   1.802   3.919   4.719  0.0793 -0.6402  0.1924
 1963TIP3   OH2 5852   6.923   5.992   4.365  0.2341 -0.0078  0.3389
 1963TIP3    H1 5853   7.007   5.964   4.328  0.0460  0.0613 -0.1540
 1963TIP3    H2 5854   6.910   6.080   4.330 -0.2876 -0.2164 -0.0144
 1964TIP3   OH2 5855   1.144   2.082   4.042 -0.4294 -0.3269 -0.1796
 1964TIP3    H1 5856   1.106   2.003   4.005 -4.1237  0.8452  0.7028
 1964TIP3    H2 5857   1.228   2.092   3.997  0.1381 -4.5652 -0.4106
 1965TIP3   OH2 5858   5.218   6.118   3.598  0.6509 -0.1468  0.3196
 1965TIP3    H1 5859   5.125   6.103   3.581  0.3726  0.6782  1.0282
 1965TIP3    H2 5860   5.243   6.189   3.539  0.7058 -0.0540  0.4517
 1966TIP3   OH2 5861   4.274   4.575   2.406 -0.1800  0.8048 -0.1033
 1966TIP3    H1 5862   4.362   4.558   2.373 -0.0872 -0.4762  0.7370
 1966TIP3    H2 5863   4.286   4.644   2.472  0.3792 -0.0444  0.7217
 1967TIP3   OH2 5864   1.811   3.457   4.455 -0.8269  0.2712  0.2936
 1967TIP3    H1 5865   1.739   3.455   4.391 -1.4326  0.6419  0.9425
 1967TIP3    H2 5866   1.852   3.371   4.448 -0.3474  0.5857 -1.1754
 1968TIP3   OH2 5867   2.546   4.588   1.131 -0.3824 -0.2958 -0.5332
 1968TIP3    H1 5868   2.623   4.545   1.095 -1.2272 -0.7255 -1.9288
 1968TIP3    H2 5869   2.569   4.681   1.132  0.5861 -0.5298  0.2506
 1969TIP3   OH2 5870   3.118   3.120   5.586  0.5620  0.4498 -0.2415
 1969TIP3    H1 5871   3.200   3.127   5.635  0.6996  3.0997 -0.7075
 1969TIP3    H2 5872   3.063   3.062   5.639  1.2283  2.0275  2.3591
 1970TIP3   OH2 5873   4.671   0.685   3.439  0.1257  0.0928 -0.3935
 1970TIP3    H1 5874   4.739   0.727   3.386 -0.8684 -0.9578 -2.6384
 1970TIP3    H2 5875   4.716   0.659   3.520  2.1733  0.2347 -1.4345
 1971TIP3   OH2 5876   0.433   3.764   3.633 -1.0081 -0.1273  0.4863
 1971TIP3    H1 5877   0.453   3.732   3.721  0.1876  0.3272  0.4078
 1971TIP3    H2 5878   0.398   3.688   3.586  2.4762 -1.6493  0.0530
 1972TIP3   OH2 5879   6.592   4.065   5.288 -0.0403  0.1267  0.4470
 1972TIP3    H1 5880   6.615   4.150   5.250  0.6678 -0.8384 -1.4268
 1972TIP3    H2 5881   6.661   4.006   5.258 -2.4263 -1.9043 -1.4983
 1973TIP3   OH2 5882   4.283   0.929   4.861  0.2278  0.6425 -0.6348
 1973TIP3    H1 5883   4.228   0.964   4.930  2.0009  0.7673  0.7933
 1973TIP3    H2 5884   4.370   0.921   4.901  0.8006 -1.5701 -2.1281
 1974TIP3   OH2 5885   6.421   2.033   0.656 -0.1435 -0.0309 -0.1997
 1974TIP3    H1 5886   6.346   1.973   0.659 -1.6325  1.7067 -0.9253
 1974TIP3    H2 5887   6.426   2.070   0.744  1.7075 -2.1798  0.7065
 1975TIP3   OH2 5888   5.487   1.437   2.978 -0.3997  0.0181  0.2438
 1975TIP3    H1 5889   5.430   1.507   3.010 -0.4072 -0.5870  1.6638
 1975TIP3    H2 5890   5.429   1.361   2.970 -0.2217 -0.0447 -0.4250
 1976TIP3   OH2 5891   5.529   3.705   1.594 -0.3100 -0.5412  0.3224
 1976TIP3    H1 5892   5.456   3.645   1.581 -0.5765 -0.2144  0.3092
 1976TIP3    H2 5893   5.525   3.764   1.519 -0.4979 -0.0417  0.7217
 1977TIP3   OH2 5894   4.367   0.743   0.845  0.1530 -0.3554  0.5016
 1977TIP3    H1 5895   4.426   0.668   0.849 -0.3589 -0.7695  0.4362
 1977TIP3    H2 5896   4.281   0.706   0.864  0.1196  0.4996  2.1797
 1978TIP3   OH2 5897   0.224   6.782   2.566  0.7243  0.5920  0.0314
 1978TIP3    H1 5898   0.129   6.767   2.562  0.5586  1.7423 -0.9651
 1978TIP3    H2 5899   0.240   6.808   2.657 -0.0662  1.2242  0.0062
 1979TIP3   OH2 5900   0.652   3.794   3.000 -0.0334 -0.7009  0.0174
 1979TIP3    H1 5901   0.647   3.880   3.040  0.5437 -1.3259  1.4951
 1979TIP3    H2 5902   0.605   3.803   2.917  0.6825  1.2130 -0.2068
 1980TIP3   OH2 5903   0.096   5.418   0.881 -0.0182  0.0760  0.0004
 1980TIP3    H1 5904   0.087   5.376   0.796 -0.3593 -0.1412  0.1415
 1980TIP3    H2 5905   0.016   5.470   0.892  0.8354  1.5879 -0.6095
 1981TIP3   OH2 5906   1.858   2.435   0.272  0.5763 -0.0220  0.2549
 1981TIP3    H1 5907   1.897   2.513   0.312  0.9777  0.1620 -0.4773
 1981TIP3    H2 5908   1.932   2.378   0.252  0.6869  0.8844 -2.3462
 1982TIP3   OH2 5909   1.398   2.802   2.789 -0.2349  0.3246  0.0900
 1982TIP3    H1 5910   1.339   2.866   2.826 -0.5338  0.6347 -0.8781
 1982TIP3    H2 5911   1.457   2.853   2.733  0.7754 -0.0107  0.8166
 1983TIP3   OH2 5912   1.536   1.428   0.771  0.0435 -0.2169 -0.1445
 1983TIP3    H1 5913   1.483   1.475   0.707 -0.1599 -0.1272  0.0866
 1983TIP3    H2 5914   1.583   1.496   0.818  0.7141 -0.3244 -0.6515
 1984TIP3   OH2 5915   3.213   5.322   3.008  0.0945 -0.5462  0.0281
 1984TIP3    H1 5916   3.230   5.414   3.030 -0.0656 -1.2773  4.1390
 1984TIP3    H2 5917   3.183   5.283   3.091 -4.8589 -3.2607 -2.5430
 1985TIP3   OH2 5918   1.162   2.486   4.880 -0.0549 -0.1074  0.0932
 1985TIP3    H1 5919   1.108   2.520   4.809 -1.0546 -1.3562  0.2167
 1985TIP3    H2 5920   1.179   2.562   4.936 -0.5110  0.5869 -0.6880
 1986TIP3   OH2 5921   6.519   1.441   2.423  0.3945 -0.1640  0.2313
 1986TIP3    H1 5922   6.429   1.474   2.424  0.3933 -0.1121  2.0366
 1986TIP3    H2 5923   6.525   1.390   2.343 -1.8661 -1.8290  1.0108
 1987TIP3   OH2 5924   0.382   4.244   4.859 -0.6431 -0.7148  0.1188
 1987TIP3    H1 5925   0.469   4.222   4.826 -1.1762 -1.4029 -0.9404
 1987TIP3    H2 5926   0.338   4.284   4.784 -0.8826  0.6690  0.9769
 1988TIP3   OH2 5927   7.096   5.221   0.430  0.0382  0.2332 -0.4010
 1988TIP3    H1 5928   7.153   5.261   0.495  1.3522 -1.1249 -0.6731
 1988TIP3    H2 5929   7.024   5.283   0.420  0.0681  0.7227  1.9485
 1989TIP3   OH2 5930   4.253   0.882   1.157 -0.3014  0.3719  0.1555
 1989TIP3    H1 5931   4.166   0.854   1.185 -0.2703 -0.4730 -0.5590
 1989TIP3    H2 5932   4.291   0.805   1.114  0.7809  0.7370  0.4034
 1990TIP3   OH2 5933   2.300   0.372   4.795 -0.2051  0.0319 -0.1885
 1990TIP3    H1 5934   2.373   0.399   4.851 -0.0208  0.8363 -0.8036
 1990TIP3    H2 5935   2.279   0.450   4.744 -1.3863 -0.2497 -0.1498
 1991TIP3   OH2 5936   3.239   4.169   4.585  0.7800 -0.2166  0.1940
 1991TIP3    H1 5937   3.302   4.124   4.642  0.0163 -1.5780  0.0089
 1991TIP3    H2 5938   3.206   4.241   4.639  1.0672 -0.6640  0.9917
 1992TIP3   OH2 5939   1.365   2.551   0.204  0.3019  0.4255 -0.1722
 1992TIP3    H1 5940   1.385   2.636   0.243 -0.2099  0.4789 -0.0064
 1992TIP3    H2 5941   1.371   2.566   0.110 -2.3678  1.3824 -0.2925
 1993TIP3   OH2 5942   4.900   4.059   4.335  0.0757  0.3816 -0.2056
 1993TIP3    H1 5943   4.910   3.997   4.263 -0.8505 -0.6474  0.5142
 1993TIP3    H2 5944   4.806   4.076   4.339  0.1143  0.4370  0.7487
 1994TIP3   OH2 5945   5.370   0.148   0.280 -0.5052  0.0990  0.0077
 1994TIP3    H1 5946   5.277   0.140   0.259 -0.4272 -1.2681  0.0583
 1994TIP3    H2 5947   5.414   0.099   0.210  0.0712 -0.5276  0.7940
 1995TIP3   OH2 5948   1.249   1.746   0.313  0.5174 -0.3089 -0.6713
 1995TIP3    H1 5949   1.325   1.790   0.276  0.1967  0.2617 -0.6725
 1995TIP3    H2 5950   1.176   1.772   0.257  0.3374 -0.9415 -0.7408
 1996TIP3   OH2 5951   0.112   4.068   3.923 -0.1309  0.0969 -0.2038
 1996TIP3    H1 5952   0.022   4.055   3.891  0.0999 -0.0836 -0.7968
 1996TIP3    H2 5953   0.148   3.980   3.930 -0.3550  0.0854  1.1382
 1997TIP3   OH2 5954   5.694   3.571   4.229  0.3795  0.0905  0.5021
 1997TIP3    H1 5955   5.680   3.652   4.180  1.2898  0.4292  0.7845
 1997TIP3    H2 5956   5.693   3.502   4.162  1.2382  0.5055  0.0505
 1998TIP3   OH2 5957   6.505   2.333   5.392 -0.7076 -0.1591  0.2611
 1998TIP3    H1 5958   6.586   2.289   5.364  0.4188 -0.5217  3.6668
 1998TIP3    H2 5959   6.521   2.425   5.372  0.6881 -0.1923  1.0783
 1999TIP3   OH2 5960   4.211   6.136   2.121 -0.4657  0.1839  0.2178
 1999TIP3    H1 5961   4.290   6.182   2.150 -0.2629  0.0811 -0.1587
 1999TIP3    H2 5962   4.242   6.079   2.050 -0.8472  0.0124  0.1893
 2000TIP3   OH2 5963   4.248   1.531   2.303 -0.3476 -0.3625  0.2988
 2000TIP3    H1 5964   4.169   1.480   2.315  0.6757 -1.7843  1.2545
 2000TIP3    H2 5965   4.276   1.512   2.213  0.2536 -1.8786  0.7766
 2001TIP3   OH2 5966   1.189   1.085   0.845  0.5384  0.4796 -0.2385
 2001TIP3    H1 5967   1.267   1.085   0.790 -0.0309  0.0419 -1.0668
 2001TIP3    H2 5968   1.158   0.994   0.844  0.3244  0.5353  0.5293
 2002TIP3   OH2 5969   1.082   2.352   4.005 -0.1378  0.1562  0.0983
 2002TIP3    H1 5970   1.159   2.396   3.970 -0.6835  1.7036  0.7438
 2002TIP3    H2 5971   1.116   2.276   4.053  0.9175  0.4436 -0.1876
 2003TIP3   OH2 5972   6.349   3.294   4.131  0.6020  0.2743 -0.7596
 2003TIP3    H1 5973   6.298   3.375   4.131  0.6675  0.3181 -0.0512
 2003TIP3    H2 5974   6.440   3.322   4.128  0.8761  0.4346  3.4760
 2004TIP3   OH2 5975   1.657   3.075   0.571 -0.7435 -0.0748 -0.2602
 2004TIP3    H1 5976   1.690   3.155   0.612 -0.3649 -0.3704  0.0210
 2004TIP3    H2 5977   1.723   3.055   0.504 -1.0620  0.0865 -0.6270
 2005TIP3   OH2 5978   6.266   0.731   0.877 -0.8344  0.4728  0.2091
 2005TIP3    H1 5979   6.329   0.787   0.831 -0.5550  0.7738  0.9366
 2005TIP3    H2 5980   6.317   0.694   0.949 -1.6120  1.1322  1.1189
 2006TIP3   OH2 5981   6.706   2.158   1.784  0.1271 -0.1802  0.2884
 2006TIP3    H1 5982   6.757   2.168   1.865  2.2867 -0.7049 -0.9311
 2006TIP3    H2 5983   6.763   2.193   1.716  0.2963 -3.7794 -1.6174
 2007TIP3   OH2 5984   3.223   0.144   1.176 -0.0740 -0.4820 -0.0346
 2007TIP3    H1 5985   3.131   0.149   1.151 -0.1317  0.9630  0.3689
 2007TIP3    H2 5986   3.237   0.222   1.231  1.3168 -0.8225  0.1249
 2008TIP3   OH2 5987   6.425   2.068   1.829  0.0533 -0.0321  0.1138
 2008TIP3    H1 5988   6.509   2.113   1.834 -1.0016  1.8900  2.4573
 2008TIP3    H2 5989   6.379   2.113   1.758  0.5236 -0.2287 -0.3227
 2009TIP3   OH2 5990   5.680   4.993   3.756 -0.1290 -0.1220  0.2039
 2009TIP3    H1 5991   5.586   4.979   3.770 -0.5622  1.5988 -0.6954
 2009TIP3    H2 5992   5.722   4.929   3.813 -1.8154  0.5567  2.3654
 2010TIP3   OH2 5993   0.501   2.056   4.195  0.0221  0.3469  0.0698
 2010TIP3    H1 5994   0.413   2.059   4.158  0.4527 -0.2915 -1.0409
 2010TIP3    H2 5995   0.487   2.068   4.289 -1.2657  0.0145 -0.0585
 2011TIP3   OH2 5996   4.892   0.453   5.106  0.3631  0.1924  0.4779
 2011TIP3    H1 5997   4.875   0.363   5.077  1.8157  0.0743 -0.1276
 2011TIP3    H2 5998   4.903   0.502   5.025  2.5854  0.2551  0.7409
 2012TIP3   OH2 5999   2.355   0.287   0.242  0.1719 -0.5959  0.0115
 2012TIP3    H1 6000   2.301   0.329   0.308  0.3188  0.7223 -0.6829
 2012TIP3    H2 6001   2.293   0.255   0.177  0.1657  0.6305 -0.6216
 2013TIP3   OH2 6002   1.199   0.140   2.333 -0.1980 -0.1613 -0.3196
 2013TIP3    H1 6003   1.122   0.129   2.389  0.2342  1.3001  0.6305
 2013TIP3    H2 6004   1.215   0.053   2.297 -2.1582 -0.5471 -0.3780
 2014TIP3   OH2 6005   2.059   5.352   4.956  0.5081  0.8685  0.2674
 2014TIP3    H1 6006   1.970   5.387   4.954  0.6784  1.3441  0.8640
 2014TIP3    H2 6007   2.051   5.269   5.004  0.6578  1.7455  1.8690
 2015TIP3   OH2 6008   0.409   3.933   4.957 -0.5890 -0.1040  0.9625
 2015TIP3    H1 6009   0.469   3.874   4.910 -1.4716  0.8758 -1.5236
 2015TIP3    H2 6010   0.445   4.020   4.943 -1.4123  0.3005  1.2978
 2016TIP3   OH2 6011   5.518   4.529   2.059 -0.6287  0.1656  0.4408
 2016TIP3    H1 6012   5.496   4.608   2.108 -1.2654 -0.4683  1.1777
 2016TIP3    H2 6013   5.610   4.512   2.080 -0.4766  0.7241  0.2442
 2017TIP3   OH2 6014   1.857   4.198   4.104  0.4812  0.0291  0.1995
 2017TIP3    H1 6015   1.893   4.166   4.186  1.1152 -1.3268 -0.5600
 2017TIP3    H2 6016   1.772   4.235   4.127  0.9770  0.3629  1.5523
 2018TIP3   OH2 6017   1.602   5.327   3.858 -0.1515  0.4499  0.1522
 2018TIP3    H1 6018   1.550   5.262   3.906 -1.6882  1.0201 -0.6758
 2018TIP3    H2 6019   1.605   5.294   3.768 -1.0840  1.5574 -0.3108
 2019TIP3   OH2 6020   1.162   4.209   3.669  0.0172  0.6320  0.4100
 2019TIP3    H1 6021   1.180   4.126   3.624 -0.1886  0.5975  0.3887
 2019TIP3    H2 6022   1.174   4.275   3.601  0.3263  0.6319  0.4642
 2020TIP3   OH2 6023   4.908   2.126   2.872  0.3359 -0.4406 -0.3441
 2020TIP3    H1 6024   4.905   2.053   2.809 -1.7679 -0.4330 -0.3186
 2020TIP3    H2 6025   4.962   2.192   2.829  0.3156 -1.0914 -1.4119
 2021TIP3   OH2 6026   1.700   5.586   2.430  0.2375 -0.1870 -0.2467
 2021TIP3    H1 6027   1.612   5.569   2.464  0.8245 -1.4160  0.7550
 2021TIP3    H2 6028   1.756   5.588   2.508  1.3594 -1.2563 -0.9898
 2022TIP3   OH2 6029   0.365   1.146   3.221  0.1811 -0.7279  0.1686
 2022TIP3    H1 6030   0.457   1.167   3.208 -0.0855  0.6483  0.3694
 2022TIP3    H2 6031   0.334   1.210   3.284 -0.8464 -1.3826  0.3570
 2023TIP3   OH2 6032   3.218   6.386   4.925  0.2481 -0.5456 -0.1368
 2023TIP3    H1 6033   3.159   6.448   4.967 -0.2928 -0.4452 -1.0198
 2023TIP3    H2 6034   3.299   6.435   4.909  0.2141 -0.3919  0.1684
 2024TIP3   OH2 6035   1.694   2.606   5.091 -0.2698 -0.1668 -0.3174
 2024TIP3    H1 6036   1.629   2.551   5.134  0.9068 -0.7983  0.7344
 2024TIP3    H2 6037   1.655   2.693   5.089 -0.5714 -0.2219  1.6321
 2025TIP3   OH2 6038   5.764   0.884   2.038  0.2415  0.6593  0.7312
 2025TIP3    H1 6039   5.816   0.823   2.090 -1.0161 -0.9852  0.1274
 2025TIP3    H2 6040   5.736   0.951   2.101  0.5124 -0.1258  1.7176
 2026TIP3   OH2 6041   1.755   0.829   3.729 -0.4991 -0.0672 -0.6242
 2026TIP3    H1 6042   1.765   0.737   3.751 -0.8920 -0.2294 -1.1038
 2026TIP3    H2 6043   1.771   0.833   3.634 -0.7612  0.3110 -0.6565
 2027TIP3   OH2 6044   0.610   1.665   2.853 -0.1504 -0.1455 -0.1958
 2027TIP3    H1 6045   0.547   1.692   2.919  1.5366  3.4722  0.1589
 2027TIP3    H2 6046   0.688   1.640   2.902  0.2985  0.1807 -0.7247
 2028TIP3   OH2 6047   3.121   5.579   2.274 -0.1781  0.1399 -0.0751
 2028TIP3    H1 6048   3.140   5.564   2.367 -1.2371 -0.6106  0.0503
 2028TIP3    H2 6049   3.129   5.674   2.262 -4.0074  0.8934  1.8133
 2029TIP3   OH2 6050   1.779   1.031   5.002 -0.4475 -0.6315 -0.1056
 2029TIP3    H1 6051   1.695   1.063   5.034  0.1076 -0.6991  1.5036
 2029TIP3    H2 6052   1.756   0.974   4.928 -1.7166  0.2501 -0.4126
 2030TIP3   OH2 6053   2.591   6.259   1.475 -0.1026 -0.4383  0.8258
 2030TIP3    H1 6054   2.532   6.226   1.407 -0.4280 -1.1713  1.4492
 2030TIP3    H2 6055   2.656   6.311   1.427  0.1941 -1.6543 -0.1382
 2031TIP3   OH2 6056   0.770   6.402   4.938 -0.2712  0.0908 -0.1698
 2031TIP3    H1 6057   0.780   6.483   4.888 -1.9176  0.5512  0.1911
 2031TIP3    H2 6058   0.775   6.332   4.873  1.0580  0.4597 -0.4941
 2032TIP3   OH2 6059   3.931   3.176   2.042  0.2072 -0.1586 -0.0476
 2032TIP3    H1 6060   3.955   3.113   2.110 -1.1710 -0.4543  0.1866
 2032TIP3    H2 6061   3.953   3.132   1.960  0.5383 -0.3735  0.1537
 2033TIP3   OH2 6062   1.315   3.365   0.934 -0.5872 -0.9861  0.3694
 2033TIP3    H1 6063   1.321   3.418   0.855 -0.7934 -0.7061  0.5413
 2033TIP3    H2 6064   1.403   3.368   0.972 -0.9101  0.3079  1.0723
 2034TIP3   OH2 6065   2.742   5.420   1.223  0.9788 -0.0638  0.3136
 2034TIP3    H1 6066   2.787   5.503   1.207 -0.3312  1.0724  2.0537
 2034TIP3    H2 6067   2.717   5.424   1.316 -1.5046 -1.1627 -0.2091
 2035TIP3   OH2 6068   5.112   3.897   3.106  0.3778 -0.0680 -0.4031
 2035TIP3    H1 6069   5.076   3.849   3.180  0.2822  0.6035 -0.0019
 2035TIP3    H2 6070   5.154   3.974   3.145  0.3846  0.2612 -1.0359
 2036TIP3   OH2 6071   4.925   3.311   3.901 -0.9114 -0.3013  0.3960
 2036TIP3    H1 6072   4.878   3.313   3.984 -1.6911 -1.5109 -0.0006
 2036TIP3    H2 6073   4.864   3.274   3.838 -0.1464  0.0788 -0.6144
 2037TIP3   OH2 6074   4.972   4.169   5.744 -0.1250 -0.1725 -0.7570
 2037TIP3    H1 6075   4.903   4.139   5.804 -1.4251  0.5129 -1.8586
 2037TIP3    H2 6076   5.030   4.094   5.735  0.1149 -0.2859  1.3556
 2038TIP3   OH2 6077   0.140   3.070   4.565  0.1319 -0.0503 -0.2725
 2038TIP3    H1 6078   0.146   3.166   4.565 -1.0387  0.0371  0.2934
 2038TIP3    H2 6079   0.150   3.045   4.473  0.8884  0.5669 -0.3756
 2039TIP3   OH2 6080   0.944   2.208   5.845 -0.0403  0.0096  0.7778
 2039TIP3    H1 6081   0.859   2.218   5.802 -0.2027  0.9794  1.2922
 2039TIP3    H2 6082   0.992   2.288   5.822  1.4001 -1.2528 -0.9079
 2040TIP3   OH2 6083   0.348   5.308   2.791 -0.1177 -0.1612 -0.6477
 2040TIP3    H1 6084   0.368   5.330   2.699  1.0799  2.5068  0.1563
 2040TIP3    H2 6085   0.369   5.387   2.840 -1.2153 -1.3378  1.9229
 2041TIP3   OH2 6086   4.506   5.678   0.010  0.2925 -0.1395 -0.1175
 2041TIP3    H1 6087   4.425   5.727   0.028  0.0642 -0.4368 -0.3156
 2041TIP3    H2 6088   4.576   5.738   0.035  0.0591 -1.2485  3.9376
 2042TIP3   OH2 6089   3.665   2.079   4.881  0.2467  0.0157  0.5088
 2042TIP3    H1 6090   3.644   2.145   4.947 -1.3913 -0.3110  0.3583
 2042TIP3    H2 6091   3.723   2.124   4.820 -0.1378  1.0646  0.8909
 2043TIP3   OH2 6092   1.758   1.983   4.293  0.1656 -0.3675  0.1367
 2043TIP3    H1 6093   1.799   2.069   4.283 -0.3547 -0.2371 -1.0901
 2043TIP3    H2 6094   1.686   1.997   4.355 -0.8628  0.4555 -1.1836
 2044TIP3   OH2 6095   2.469   3.758   4.520  0.3411  0.5079 -0.3855
 2044TIP3    H1 6096   2.436   3.669   4.527  3.1142 -0.7580 -1.7456
 2044TIP3    H2 6097   2.475   3.775   4.426  0.8999  1.6863 -0.1609
 2045TIP3   OH2 6098   1.466   0.288   4.420  0.0329  0.2629  0.2424
 2045TIP3    H1 6099   1.378   0.251   4.423  0.1333 -0.0458 -0.4218
 2045TIP3    H2 6100   1.479   0.328   4.507 -0.5247 -0.2164  0.5484
 2046TIP3   OH2 6101   1.622   0.323   0.800 -0.3882 -0.6372 -0.1233
 2046TIP3    H1 6102   1.617   0.249   0.861 -1.5880  0.4992  1.2448
 2046TIP3    H2 6103   1.536   0.326   0.759 -1.5224  1.8336  2.1911
 2047TIP3   OH2 6104   1.848   2.884   1.968  0.1315  0.3549  0.3900
 2047TIP3    H1 6105   1.811   2.942   2.034 -0.0502 -0.0849  0.6755
 2047TIP3    H2 6106   1.777   2.823   1.947  0.6590 -0.4338  0.8684
 2048TIP3   OH2 6107   2.300   0.458   1.616 -0.0567  0.1742  0.3835
 2048TIP3    H1 6108   2.276   0.508   1.694 -1.2858 -1.3323  1.0172
 2048TIP3    H2 6109   2.345   0.381   1.649  2.6800  1.2025 -0.6285
 2049TIP3   OH2 6110   1.531   0.058   0.328  0.0180 -0.4629  0.0498
 2049TIP3    H1 6111   1.511  -0.034   0.310  0.8732 -0.8783  1.1466
 2049TIP3    H2 6112   1.616   0.057   0.370  1.5110  1.0955 -2.6151
 2050TIP3   OH2 6113   3.431   4.688   5.886  0.0366 -0.3737 -0.1239
 2050TIP3    H1 6114   3.369   4.674   5.814  0.1382 -0.3363 -0.2181
 2050TIP3    H2 6115   3.469   4.602   5.902  1.2740 -0.0711 -1.2539
 2051TIP3   OH2 6116   4.646   2.415   2.056  0.1230  0.3151 -0.4277
 2051TIP3    H1 6117   4.586   2.459   1.995  0.8845  0.3463 -1.1773
 2051TIP3    H2 6118   4.732   2.424   2.015  0.2002 -2.8840 -1.2453
 2052TIP3   OH2 6119   4.419   0.320   0.790 -1.1072  0.1539 -0.3614
 2052TIP3    H1 6120   4.397   0.316   0.697 -0.2932  0.9653 -0.6013
 2052TIP3    H2 6121   4.379   0.241   0.827 -1.1514 -0.3593 -1.4552
 2053TIP3   OH2 6122   5.824   4.107   5.483 -0.2199 -0.4941  0.3405
 2053TIP3    H1 6123   5.833   4.202   5.497  1.9399 -0.7901  1.3661
 2053TIP3    H2 6124   5.754   4.099   5.419 -0.1922  1.8247 -0.0716
 2054TIP3   OH2 6125   4.871   0.835   4.314  0.0838 -0.9932 -0.4708
 2054TIP3    H1 6126   4.949   0.852   4.367  0.2155 -2.2435 -0.2233
 2054TIP3    H2 6127   4.850   0.920   4.275  1.4030 -0.5611 -0.3183
 2055TIP3   OH2 6128   1.257   0.857   2.197 -0.0203  0.0974 -0.3611
 2055TIP3    H1 6129   1.177   0.862   2.145 -1.3842 -0.2905  1.6171
 2055TIP3    H2 6130   1.320   0.911   2.148 -1.1697 -0.3144 -2.4230
 2056TIP3   OH2 6131   4.446   4.150   5.129 -0.1398  0.1777 -0.0197
 2056TIP3    H1 6132   4.434   4.068   5.081  1.6088 -0.7775  1.0811
 2056TIP3    H2 6133   4.448   4.125   5.221 -2.0408  1.8041  0.5415
 2057TIP3   OH2 6134   5.660   1.799   5.201  0.5690  0.2914  0.1941
 2057TIP3    H1 6135   5.565   1.800   5.189  0.7850 -0.5876 -1.9353
 2057TIP3    H2 6136   5.692   1.867   5.142  1.2794  0.8078  1.1408
 2058TIP3   OH2 6137   3.483   0.866   2.015  0.1371  0.1131 -0.0750
 2058TIP3    H1 6138   3.505   0.812   2.092  1.6995  0.4281 -0.2520
 2058TIP3    H2 6139   3.462   0.802   1.947 -1.0746 -0.1739  0.5526
 2059TIP3   OH2 6140   4.066   3.253   3.981 -0.2565 -0.1419  0.0698
 2059TIP3    H1 6141   4.005   3.196   3.934 -0.9200  0.6719 -0.0942
 2059TIP3    H2 6142   4.138   3.196   4.007 -0.1671 -0.7477 -1.4036
 2060TIP3   OH2 6143   0.684   3.396   4.666 -0.0445 -0.3679 -0.3278
 2060TIP3    H1 6144   0.684   3.492   4.661 -0.2240 -0.3833 -0.6602
 2060TIP3    H2 6145   0.592   3.373   4.675  0.1405 -0.4139  1.9380
 2061TIP3   OH2 6146   6.324   4.661   5.641  0.0647  0.6278 -0.4305
 2061TIP3    H1 6147   6.401   4.624   5.684 -0.1841  0.4092 -0.1715
 2061TIP3    H2 6148   6.262   4.679   5.712  0.2791  1.8040 -0.5151
 2062TIP3   OH2 6149   0.137   2.376   1.419  0.0152  0.4674 -0.1544
 2062TIP3    H1 6150   0.168   2.450   1.471 -3.7908  0.0737  3.1065
 2062TIP3    H2 6151   0.103   2.314   1.482 -1.4611 -1.8935 -3.0158
 2063TIP3   OH2 6152   1.501   1.682   1.147 -0.3962  0.4770  0.2612
 2063TIP3    H1 6153   1.553   1.613   1.106 -0.4106  0.1970  0.7138
 2063TIP3    H2 6154   1.419   1.639   1.172 -0.2474  0.5592  0.9080
 2064TIP3   OH2 6155   5.233   2.668   0.714 -0.1062  0.0796  0.1499
 2064TIP3    H1 6156   5.184   2.591   0.742 -0.7108  0.6931  0.8221
 2064TIP3    H2 6157   5.318   2.633   0.686 -0.1617 -0.7791  0.9768
 2065TIP3   OH2 6158   0.480   1.133   5.760  0.5416  0.3532  0.0335
 2065TIP3    H1 6159   0.482   1.039   5.743 -0.2770  0.2244  0.5897
 2065TIP3    H2 6160   0.544   1.146   5.830  0.0741  0.0777  0.5208
 2066TIP3   OH2 6161   6.726   1.165   2.236 -0.3065 -0.3630  0.6919
 2066TIP3    H1 6162   6.812   1.178   2.275 -0.5078 -0.5829  1.2181
 2066TIP3    H2 6163   6.670   1.136   2.308 -0.7389 -0.5672  0.2867
 2067TIP3   OH2 6164   0.166   0.580   4.866  0.5896  0.4320 -0.0801
 2067TIP3    H1 6165   0.228   0.616   4.803 -0.1782  1.1934 -0.4316
 2067TIP3    H2 6166   0.108   0.654   4.886  0.3872  0.0085  0.9772
 2068TIP3   OH2 6167   2.476   6.720   4.713 -0.0029 -0.2740  0.2189
 2068TIP3    H1 6168   2.444   6.708   4.802 -0.4851  2.4929  0.4925
 2068TIP3    H2 6169   2.568   6.695   4.717  0.2151  0.6897  1.7295
 2069TIP3   OH2 6170   0.135   1.360   1.139  0.2236 -0.8233  0.1857
 2069TIP3    H1 6171   0.069   1.406   1.087  1.3781 -0.3746 -0.9321
 2069TIP3    H2 6172   0.130   1.269   1.110 -0.5470 -0.9888  0.8036
 2070TIP3   OH2 6173   1.200   5.243   1.579  0.3391  0.1381 -0.1479
 2070TIP3    H1 6174   1.232   5.309   1.641  1.2109 -1.4718  1.1993
 2070TIP3    H2 6175   1.269   5.237   1.513  1.2929 -0.9053  0.9017
 2071TIP3   OH2 6176   6.982   0.826   1.668 -0.5776 -0.4645 -0.2041
 2071TIP3    H1 6177   6.986   0.743   1.621  1.0465 -0.3836 -0.2612
 2071TIP3    H2 6178   7.073   0.850   1.683 -1.0271  0.6882  0.9282
 2072TIP3   OH2 6179   2.036   5.777   5.452  0.0170 -0.1220 -0.0971
 2072TIP3    H1 6180   2.036   5.693   5.405 -2.0782 -0.7732  0.9654
 2072TIP3    H2 6181   2.128   5.802   5.455  0.5161 -1.4909 -1.9777
 2073TIP3   OH2 6182   6.909   1.407   4.794 -0.3081  0.0544  0.0183
 2073TIP3    H1 6183   6.886   1.470   4.862  0.2953 -0.2494  0.5093
 2073TIP3    H2 6184   6.994   1.437   4.761  0.6662 -1.2587  1.2196
 2074TIP3   OH2 6185   1.177   3.360   4.693 -0.1518  0.7809  0.0524
 2074TIP3    H1 6186   1.181   3.279   4.644 -0.0704  0.3827  0.7022
 2074TIP3    H2 6187   1.167   3.333   4.784 -0.2855  1.4989  0.2619
 2075TIP3   OH2 6188   0.380   1.732   1.959 -0.6986  0.1979 -0.0653
 2075TIP3    H1 6189   0.350   1.822   1.945 -1.6649  0.0600  0.9786
 2075TIP3    H2 6190   0.473   1.741   1.981 -1.2059  1.1541  1.9173
 2076TIP3   OH2 6191   0.091   5.128   1.077 -1.0335 -0.2989  0.3537
 2076TIP3    H1 6192   0.046   5.141   1.161  0.2756  2.0713  0.7843
 2076TIP3    H2 6193   0.048   5.189   1.017 -0.4396 -0.2835 -0.0631
 2077TIP3   OH2 6194   0.234   1.188   2.535  0.1561  0.5345  0.5161
 2077TIP3    H1 6195   0.287   1.182   2.455  1.4167  1.0077  1.2744
 2077TIP3    H2 6196   0.228   1.098   2.566  2.0381  0.6254  1.3192
 2078TIP3   OH2 6197   6.609   3.377   3.448  0.4091  0.2624  0.1725
 2078TIP3    H1 6198   6.662   3.412   3.519  2.2848 -0.7721 -0.6570
 2078TIP3    H2 6199   6.619   3.440   3.377  0.0857  0.3339  0.1894
 2079TIP3   OH2 6200   4.899   2.452   1.964 -0.2846 -0.8146  0.4384
 2079TIP3    H1 6201   4.910   2.529   1.909 -2.3322 -2.5378 -2.6553
 2079TIP3    H2 6202   4.984   2.440   2.006  2.3027 -0.6443 -4.1557
 2080TIP3   OH2 6203   2.320   2.036   3.310  0.1322  0.0174 -0.1846
 2080TIP3    H1 6204   2.227   2.053   3.328 -0.1177  1.5012 -2.4196
 2080TIP3    H2 6205   2.356   2.008   3.394 -2.0849  0.4740  1.0124
 2081TIP3   OH2 6206   0.704   2.107   0.617  0.2088  0.2932  0.3253
 2081TIP3    H1 6207   0.723   2.094   0.710 -0.3121 -0.1256  0.3753
 2081TIP3    H2 6208   0.609   2.124   0.614  0.1141 -0.2871 -0.1853
 2082TIP3   OH2 6209   3.468   4.461   5.150 -0.5708 -0.1727  0.5772
 2082TIP3    H1 6210   3.549   4.418   5.122  0.5815  0.4383  2.7121
 2082TIP3    H2 6211   3.417   4.391   5.192 -0.1994 -0.1587  1.0666
 2083TIP3   OH2 6212   0.213   3.780   2.495 -0.0368  0.3761  0.0896
 2083TIP3    H1 6213   0.188   3.692   2.522 -0.5986  0.6520  0.4890
 2083TIP3    H2 6214   0.164   3.838   2.554  0.4726  0.9519 -0.0406
 2084TIP3   OH2 6215   5.157   2.090   2.640 -0.3014  0.2368  0.2293
 2084TIP3    H1 6216   5.228   2.031   2.616 -0.7459 -1.8265  3.3661
 2084TIP3    H2 6217   5.078   2.043   2.617 -0.6676  0.7921  0.3399
 2085TIP3   OH2 6218   4.630   5.778   0.729  0.1052  0.2069  0.9318
 2085TIP3    H1 6219   4.638   5.813   0.818  1.8647 -0.4932  1.0815
 2085TIP3    H2 6220   4.683   5.836   0.675  1.2456 -0.9060  0.8141
 2086TIP3   OH2 6221   5.991   1.383   0.160  0.2174  0.3148  0.1787
 2086TIP3    H1 6222   6.084   1.375   0.140  0.2875  2.1942 -0.4879
 2086TIP3    H2 6223   5.952   1.417   0.080 -1.1486 -0.8768  0.3054
 2087TIP3   OH2 6224   5.633   3.603   3.830  0.0642  0.8053  0.0371
 2087TIP3    H1 6225   5.575   3.679   3.828 -0.2264  0.5918  0.3304
 2087TIP3    H2 6226   5.604   3.552   3.905  0.7623  0.8021  0.3181
 2088TIP3   OH2 6227   5.140   1.377   4.059 -0.0871 -0.1243  0.2355
 2088TIP3    H1 6228   5.091   1.323   3.998 -2.2612  1.9570 -0.0157
 2088TIP3    H2 6229   5.103   1.356   4.145 -1.1125  1.0076  0.1120
 2089TIP3   OH2 6230   6.544   0.555   2.445 -0.1286  0.3212  0.2097
 2089TIP3    H1 6231   6.615   0.503   2.410 -0.5024 -0.7274  0.9474
 2089TIP3    H2 6232   6.467   0.526   2.397 -0.2252  0.6856  0.1456
 2090TIP3   OH2 6233   4.164   6.267   4.461  0.4607 -0.5363 -0.4578
 2090TIP3    H1 6234   4.155   6.191   4.403  0.6365 -1.7052  0.9811
 2090TIP3    H2 6235   4.100   6.251   4.531 -0.8171  1.5868 -1.0442
 2091TIP3   OH2 6236   1.191   0.294   5.462  0.6536 -0.1546  0.3141
 2091TIP3    H1 6237   1.272   0.307   5.512  0.6631 -0.3311  0.3456
 2091TIP3    H2 6238   1.220   0.254   5.380  0.7224  0.8301 -0.1589
 2092TIP3   OH2 6239   3.409   0.197   3.902  0.0176  0.1910  0.0419
 2092TIP3    H1 6240   3.384   0.241   3.820 -0.0244  0.1808  0.0491
 2092TIP3    H2 6241   3.346   0.230   3.966 -0.6049 -0.5960 -0.1564
 2093TIP3   OH2 6242   2.492   0.100   1.925  0.1424 -0.2425  0.0395
 2093TIP3    H1 6243   2.416   0.108   1.867 -1.2341  0.1987  1.8100
 2093TIP3    H2 6244   2.493   0.182   1.975 -0.4666 -1.6816  2.6020
 2094TIP3   OH2 6245   3.090   0.837   2.313 -0.0689 -0.1267  0.4905
 2094TIP3    H1 6246   3.042   0.869   2.390 -3.7580 -1.5518 -0.9614
 2094TIP3    H2 6247   3.056   0.889   2.240  0.5533 -1.2790 -0.6593
 2095TIP3   OH2 6248   3.033   5.173   5.414  0.2098  0.2543  0.0132
 2095TIP3    H1 6249   2.958   5.200   5.466  0.7616  0.1820  0.8696
 2095TIP3    H2 6250   3.045   5.242   5.349 -1.6764 -0.5803 -1.3220
 2096TIP3   OH2 6251   7.158   1.612   5.523 -0.7960 -0.3859  0.1508
 2096TIP3    H1 6252   7.202   1.566   5.451 -0.4603 -1.1872  0.8388
 2096TIP3    H2 6253   7.100   1.675   5.481  0.9424  0.6263 -0.7829
 2097TIP3   OH2 6254   1.258   5.056   1.302 -0.0870  0.3207  0.0654
 2097TIP3    H1 6255   1.343   5.019   1.277 -0.5121 -0.8617  0.3177
 2097TIP3    H2 6256   1.270   5.151   1.291  1.2029  0.1700 -0.0787
 2098TIP3   OH2 6257   3.450   1.695   4.644 -0.1403  0.6663 -0.3323
 2098TIP3    H1 6258   3.407   1.751   4.708  1.2727 -1.1244  2.4120
 2098TIP3    H2 6259   3.543   1.700   4.667  0.2308 -1.2551 -1.2099
 2099TIP3   OH2 6260   5.926   6.367   5.528  0.0225 -0.0863  0.4519
 2099TIP3    H1 6261   5.963   6.357   5.616 -0.2411 -0.5214  0.5157
 2099TIP3    H2 6262   5.940   6.459   5.507  0.6929 -0.1302  0.6779
 2100TIP3   OH2 6263   1.868   2.722   2.784  0.3375 -0.0641 -0.1534
 2100TIP3    H1 6264   1.903   2.698   2.870 -0.5780  2.8770  1.1870
 2100TIP3    H2 6265   1.935   2.696   2.722  1.2125 -1.9245  1.4777
 2101TIP3   OH2 6266   5.919   0.479   5.472  0.8140 -0.0376 -0.1510
 2101TIP3    H1 6267   5.873   0.516   5.548 -0.6511  1.6730 -1.7653
 2101TIP3    H2 6268   5.919   0.385   5.488 -1.6008  0.0444  0.8742
 2102TIP3   OH2 6269   0.949   3.805   3.906  0.0813 -0.2195  0.0994
 2102TIP3    H1 6270   0.859   3.831   3.890  0.2629  0.4223  0.0904
 2102TIP3    H2 6271   0.943   3.737   3.973 -0.4676 -0.8535 -0.5782
 2103TIP3   OH2 6272   2.248   0.115   3.692 -0.3877  0.6792  0.5760
 2103TIP3    H1 6273   2.207   0.117   3.779  0.1532  1.4421  0.8233
 2103TIP3    H2 6274   2.174   0.117   3.631 -0.7621  2.5251  1.0096
 2104TIP3   OH2 6275   1.188   0.957   3.200  0.2653 -0.8819  0.2212
 2104TIP3    H1 6276   1.207   0.979   3.291  4.2827 -1.1812 -0.3528
 2104TIP3    H2 6277   1.273   0.936   3.162 -0.8267  1.3281 -4.1971
 2105TIP3   OH2 6278   6.263   1.994   1.110 -0.6403  0.2611  0.2595
 2105TIP3    H1 6279   6.223   1.947   1.037  1.4007  1.0010 -1.4482
 2105TIP3    H2 6280   6.212   2.074   1.119 -0.8047  0.2495 -0.5044
 2106TIP3   OH2 6281   0.890   6.667   5.019  0.3036 -0.0508  0.2395
 2106TIP3    H1 6282   0.916   6.664   5.111 -0.1979 -0.4208  0.3709
 2106TIP3    H2 6283   0.963   6.627   4.973  0.4176 -0.1541  0.5059
 2107TIP3   OH2 6284   1.915   1.430   5.539  0.2704 -0.3566  0.7014
 2107TIP3    H1 6285   1.940   1.520   5.521  2.1742 -0.4547  2.5174
 2107TIP3    H2 6286   1.886   1.430   5.630  0.1003 -1.5369  0.6700
 2108TIP3   OH2 6287   7.027   2.234   0.528  0.2511  0.0410 -0.3055
 2108TIP3    H1 6288   6.992   2.294   0.594  1.2270  0.5807 -0.2587
 2108TIP3    H2 6289   7.012   2.280   0.445  0.9663  0.3456 -0.2725
 2109TIP3   OH2 6290   5.968   2.727   2.538 -0.3074  0.4882  0.1477
 2109TIP3    H1 6291   6.012   2.699   2.458 -1.3172  1.5703 -0.8311
 2109TIP3    H2 6292   6.004   2.671   2.607  1.8441  0.6728 -0.7520
 2110TIP3   OH2 6293   1.959   5.001   3.679  0.1824  0.9309  0.1458
 2110TIP3    H1 6294   1.878   5.051   3.669  0.0893  0.7246 -0.1680
 2110TIP3    H2 6295   1.946   4.925   3.622  0.2206  0.4288  0.7992
 2111TIP3   OH2 6296   2.219   1.228   3.554 -0.4284  0.1383 -0.5296
 2111TIP3    H1 6297   2.134   1.186   3.562 -0.2538  0.2056  3.3638
 2111TIP3    H2 6298   2.226   1.285   3.631  2.9421  0.4715 -0.9075
 2112TIP3   OH2 6299   3.154   6.107   0.780 -0.0113 -0.2487  0.3412
 2112TIP3    H1 6300   3.091   6.037   0.762  0.5408 -0.7101  0.1605
 2112TIP3    H2 6301   3.203   6.076   0.856  0.2872 -0.0866  0.2157
 2113TIP3   OH2 6302   1.471   3.194   4.867  0.2586  0.7593 -0.6246
 2113TIP3    H1 6303   1.558   3.199   4.827  0.7577 -1.2132  0.0976
 2113TIP3    H2 6304   1.434   3.113   4.833 -0.7564  0.8921  0.1249
 2114TIP3   OH2 6305   2.818   4.204   3.797  0.1151 -0.5807  0.2361
 2114TIP3    H1 6306   2.745   4.207   3.736 -0.6326 -0.6107  1.1114
 2114TIP3    H2 6307   2.824   4.112   3.822  2.1402 -1.1065 -1.7791
 2115TIP3   OH2 6308   1.079   6.241   0.406  0.0156  0.2635  0.3262
 2115TIP3    H1 6309   1.026   6.224   0.484  0.1349 -0.3600  0.2728
 2115TIP3    H2 6310   1.017   6.232   0.333 -0.6315  2.9823  0.4222
 2116TIP3   OH2 6311   4.967   3.154   5.144 -0.1619 -0.2370  0.1984
 2116TIP3    H1 6312   5.060   3.134   5.155  0.0749  0.7860  0.1012
 2116TIP3    H2 6313   4.958   3.244   5.172 -0.3347  1.1004 -3.5140
 2117TIP3   OH2 6314   6.134   5.703   2.782 -0.0991 -0.5546  0.7065
 2117TIP3    H1 6315   6.102   5.759   2.853  1.4374  0.3660  0.7112
 2117TIP3    H2 6316   6.213   5.662   2.817  1.5940  1.1102 -0.9253
 2118TIP3   OH2 6317   3.501   1.166   0.084  0.5676 -0.1336 -0.5191
 2118TIP3    H1 6318   3.454   1.087   0.057 -0.2611 -0.1432  0.8418
 2118TIP3    H2 6319   3.442   1.238   0.063 -0.6975 -0.2190  2.2420
 2119TIP3   OH2 6320   3.470   0.635   5.416  0.1010  0.0008 -0.1297
 2119TIP3    H1 6321   3.556   0.612   5.379  1.8350  0.4246  3.2538
 2119TIP3    H2 6322   3.447   0.560   5.471 -1.7109 -0.0297 -0.8506
 2120TIP3   OH2 6323   2.883   3.420   1.250 -0.6662 -0.8101  0.6851
 2120TIP3    H1 6324   2.940   3.345   1.232 -0.8789 -1.0305  0.9292
 2120TIP3    H2 6325   2.936   3.478   1.306 -0.1656 -0.3335 -0.2683
 2121TIP3   OH2 6326   5.401   4.409   2.907 -0.1935 -0.3542  0.1149
 2121TIP3    H1 6327   5.376   4.413   2.999 -1.5129 -0.8554 -0.2052
 2121TIP3    H2 6328   5.466   4.478   2.896  0.5488 -0.7852  1.5863
 2122TIP3   OH2 6329   3.385   0.122   2.166 -0.2760  0.6389  0.6647
 2122TIP3    H1 6330   3.419   0.061   2.232  1.3562  2.0361  1.1713
 2122TIP3    H2 6331   3.403   0.080   2.082 -2.5269 -1.2475  1.0247
 2123TIP3   OH2 6332   5.841   1.046   4.641 -0.0553 -0.1881  0.4360
 2123TIP3    H1 6333   5.838   1.012   4.551 -3.2923 -2.5675  1.2256
 2123TIP3    H2 6334   5.757   1.091   4.652  0.7752  1.0946  1.9661
 2124TIP3   OH2 6335   0.266   1.358   3.383  0.0697 -0.8596  0.2779
 2124TIP3    H1 6336   0.334   1.422   3.406 -0.4283  0.3172 -1.3472
 2124TIP3    H2 6337   0.185   1.410   3.379 -0.2076 -1.3655 -1.9443
 2125TIP3   OH2 6338   5.716   5.204   1.386  0.4932  0.5787  0.1443
 2125TIP3    H1 6339   5.650   5.271   1.403  1.8156  2.0282 -0.2015
 2125TIP3    H2 6340   5.724   5.201   1.291  0.9993  0.4887  0.1857
 2126TIP3   OH2 6341   3.196   4.004   1.080 -0.4566  0.1016 -0.2202
 2126TIP3    H1 6342   3.166   4.006   0.989  2.4245  0.2922 -1.2652
 2126TIP3    H2 6343   3.134   3.946   1.124 -1.7422 -0.2586 -2.3619
 2127TIP3   OH2 6344   3.405   6.269   3.099  0.0982  0.0118 -0.3997
 2127TIP3    H1 6345   3.479   6.305   3.148  1.2063  0.1538 -2.1044
 2127TIP3    H2 6346   3.368   6.202   3.156  1.1764  0.3468  0.7200
 2128TIP3   OH2 6347   0.803   4.918   1.975 -0.2215  0.2529  0.6633
 2128TIP3    H1 6348   0.837   4.952   1.893 -1.4255 -1.5479 -0.6514
 2128TIP3    H2 6349   0.713   4.948   1.979 -0.0253  0.7812  1.6378
 2129TIP3   OH2 6350   2.385   3.780   5.896 -0.0071 -0.0717 -0.3039
 2129TIP3    H1 6351   2.406   3.869   5.925  2.0824 -1.4408  3.0191
 2129TIP3    H2 6352   2.447   3.763   5.824  1.3158  0.4118  0.6709
 2130TIP3   OH2 6353   4.486   4.855   2.067 -0.3336 -0.1824 -0.5450
 2130TIP3    H1 6354   4.571   4.836   2.108 -0.4742 -0.8527 -0.5419
 2130TIP3    H2 6355   4.436   4.898   2.136  0.3615  1.2102 -0.8854
 2131TIP3   OH2 6356   5.947   0.466   4.887 -0.4634  1.1343 -0.1434
 2131TIP3    H1 6357   5.960   0.500   4.799 -2.0208 -1.1450 -1.3543
 2131TIP3    H2 6358   5.857   0.490   4.909 -0.6253  0.2987  0.1352
 2132TIP3   OH2 6359   6.707   0.388   1.795 -0.0785  0.2938  0.3309
 2132TIP3    H1 6360   6.656   0.458   1.835 -0.0290  1.0994 -0.9652
 2132TIP3    H2 6361   6.654   0.358   1.722  0.9292  0.5894 -0.5450
 2133TIP3   OH2 6362   6.597   4.776   0.608  0.7080 -0.1612  0.5953
 2133TIP3    H1 6363   6.674   4.801   0.658  0.8193  0.8930 -0.0766
 2133TIP3    H2 6364   6.560   4.858   0.577  0.8318 -0.7800 -1.3298
 2134TIP3   OH2 6365   7.162   0.881   3.142 -0.4293  0.2703  0.0828
 2134TIP3    H1 6366   7.217   0.903   3.067  0.5326  1.1970  1.0363
 2134TIP3    H2 6367   7.095   0.950   3.144 -1.1640 -0.4080 -0.6001
 2135TIP3   OH2 6368   5.227   5.030   1.591 -0.0221  0.0879 -0.1286
 2135TIP3    H1 6369   5.311   4.991   1.615 -0.2655 -0.3821 -0.0181
 2135TIP3    H2 6370   5.250   5.106   1.538  0.4868  0.2665  0.3394
 2136TIP3   OH2 6371   0.761   2.917   4.783  0.6774  0.3845 -0.1150
 2136TIP3    H1 6372   0.798   2.997   4.745  0.3963  0.4116 -0.3399
 2136TIP3    H2 6373   0.745   2.940   4.874  0.8669  0.4910 -0.1061
 2137TIP3   OH2 6374   3.907   2.111   5.680  0.2214 -0.0656  0.0159
 2137TIP3    H1 6375   3.874   2.043   5.738 -0.8993 -0.8084 -1.4432
 2137TIP3    H2 6376   3.892   2.193   5.728 -0.9074 -0.6414  0.6757
 2138TIP3   OH2 6377   6.677   5.196   4.896 -0.0174 -0.3060 -0.5570
 2138TIP3    H1 6378   6.751   5.189   4.956 -1.1714  1.4787  1.2152
 2138TIP3    H2 6379   6.600   5.183   4.951 -1.1087 -2.3071 -2.3683
 2139TIP3   OH2 6380   3.047   0.876   5.609 -0.1252  0.5914  0.0316
 2139TIP3    H1 6381   3.139   0.900   5.599  0.4076 -1.3672 -0.1576
 2139TIP3    H2 6382   3.028   0.823   5.533 -1.3246  0.6481  0.2712
 2140TIP3   OH2 6383   2.530   2.917   4.190  0.0586 -0.2694 -0.3615
 2140TIP3    H1 6384   2.517   2.886   4.279  2.6853  2.6351  1.2357
 2140TIP3    H2 6385   2.584   2.850   4.149 -0.3832 -1.1903  0.5127
 2141TIP3   OH2 6386   5.114   3.813   5.199 -0.6473 -0.2508  0.3276
 2141TIP3    H1 6387   5.020   3.809   5.180 -0.4875 -2.3486 -0.2694
 2141TIP3    H2 6388   5.155   3.836   5.116 -0.4770 -1.9738 -0.0950
 2142TIP3   OH2 6389   5.798   3.723   0.626  0.2533  0.0048  0.3935
 2142TIP3    H1 6390   5.875   3.725   0.570  0.2927 -0.5085  0.4290
 2142TIP3    H2 6391   5.801   3.638   0.669 -0.7578 -0.3713 -0.2225
 2143TIP3   OH2 6392   4.923   6.652   5.335  0.1846 -0.1791  0.2653
 2143TIP3    H1 6393   5.002   6.703   5.321  0.4482 -0.9327 -1.1123
 2143TIP3    H2 6394   4.874   6.660   5.253 -0.7668 -0.4156  0.7944
 2144TIP3   OH2 6395   2.645   1.321   1.937  0.0059 -0.2912 -0.0466
 2144TIP3    H1 6396   2.609   1.403   1.904  1.6413  0.6314  0.3542
 2144TIP3    H2 6397   2.698   1.287   1.864  1.0387  0.1244  0.4805
 2145TIP3   OH2 6398   2.735   2.566   0.194 -0.2813 -0.1999 -0.0738
 2145TIP3    H1 6399   2.798   2.635   0.213 -0.0829 -0.1590 -0.8460
 2145TIP3    H2 6400   2.707   2.583   0.104 -1.4632 -0.1646  0.2822
 2146TIP3   OH2 6401   2.240   3.461   0.208  0.1554  0.0662 -0.2376
 2146TIP3    H1 6402   2.306   3.439   0.273  0.2614 -1.2548 -0.7525
 2146TIP3    H2 6403   2.277   3.534   0.159  1.5532 -1.0822 -0.9439
 2147TIP3   OH2 6404   2.296   3.489   2.521 -0.2932  0.1744 -0.3735
 2147TIP3    H1 6405   2.342   3.561   2.565 -1.2474  1.3179 -1.2085
 2147TIP3    H2 6406   2.299   3.511   2.428  0.4832 -1.5152 -0.8028
 2148TIP3   OH2 6407   2.123   0.175   0.920 -0.2646  0.2178  0.2983
 2148TIP3    H1 6408   2.050   0.129   0.877 -0.2019 -0.1698  0.5979
 2148TIP3    H2 6409   2.082   0.251   0.961 -0.6287 -0.3687  1.0505
 2149TIP3   OH2 6410   2.552   5.649   3.771  0.1609 -0.2794 -0.6930
 2149TIP3    H1 6411   2.584   5.713   3.707  1.4287  0.0859  0.2660
 2149TIP3    H2 6412   2.621   5.644   3.836 -0.3844 -1.8597 -0.1883
 2150TIP3   OH2 6413   1.440   2.992   2.350 -0.8325  0.0523  0.3800
 2150TIP3    H1 6414   1.481   2.993   2.263 -0.3160  1.9862  0.6151
 2150TIP3    H2 6415   1.514   2.988   2.411 -1.1516  0.0172  0.7674
 2151TIP3   OH2 6416   4.730   1.662   1.705 -0.2354  0.3489 -0.1698
 2151TIP3    H1 6417   4.816   1.626   1.725  0.7955  1.8536 -1.6704
 2151TIP3    H2 6418   4.692   1.599   1.642 -0.9451 -1.1175  1.6163
 2152TIP3   OH2 6419   3.955   2.595   4.852 -0.0554  0.7854 -0.3785
 2152TIP3    H1 6420   4.032   2.541   4.871  0.0112  0.9007 -0.3229
 2152TIP3    H2 6421   3.943   2.589   4.758 -1.3254 -1.0983 -0.1565
 2153TIP3   OH2 6422   0.173   6.694   5.714  0.1697 -0.1937 -0.3301
 2153TIP3    H1 6423   0.078   6.694   5.723  0.0255  1.6989 -1.3550
 2153TIP3    H2 6424   0.205   6.733   5.795  0.1474 -1.3873  0.2795
 2154TIP3   OH2 6425   6.560   0.750   2.876  0.0024  0.1183  0.0412
 2154TIP3    H1 6426   6.466   0.757   2.861 -0.0053 -0.0144  0.0180
 2154TIP3    H2 6427   6.571   0.758   2.970 -0.1331 -0.8390  0.1509
 2155TIP3   OH2 6428   4.795   0.035   0.297  0.2739  0.2727 -0.7077
 2155TIP3    H1 6429   4.708   0.027   0.334  0.4554 -0.7829 -0.4798
 2155TIP3    H2 6430   4.837   0.103   0.349  0.6709 -1.4579  1.3839
 2156TIP3   OH2 6431   6.655   0.698   0.473 -0.6146 -0.2560 -0.3721
 2156TIP3    H1 6432   6.729   0.759   0.474 -0.2913 -0.6061  1.4886
 2156TIP3    H2 6433   6.578   0.755   0.463 -0.2392  0.3838  0.2146
 2157TIP3   OH2 6434   6.441   1.044   5.076 -0.0246  0.0902 -0.6143
 2157TIP3    H1 6435   6.413   0.979   5.141  1.5018  0.1950  0.1967
 2157TIP3    H2 6436   6.433   0.999   4.992 -1.2935 -0.3151 -0.3029
 2158TIP3   OH2 6437   2.115   6.401   2.430 -0.1287  0.4412  0.3923
 2158TIP3    H1 6438   2.114   6.471   2.495  1.2816 -0.2624  1.2217
 2158TIP3    H2 6439   2.176   6.431   2.363  0.4846 -0.0030  0.7541
 2159TIP3   OH2 6440   1.861   3.801   1.508  0.4074  0.0265 -0.4259
 2159TIP3    H1 6441   1.876   3.718   1.554  4.3615  0.9492  0.3453
 2159TIP3    H2 6442   1.766   3.805   1.497 -0.0981 -3.9166  0.6965
 2160TIP3   OH2 6443   0.205   1.318   0.414  0.3167 -0.1409 -0.4331
 2160TIP3    H1 6444   0.250   1.248   0.460  0.6742  0.0266 -0.5220
 2160TIP3    H2 6445   0.263   1.340   0.341 -0.0699 -0.1570 -0.7539
 2161TIP3   OH2 6446   2.056   5.541   5.299  0.3123  0.0612 -0.0840
 2161TIP3    H1 6447   2.123   5.473   5.298  0.8513  0.5547  0.8366
 2161TIP3    H2 6448   1.974   5.494   5.312  0.6077 -0.4596 -0.0707
 2162TIP3   OH2 6449   6.958   1.694   1.842  0.2840 -0.1828  0.5308
 2162TIP3    H1 6450   6.891   1.762   1.837 -2.1339 -2.4390 -0.0623
 2162TIP3    H2 6451   6.963   1.672   1.935  2.8354  2.2715  1.1151
 2163TIP3   OH2 6452   1.127   0.919   2.474  0.2280  0.4442 -0.1348
 2163TIP3    H1 6453   1.096   0.994   2.424 -1.6048 -0.1760 -0.0223
 2163TIP3    H2 6454   1.067   0.915   2.549  1.2108 -0.2687  0.6281
 2164TIP3   OH2 6455   3.683   3.014   2.432 -0.1008  0.3296  0.3809
 2164TIP3    H1 6456   3.610   2.978   2.382  0.6410  0.8132 -1.1319
 2164TIP3    H2 6457   3.646   3.038   2.516 -1.5983  0.2126 -0.2227
 2165TIP3   OH2 6458   0.496   5.395   4.403 -0.0987  0.3802  0.1604
 2165TIP3    H1 6459   0.464   5.371   4.490 -1.0460  4.2790  1.0878
 2165TIP3    H2 6460   0.583   5.432   4.418  0.7083 -0.9572 -0.9507
 2166TIP3   OH2 6461   2.006   1.036   3.648  0.2255  0.0359 -0.2475
 2166TIP3    H1 6462   1.931   1.094   3.660  0.2868  0.0707 -0.0259
 2166TIP3    H2 6463   2.056   1.045   3.729  1.5204  1.5361 -1.1602
 2167TIP3   OH2 6464   7.179   4.490   4.473 -0.1895  0.1583  0.4762
 2167TIP3    H1 6465   7.166   4.398   4.499  0.7700  0.3338  1.6805
 2167TIP3    H2 6466   7.147   4.494   4.383 -2.0144 -0.9103  1.0222
 2168TIP3   OH2 6467   2.411   1.375   5.325  0.0837  0.1837  0.6330
 2168TIP3    H1 6468   2.346   1.368   5.394 -0.3802  1.7791  0.3817
 2168TIP3    H2 6469   2.380   1.447   5.269  0.1690 -1.3343 -1.5223
 2169TIP3   OH2 6470   3.896   0.980   5.825  0.7474  0.1561 -0.0024
 2169TIP3    H1 6471   3.942   0.945   5.749  0.5732 -0.7880  0.3143
 2169TIP3    H2 6472   3.853   0.904   5.865  1.1533  0.5521  1.2560
 2170TIP3   OH2 6473   4.668   3.856   4.759 -0.4816 -0.0701  0.1106
 2170TIP3    H1 6474   4.654   3.921   4.690 -1.7702  1.5180  1.7617
 2170TIP3    H2 6475   4.610   3.884   4.830  1.9265 -0.7003  2.4729
 2171TIP3   OH2 6476   6.881   5.625   4.453  0.3475 -0.4596  0.2447
 2171TIP3    H1 6477   6.824   5.548   4.460 -0.4421  0.0556 -0.3830
 2171TIP3    H2 6478   6.823   5.700   4.465  1.0848  0.0523  0.7037
 2172TIP3   OH2 6479   6.841   0.410   3.317  0.7212  0.2284  0.1800
 2172TIP3    H1 6480   6.839   0.460   3.235  0.9500  1.2297  0.7672
 2172TIP3    H2 6481   6.918   0.354   3.308  2.8525  2.7794  1.0391
 2173TIP3   OH2 6482   3.804   5.361   2.603 -0.3389  0.4933  0.1043
 2173TIP3    H1 6483   3.781   5.402   2.687 -0.2025  1.7278 -0.4387
 2173TIP3    H2 6484   3.752   5.281   2.601  1.1594 -0.6464  2.2663
 2174TIP3   OH2 6485   2.696   3.013   3.490  0.3703  0.4573 -0.4515
 2174TIP3    H1 6486   2.767   3.066   3.526 -0.0184  0.2484  0.6538
 2174TIP3    H2 6487   2.709   2.926   3.528 -0.2071  0.3028 -0.5953
 2175TIP3   OH2 6488   5.083   1.427   5.209 -1.1376 -0.1603  0.2500
 2175TIP3    H1 6489   5.049   1.489   5.274 -1.5273 -1.6116  1.4870
 2175TIP3    H2 6490   5.055   1.341   5.241 -0.8543 -0.9648 -1.5706
 2176TIP3   OH2 6491   5.080   1.835   1.628 -0.5415 -0.2930  0.0227
 2176TIP3    H1 6492   5.055   1.896   1.698  2.3280  1.5224 -0.3599
 2176TIP3    H2 6493   5.145   1.777   1.670 -0.8521 -0.9886 -0.4484
 2177TIP3   OH2 6494   0.193   1.667   3.153 -0.2672 -0.2233 -0.0568
 2177TIP3    H1 6495   0.216   1.638   3.241 -0.6014  1.5881  0.6761
 2177TIP3    H2 6496   0.102   1.641   3.142  0.1497 -1.6003 -0.3998
 2178TIP3   OH2 6497   3.557   3.180   2.667  0.0810 -0.0746  0.4094
 2178TIP3    H1 6498   3.497   3.129   2.722 -1.2210 -0.3670 -1.1723
 2178TIP3    H2 6499   3.501   3.242   2.621  0.9606 -0.3514 -1.1342
 2179TIP3   OH2 6500   1.201   2.288   3.563  0.5289  0.1863 -0.5226
 2179TIP3    H1 6501   1.229   2.379   3.564 -1.6144  0.9634 -2.0669
 2179TIP3    H2 6502   1.109   2.291   3.591  0.5011 -1.5469 -0.3020
 2180TIP3   OH2 6503   0.852   1.878   5.447 -0.7095  0.2951 -0.7064
 2180TIP3    H1 6504   0.876   1.909   5.535  0.3783 -0.0111 -0.8834
 2180TIP3    H2 6505   0.816   1.955   5.404  0.4935  0.9484 -0.6013
 2181TIP3   OH2 6506   1.464   4.431   5.665  0.1101  0.7273 -0.1476
 2181TIP3    H1 6507   1.384   4.380   5.664  1.0684 -0.9626 -3.0185
 2181TIP3    H2 6508   1.445   4.507   5.609  0.2795  0.7107 -0.2289
 2182TIP3   OH2 6509   6.317   1.959   2.937 -0.1642 -0.0178  0.3183
 2182TIP3    H1 6510   6.384   1.969   3.005  1.3488  0.8922 -1.2081
 2182TIP3    H2 6511   6.339   1.876   2.894  1.6657  1.4099 -1.7780
 2183TIP3   OH2 6512   1.490   1.805   3.647  0.4932  0.1129 -0.3704
 2183TIP3    H1 6513   1.531   1.863   3.582  1.6535 -0.5837 -0.2980
 2183TIP3    H2 6514   1.411   1.773   3.604  0.3633  0.9704 -0.7915
 2184TIP3   OH2 6515   0.519   1.156   4.441  0.5780  0.0649 -0.6652
 2184TIP3    H1 6516   0.427   1.157   4.417  0.5207  0.2526 -0.4460
 2184TIP3    H2 6517   0.565   1.125   4.363  0.4278  0.9676 -1.1269
 2185TIP3   OH2 6518   5.208   1.848   3.889  0.4694  0.3721 -0.0401
 2185TIP3    H1 6519   5.137   1.844   3.953  1.6734  0.3271  1.3305
 2185TIP3    H2 6520   5.165   1.834   3.805 -1.2811  1.2471  0.6560
 2186TIP3   OH2 6521   3.525   3.711   2.420 -0.4102  0.6809 -0.2476
 2186TIP3    H1 6522   3.480   3.795   2.415 -2.0723 -0.2287 -2.1280
 2186TIP3    H2 6523   3.612   3.727   2.383 -0.9129  1.4823 -1.1242
 2187TIP3   OH2 6524   5.786   3.280   1.348  0.4229 -0.3914 -0.1988
 2187TIP3    H1 6525   5.699   3.247   1.330  0.4014  0.1112 -1.0488
 2187TIP3    H2 6526   5.838   3.202   1.369 -0.0796 -0.7477 -0.2797
 2188TIP3   OH2 6527   3.348   0.854   5.497  0.2686  0.5839 -0.3348
 2188TIP3    H1 6528   3.340   0.929   5.437 -0.5881  1.6009  0.9782
 2188TIP3    H2 6529   3.395   0.788   5.447 -0.0128  1.5575 -1.9658
 2189TIP3   OH2 6530   1.831   0.314   1.214  0.0072 -0.3362  0.6141
 2189TIP3    H1 6531   1.875   0.229   1.218  2.3084  0.8111  1.2830
 2189TIP3    H2 6532   1.871   0.358   1.139 -1.2972  0.1128  0.1560
 2190TIP3   OH2 6533   4.722   6.501   5.466  0.3066  0.1236 -0.3118
 2190TIP3    H1 6534   4.799   6.543   5.427  0.1244  2.0489  1.2579
 2190TIP3    H2 6535   4.676   6.572   5.511 -1.2920 -1.3709  0.5261
 2191TIP3   OH2 6536   6.687   0.793   0.164  0.1570 -0.3397 -0.2483
 2191TIP3    H1 6537   6.661   0.718   0.111 -1.7715 -2.7911  3.6660
 2191TIP3    H2 6538   6.664   0.768   0.254  2.2251  3.7921  1.7163
 2192TIP3   OH2 6539   5.950   2.797   0.328 -0.1477 -0.1806  0.1532
 2192TIP3    H1 6540   6.008   2.848   0.273 -0.9171 -0.1544 -0.6565
 2192TIP3    H2 6541   5.880   2.768   0.269 -2.2707  1.7809  1.5281
 2193TIP3   OH2 6542   3.025   2.679   2.371  0.4983  0.2713 -0.0758
 2193TIP3    H1 6543   2.989   2.709   2.287  0.6261  0.1179 -0.1866
 2193TIP3    H2 6544   3.097   2.740   2.389 -0.0774  0.8365  0.3541
 2194TIP3   OH2 6545   5.356   2.714   3.203  0.5309  0.3560 -0.2761
 2194TIP3    H1 6546   5.367   2.809   3.196  0.2321  0.6081  1.9311
 2194TIP3    H2 6547   5.442   2.678   3.183  0.4882  1.0165 -1.7996
 2195TIP3   OH2 6548   5.362   6.670   1.754 -0.2766 -0.3023 -0.1557
 2195TIP3    H1 6549   5.447   6.690   1.714 -0.0517  0.0697  0.4894
 2195TIP3    H2 6550   5.382   6.605   1.822 -0.3551  0.4445  0.6023
 2196TIP3   OH2 6551   6.217   5.605   5.714  0.4861 -0.0412 -0.6574
 2196TIP3    H1 6552   6.170   5.528   5.746 -0.9386  1.7479  1.8812
 2196TIP3    H2 6553   6.307   5.591   5.743  0.4026 -1.0096 -0.8016
 2197TIP3   OH2 6554   6.396   5.811   4.924 -0.1575 -0.2136 -0.2279
 2197TIP3    H1 6555   6.330   5.874   4.896 -1.2845 -1.2269  0.0105
 2197TIP3    H2 6556   6.409   5.830   5.017 -0.2644 -0.1348 -0.2287
 2198TIP3   OH2 6557   6.467   0.375   5.828  0.0545  0.0357 -0.4990
 2198TIP3    H1 6558   6.399   0.308   5.817 -0.0529  0.3185 -1.6983
 2198TIP3    H2 6559   6.522   0.366   5.750  1.7538 -0.5575  0.7095
 2199TIP3   OH2 6560   1.819   3.654   1.889  0.1101 -0.0580  0.2893
 2199TIP3    H1 6561   1.754   3.724   1.879  0.9295  0.8521  1.1684
 2199TIP3    H2 6562   1.869   3.678   1.967  2.8703  0.4122 -1.4724
 2200TIP3   OH2 6563   6.510   4.562   5.844 -0.2672  0.1412  0.5109
 2200TIP3    H1 6564   6.427   4.569   5.891 -0.7397 -1.4370 -0.0293
 2200TIP3    H2 6565   6.547   4.478   5.871  2.2049  1.6445  2.3152
 2201TIP3   OH2 6566   1.206   6.274   1.631  0.1600  0.1223  0.1438
 2201TIP3    H1 6567   1.175   6.356   1.671  1.1539  0.2955  0.5783
 2201TIP3    H2 6568   1.161   6.271   1.547  1.9953  2.4357 -1.0452
 2202TIP3   OH2 6569   1.209   1.730   1.064  0.3283 -0.4128  0.0352
 2202TIP3    H1 6570   1.245   1.684   0.988  1.8330  0.9806 -0.1353
 2202TIP3    H2 6571   1.238   1.679   1.139  2.3109  0.3935 -0.1299
 2203TIP3   OH2 6572   1.974   3.795   1.239 -0.0617  0.0950  0.0961
 2203TIP3    H1 6573   1.949   3.809   1.331 -0.9568  0.7178 -0.2237
 2203TIP3    H2 6574   2.052   3.849   1.227 -0.4003  0.6497  0.3022
 2204TIP3   OH2 6575   3.117   0.543   1.481 -0.1935 -0.0443 -0.2286
 2204TIP3    H1 6576   3.060   0.585   1.546  1.4009  0.7324  0.7378
 2204TIP3    H2 6577   3.132   0.611   1.415  1.8523  0.7966  0.9958
 2205TIP3   OH2 6578   5.014   4.830   4.343  0.4746 -0.2145  0.0807
 2205TIP3    H1 6579   4.974   4.748   4.313 -1.7163  1.1331 -0.9726
 2205TIP3    H2 6580   5.100   4.805   4.374  0.9464 -2.5592 -2.6733
 2206TIP3   OH2 6581   1.532   1.500   4.837 -0.0936  0.2227  0.4154
 2206TIP3    H1 6582   1.583   1.574   4.803 -0.8060  1.5645  2.1237
 2206TIP3    H2 6583   1.453   1.498   4.783 -0.0711  0.7075  0.3636
 2207TIP3   OH2 6584   1.670   5.867   5.741 -0.2550  0.2772  0.0591
 2207TIP3    H1 6585   1.607   5.940   5.733  0.3136  0.6831 -0.9973
 2207TIP3    H2 6586   1.648   5.809   5.668  0.0213 -0.0448  0.2300
 2208TIP3   OH2 6587   5.933   1.851   0.237  0.1842 -0.3405 -0.4107
 2208TIP3    H1 6588   5.947   1.945   0.252 -0.4419 -0.2894 -0.1100
 2208TIP3    H2 6589   6.004   1.826   0.178  0.6439  0.2186 -0.1203
 2209TIP3   OH2 6590   3.213   2.703   0.640  0.4768 -0.1433 -0.0141
 2209TIP3    H1 6591   3.269   2.748   0.703 -0.9168 -0.7999  1.7587
 2209TIP3    H2 6592   3.125   2.734   0.659  0.0859  0.2395 -2.1975
 2210TIP3   OH2 6593   1.108   0.957   3.996  0.1375  0.3540 -0.0428
 2210TIP3    H1 6594   1.028   0.915   4.030  0.6668 -1.2691 -0.7065
 2210TIP3    H2 6595   1.179   0.907   4.035  0.8471  1.5451  0.2298
 2211TIP3   OH2 6596   2.901   0.435   0.658 -0.0842  0.2187 -0.3400
 2211TIP3    H1 6597   2.922   0.397   0.573 -0.8621  0.0287 -0.4611
 2211TIP3    H2 6598   2.901   0.362   0.719  0.5731  0.3712 -0.1558
 2212TIP3   OH2 6599   5.045   4.829   2.948  0.2282 -0.1179 -0.2931
 2212TIP3    H1 6600   5.011   4.740   2.950  0.2316 -0.1059  0.4429
 2212TIP3    H2 6601   5.140   4.819   2.957  0.1653 -0.0070  0.5598
 2213TIP3   OH2 6602   2.721   6.054   5.377  0.1254 -0.0348 -0.0550
 2213TIP3    H1 6603   2.684   6.089   5.296 -2.3202  1.6858  1.6242
 2213TIP3    H2 6604   2.810   6.088   5.380  0.2932 -0.2185 -2.0402
 2214TIP3   OH2 6605   5.704   0.188   2.771 -0.0465 -0.5688 -0.7908
 2214TIP3    H1 6606   5.621   0.161   2.810  0.6051 -0.9489  0.3720
 2214TIP3    H2 6607   5.679   0.255   2.707 -1.2073 -0.3271 -0.1234
 2215TIP3   OH2 6608   5.695   4.106   5.235  0.3048 -0.1514 -0.3871
 2215TIP3    H1 6609   5.701   4.202   5.230 -0.7487 -0.0089  0.7125
 2215TIP3    H2 6610   5.603   4.089   5.255  1.0327 -1.2220  2.5720
 2216TIP3   OH2 6611   6.929   6.688   0.802 -0.1591 -0.2236 -0.2628
 2216TIP3    H1 6612   6.873   6.637   0.743 -0.2656 -0.0648 -0.2988
 2216TIP3    H2 6613   6.983   6.742   0.743 -2.1556  1.9937 -0.2109
 2217TIP3   OH2 6614   0.255   1.962   1.873 -0.1178  0.1389  0.1531
 2217TIP3    H1 6615   0.174   1.919   1.899 -0.5053 -0.0766 -1.3554
 2217TIP3    H2 6616   0.236   2.001   1.788  1.3772  0.0287 -0.2631
 2218TIP3   OH2 6617   6.683   1.850   3.068  0.5752  0.1006 -0.0217
 2218TIP3    H1 6618   6.616   1.885   3.126  0.8355  0.6344 -0.0351
 2218TIP3    H2 6619   6.640   1.776   3.023 -0.0202  0.4761 -0.0812
 2219TIP3   OH2 6620   4.066   5.211   1.101 -0.0286  0.0555  0.0735
 2219TIP3    H1 6621   3.974   5.207   1.129 -0.1663  0.5920 -0.2793
 2219TIP3    H2 6622   4.113   5.160   1.166 -0.4869  0.3703  0.6583
 2220TIP3   OH2 6623   5.105   5.234   5.392 -0.5702 -0.2937 -0.0630
 2220TIP3    H1 6624   5.017   5.271   5.384 -0.3735  0.1234 -0.3072
 2220TIP3    H2 6625   5.108   5.200   5.482 -1.4420 -1.5256 -0.4841
 2221TIP3   OH2 6626   2.126   1.974   2.930 -0.7920  0.2334  0.5265
 2221TIP3    H1 6627   2.156   2.020   2.852 -2.1792  1.2873  0.5751
 2221TIP3    H2 6628   2.078   2.041   2.980  0.0080 -0.4264  2.2516
 2222TIP3   OH2 6629   6.544   6.338   2.745  0.1091  0.3500 -0.1602
 2222TIP3    H1 6630   6.463   6.286   2.748 -1.4727  2.6889  1.2455
 2222TIP3    H2 6631   6.541   6.382   2.660  1.1084 -1.2607 -1.0653
 2223TIP3   OH2 6632   5.345   2.495   5.624 -0.3088 -0.1900 -0.6099
 2223TIP3    H1 6633   5.381   2.407   5.641 -0.9592 -0.3658 -0.1195
 2223TIP3    H2 6634   5.286   2.511   5.697 -2.0109 -0.3215 -1.9089
 2224TIP3   OH2 6635   6.644   5.943   5.233  0.3002  0.3985 -0.6170
 2224TIP3    H1 6636   6.581   5.871   5.236  0.2813  0.1818 -3.5230
 2224TIP3    H2 6637   6.601   6.014   5.281 -0.6547 -0.7734  0.3555
 2225TIP3   OH2 6638   3.815   0.360   1.412 -0.2756  0.1457  0.0582
 2225TIP3    H1 6639   3.754   0.355   1.339 -0.0040  1.3327 -0.2834
 2225TIP3    H2 6640   3.808   0.276   1.457 -2.5890  0.4576  0.3714
 2226TIP3   OH2 6641   6.454   5.444   1.023 -0.0239  0.1154 -0.1277
 2226TIP3    H1 6642   6.365   5.471   1.044 -0.6206 -2.9331  2.0433
 2226TIP3    H2 6643   6.444   5.360   0.978  1.6779 -1.3374  1.9786
 2227TIP3   OH2 6644   0.673   5.105   5.275  0.2135  0.5213 -0.2871
 2227TIP3    H1 6645   0.650   5.019   5.308 -2.3519  1.3370  0.2975
 2227TIP3    H2 6646   0.690   5.092   5.182 -0.2575 -0.6165 -0.2247
 2228TIP3   OH2 6647   3.870   6.354   5.557  0.5534 -0.3385  0.2266
 2228TIP3    H1 6648   3.873   6.310   5.641 -1.6040 -0.6873  0.1796
 2228TIP3    H2 6649   3.956   6.340   5.519  0.9755 -1.7031  1.6141
 2229TIP3   OH2 6650   2.826   3.840   3.179  0.3045 -0.8897 -0.0788
 2229TIP3    H1 6651   2.898   3.901   3.192 -1.2977  0.4668  4.0027
 2229TIP3    H2 6652   2.757   3.892   3.139 -0.2770 -0.5543  1.2965
 2230TIP3   OH2 6653   5.314   3.872   2.662  0.1205  0.0050 -0.0095
 2230TIP3    H1 6654   5.257   3.940   2.625 -0.0898  0.1833  0.6419
 2230TIP3    H2 6655   5.370   3.846   2.588 -1.9193 -1.3901 -1.1619
 2231TIP3   OH2 6656   3.070   3.702   2.943 -0.5479 -0.9228 -0.3018
 2231TIP3    H1 6657   2.988   3.652   2.939 -2.0417  1.1044  1.7267
 2231TIP3    H2 6658   3.116   3.666   3.018 -0.4755 -0.8679 -0.3201
 2232TIP3   OH2 6659   0.620   5.715   3.000  0.3948  0.3206 -0.2179
 2232TIP3    H1 6660   0.713   5.702   2.980  0.1791 -1.3710 -0.2776
 2232TIP3    H2 6661   0.615   5.705   3.095  0.0846 -1.0123 -0.3634
 2233TIP3   OH2 6662   7.181   5.729   5.279  0.0449 -0.3010  0.4107
 2233TIP3    H1 6663   7.115   5.689   5.336 -1.3759  0.7828 -0.4108
 2233TIP3    H2 6664   7.135   5.747   5.198  1.5985 -0.2665 -0.5060
 2234TIP3   OH2 6665   1.965   6.400   5.036  0.1866 -0.2092  0.3537
 2234TIP3    H1 6666   1.920   6.340   5.096 -0.4462  0.4701  0.5787
 2234TIP3    H2 6667   1.992   6.345   4.963 -0.1183 -0.8245  0.6911
 2235TIP3   OH2 6668   2.664   2.918   3.007  0.4538 -0.1279  0.5666
 2235TIP3    H1 6669   2.607   2.955   3.074  0.9577  0.4190  0.7048
 2235TIP3    H2 6670   2.607   2.911   2.930 -0.1113 -0.7065  1.0229
 2236TIP3   OH2 6671   1.776   3.420   2.361 -0.2474 -0.3375 -0.0294
 2236TIP3    H1 6672   1.830   3.456   2.432 -0.9918  0.7273  0.0243
 2236TIP3    H2 6673   1.686   3.440   2.387 -0.7814 -2.6799  0.2350
 2237TIP3   OH2 6674   6.767   2.282   3.098  0.0424 -0.6893 -0.3729
 2237TIP3    H1 6675   6.678   2.303   3.127  0.5483  0.0134  0.7116
 2237TIP3    H2 6676   6.800   2.223   3.165  1.6890  1.9695  1.3219
 2238TIP3   OH2 6677   6.165   0.008   2.468  0.1648 -0.4538  0.1013
 2238TIP3    H1 6678   6.179   0.085   2.523 -1.0250  1.1671 -1.7230
 2238TIP3    H2 6679   6.205   0.031   2.384 -1.9517 -0.9402 -1.1132
 2239TIP3   OH2 6680   2.013   0.827   1.596 -0.0809  0.3270  0.5320
 2239TIP3    H1 6681   2.076   0.877   1.647 -0.3652  0.7156  0.5039
 2239TIP3    H2 6682   1.929   0.868   1.614 -0.1479  0.6553 -0.4668
 2240TIP3   OH2 6683   0.638   1.671   1.632 -0.3515  0.3635 -0.4534
 2240TIP3    H1 6684   0.733   1.670   1.622 -0.2133 -1.2037  0.6222
 2240TIP3    H2 6685   0.623   1.725   1.710 -0.3335  0.5377 -0.5709
 2241TIP3   OH2 6686   1.901   5.265   1.435  0.6260 -0.0952  0.5874
 2241TIP3    H1 6687   1.904   5.360   1.443  0.5997 -0.0465  0.0731
 2241TIP3    H2 6688   1.974   5.234   1.490 -0.1886  0.1320  1.8320
 2242TIP3   OH2 6689   3.780   4.909   4.919  0.2833  0.2012  0.3487
 2242TIP3    H1 6690   3.823   4.896   4.835 -0.0902 -0.1730  0.2068
 2242TIP3    H2 6691   3.690   4.933   4.896 -0.5716 -2.3881  0.5775
 2243TIP3   OH2 6692   6.664   1.384   0.380  0.2560  0.1029  0.4084
 2243TIP3    H1 6693   6.662   1.435   0.461  0.0397  0.9817 -0.1314
 2243TIP3    H2 6694   6.705   1.301   0.404  2.5070  1.2833  0.9071
 2244TIP3   OH2 6695   6.420   0.091   4.112 -0.5690  0.0544 -0.2796
 2244TIP3    H1 6696   6.472   0.106   4.191  0.3085  1.3764 -1.0621
 2244TIP3    H2 6697   6.473   0.031   4.059 -1.3598 -1.1879  0.2999
 2245TIP3   OH2 6698   1.335   1.452   1.776  0.1065 -0.1565  0.2065
 2245TIP3    H1 6699   1.324   1.383   1.711  1.9981 -0.2270 -0.1013
 2245TIP3    H2 6700   1.332   1.533   1.725  0.3773 -0.1491  0.2009
 2246TIP3   OH2 6701   5.372   6.417   1.513 -0.3348 -0.0407  0.4800
 2246TIP3    H1 6702   5.464   6.415   1.537  0.0979 -1.2621 -1.1234
 2246TIP3    H2 6703   5.337   6.333   1.542  0.4629 -2.0891 -3.7001
 2247TIP3   OH2 6704   0.795   4.616   3.846 -0.2535  0.4727 -0.3595
 2247TIP3    H1 6705   0.836   4.540   3.887 -2.0381 -0.9510 -1.0878
 2247TIP3    H2 6706   0.701   4.600   3.854 -0.6556  1.9247 -1.7627
 2248TIP3   OH2 6707   0.975   0.701   4.726  0.2484 -0.0429  0.3209
 2248TIP3    H1 6708   1.051   0.712   4.669  0.6207 -0.5655  0.7054
 2248TIP3    H2 6709   1.011   0.706   4.815 -0.0776 -0.8259  0.5042
 2249TIP3   OH2 6710   0.408   0.191   2.572  0.1016  0.0337 -0.1027
 2249TIP3    H1 6711   0.390   0.132   2.645  0.4972 -0.2842 -0.2590
 2249TIP3    H2 6712   0.397   0.137   2.494 -0.3384  0.3776 -0.2830
 2250TIP3   OH2 6713   6.840   5.458   4.019  0.0040 -0.0231 -0.0745
 2250TIP3    H1 6714   6.904   5.524   4.044  1.5440 -1.3895 -0.2764
 2250TIP3    H2 6715   6.859   5.382   4.075 -1.6297 -0.3888  0.0621
 2251TIP3   OH2 6716   5.972   2.935   2.048  0.0292 -0.3356  0.1917
 2251TIP3    H1 6717   5.982   2.900   1.959  0.1672 -1.2736  0.5643
 2251TIP3    H2 6718   5.907   3.005   2.039 -1.2121 -1.5084 -0.3779
 2252TIP3   OH2 6719   5.073   6.685   4.278  0.7358 -0.1745 -0.2828
 2252TIP3    H1 6720   5.150   6.629   4.287 -0.3365 -1.6460  0.2077
 2252TIP3    H2 6721   5.002   6.635   4.319 -0.6135  0.8459 -1.2667
 2253TIP3   OH2 6722   5.731   6.397   3.873 -0.3568  0.1342 -0.0843
 2253TIP3    H1 6723   5.726   6.355   3.787 -0.2161 -0.5244  0.2244
 2253TIP3    H2 6724   5.684   6.338   3.931  2.4623 -1.2567  0.9894
 2254TIP3   OH2 6725   6.006   1.738   1.646  0.1083 -0.0889  0.3721
 2254TIP3    H1 6726   6.046   1.660   1.609  0.9826 -0.0481  1.1949
 2254TIP3    H2 6727   5.912   1.726   1.631  0.3174 -0.7974 -0.4289
 2255TIP3   OH2 6728   2.013   6.199   0.808  0.5099  0.0098 -0.1850
 2255TIP3    H1 6729   1.982   6.226   0.721 -0.1575 -0.3831 -0.0746
 2255TIP3    H2 6730   2.063   6.120   0.791  2.6621  1.3646 -0.5389
 2256TIP3   OH2 6731   5.938   5.913   2.284 -0.0763  0.4680  0.3276
 2256TIP3    H1 6732   5.918   5.825   2.252  1.3141 -0.1841  1.1389
 2256TIP3    H2 6733   5.913   5.912   2.376  0.7508  0.6222  0.5630
 2257TIP3   OH2 6734   0.973   0.559   2.081 -0.5012 -0.0943  0.1506
 2257TIP3    H1 6735   1.017   0.482   2.045 -2.3804 -0.2322 -2.0575
 2257TIP3    H2 6736   1.018   0.575   2.164  1.3902 -2.2295 -0.3519
 2258TIP3   OH2 6737   0.763   4.798   4.402  0.1428 -0.4569 -0.1843
 2258TIP3    H1 6738   0.805   4.803   4.316  1.1327 -0.9195  0.2580
 2258TIP3    H2 6739   0.775   4.885   4.440  0.0248 -0.3608 -0.3681
 2259TIP3   OH2 6740   1.173   5.899   5.587 -0.2150  0.3089 -0.5429
 2259TIP3    H1 6741   1.242   5.948   5.543 -0.0656  0.1151 -0.5276
 2259TIP3    H2 6742   1.133   5.962   5.647 -0.2864  0.5187 -0.8096
 2260TIP3   OH2 6743   5.173   3.801   3.479  0.5450  0.1516 -0.0682
 2260TIP3    H1 6744   5.188   3.873   3.540 -0.4565 -0.0244  0.3991
 2260TIP3    H2 6745   5.254   3.796   3.428  1.0135  0.9418  0.5741
 2261TIP3   OH2 6746   1.594   1.571   3.440 -0.0045 -0.0394 -0.4051
 2261TIP3    H1 6747   1.649   1.649   3.446  0.5026 -0.3921 -0.2806
 2261TIP3    H2 6748   1.542   1.583   3.361  0.1240  0.3860 -0.4261
 2262TIP3   OH2 6749   4.438   5.012   5.075 -0.5060 -0.3855 -0.0064
 2262TIP3    H1 6750   4.496   5.070   5.124  0.2859  0.6126 -1.9950
 2262TIP3    H2 6751   4.351   5.027   5.111  0.0589  0.2312  1.1258
 2263TIP3   OH2 6752   4.674   5.063   5.221  0.0952  1.0215 -0.0839
 2263TIP3    H1 6753   4.729   5.134   5.253 -1.2836  1.8761  0.4500
 2263TIP3    H2 6754   4.670   5.001   5.294  0.0384  1.1356  0.0098
 2264TIP3   OH2 6755   6.204   4.052   4.237  0.5460  0.0309  0.4471
 2264TIP3    H1 6756   6.174   4.141   4.221  0.5431 -0.2516 -1.3630
 2264TIP3    H2 6757   6.223   4.049   4.331 -0.8359  1.5018  0.8139
 2265TIP3   OH2 6758   3.266   2.958   0.287 -0.5084 -0.1285  0.2080
 2265TIP3    H1 6759   3.270   3.029   0.222  1.9466  0.0148  0.4008
 2265TIP3    H2 6760   3.188   2.977   0.339 -0.7157  1.6160 -0.6481
 2266TIP3   OH2 6761   6.146   2.732   0.762 -0.4234  0.2246 -0.2022
 2266TIP3    H1 6762   6.143   2.759   0.854 -0.2706  0.9130 -0.3915
 2266TIP3    H2 6763   6.131   2.813   0.713 -1.2986 -0.2774 -0.7749
 2267TIP3   OH2 6764   3.968   6.137   2.448 -0.0759 -0.0062  0.2116
 2267TIP3    H1 6765   3.962   6.232   2.438  1.5935  0.1108  0.1372
 2267TIP3    H2 6766   3.890   6.114   2.499 -1.2039  1.2147 -0.8839
 2268TIP3   OH2 6767   5.374   5.165   5.282  0.0132 -0.2998 -0.3829
 2268TIP3    H1 6768   5.292   5.183   5.327  0.0788 -0.3050 -0.2604
 2268TIP3    H2 6769   5.374   5.070   5.268 -0.8615 -0.1020 -2.0452
 2269TIP3   OH2 6770   2.684   3.455   4.577  0.1487 -0.1325  0.2709
 2269TIP3    H1 6771   2.703   3.479   4.486  1.5612 -1.5855  0.1396
 2269TIP3    H2 6772   2.754   3.497   4.627 -1.2241  1.5671  0.8795
 2270TIP3   OH2 6773   5.112   2.980   4.878 -0.1030  0.1075 -0.3671
 2270TIP3    H1 6774   5.038   3.034   4.850 -0.2636 -0.1691 -0.4811
 2270TIP3    H2 6775   5.170   2.977   4.802  1.0849  2.0974  0.3955
 2271TIP3   OH2 6776   4.920   1.181   3.644 -0.3677 -0.3376 -0.1898
 2271TIP3    H1 6777   4.897   1.272   3.626  0.8181 -0.3772 -2.1258
 2271TIP3    H2 6778   4.839   1.132   3.624 -1.4469  0.3489  2.1803
 2272TIP3   OH2 6779   0.494   0.897   0.919 -0.4931  0.1989 -0.9772
 2272TIP3    H1 6780   0.574   0.949   0.932 -0.6606  0.3265 -0.4294
 2272TIP3    H2 6781   0.511   0.847   0.839  0.3958 -0.2491 -0.5257
 2273TIP3   OH2 6782   0.268   4.107   4.171 -0.1892  0.1715 -0.1274
 2273TIP3    H1 6783   0.215   4.108   4.251  0.5353 -1.2616  0.4063
 2273TIP3    H2 6784   0.205   4.093   4.100 -0.8452  1.5286  0.1636
 2274TIP3   OH2 6785   3.855   0.378   3.747 -0.4752  0.4531 -0.4217
 2274TIP3    H1 6786   3.933   0.333   3.780  0.5868  1.7808 -1.0221
 2274TIP3    H2 6787   3.783   0.339   3.795  0.4836 -1.2628 -0.2850
 2275TIP3   OH2 6788   3.222   1.498   1.908  0.1497  0.7784 -0.1426
 2275TIP3    H1 6789   3.230   1.404   1.924 -0.4746  1.2305  3.8188
 2275TIP3    H2 6790   3.131   1.510   1.881 -0.6376  0.4543  2.1803
 2276TIP3   OH2 6791   2.894   0.210   5.007  0.2368 -0.0062 -0.0012
 2276TIP3    H1 6792   2.970   0.157   4.986 -1.3099 -2.1751 -0.4151
 2276TIP3    H2 6793   2.842   0.211   4.926 -0.1864  1.4954  0.2463
 2277TIP3   OH2 6794   1.975   0.704   1.005  0.4846 -0.2431 -0.4660
 2277TIP3    H1 6795   1.971   0.609   1.013 -0.5643 -0.1384  0.5366
 2277TIP3    H2 6796   1.962   0.721   0.912 -0.9743 -1.0275 -0.4373
 2278TIP3   OH2 6797   6.333   5.966   3.583  0.0902  0.2814  0.6230
 2278TIP3    H1 6798   6.350   6.047   3.631 -1.5659  0.3923  1.0937
 2278TIP3    H2 6799   6.262   5.989   3.523  0.9808 -0.3079 -0.7210
 2279TIP3   OH2 6800   2.938   6.160   3.357 -0.2534 -0.4467  0.2997
 2279TIP3    H1 6801   2.860   6.195   3.400 -0.3893 -0.9366  0.4598
 2279TIP3    H2 6802   2.920   6.170   3.264 -0.9570 -1.4816  0.3061
 2280TIP3   OH2 6803   2.663   4.666   5.670 -0.3301 -0.3817  0.6598
 2280TIP3    H1 6804   2.574   4.646   5.639  0.2112 -0.0487 -1.2164
 2280TIP3    H2 6805   2.705   4.708   5.595  1.1070  0.3784  1.8590
 2281TIP3   OH2 6806   4.653   0.689   5.185 -0.3337 -0.3968  0.1547
 2281TIP3    H1 6807   4.749   0.686   5.191 -0.1959  0.5837 -1.1634
 2281TIP3    H2 6808   4.625   0.600   5.209  1.0318 -1.2412 -1.2273
 2282TIP3   OH2 6809   4.153   2.928   0.159  0.4688  0.4338  0.3739
 2282TIP3    H1 6810   4.088   2.859   0.175  0.2041  0.8010  0.9223
 2282TIP3    H2 6811   4.102   3.009   0.161  0.8419  0.6774  0.1256
 2283TIP3   OH2 6812   1.789   1.094   2.238 -0.2568 -0.5970 -0.4512
 2283TIP3    H1 6813   1.716   1.040   2.209 -0.9780  0.4208 -0.5873
 2283TIP3    H2 6814   1.802   1.158   2.168  0.2119 -0.2370 -0.0458
 2284TIP3   OH2 6815   5.295   5.899   1.058  0.1527 -0.3945 -0.5156
 2284TIP3    H1 6816   5.220   5.877   1.113  0.2658  0.2720 -0.0762
 2284TIP3    H2 6817   5.313   5.819   1.008 -0.2161 -0.8782  0.1079
 2285TIP3   OH2 6818   0.721   3.665   5.237  0.0773  0.8839  0.6539
 2285TIP3    H1 6819   0.717   3.619   5.153 -0.7373 -1.4960  1.9038
 2285TIP3    H2 6820   0.814   3.670   5.258  0.2436  0.8302 -0.0594
 2286TIP3   OH2 6821   1.385   0.783   1.319 -0.7812 -0.3202 -0.0114
 2286TIP3    H1 6822   1.418   0.869   1.291  1.2157 -1.5342 -1.7262
 2286TIP3    H2 6823   1.303   0.773   1.272 -0.4395  0.1817 -0.7424
 2287TIP3   OH2 6824   5.411   0.922   2.822 -0.5975  0.2374  0.4000
 2287TIP3    H1 6825   5.387   0.843   2.772  0.4168  0.1845 -0.0146
 2287TIP3    H2 6826   5.395   0.898   2.913 -0.0646 -0.5448  0.2990
 2288TIP3   OH2 6827   1.178  -0.008   5.240  0.3600  0.2643  0.4960
 2288TIP3    H1 6828   1.229   0.067   5.211  1.0648 -0.3573  0.0785
 2288TIP3    H2 6829   1.098  -0.004   5.188  0.4250  0.6813  0.4242
 2289TIP3   OH2 6830   5.585   5.565   5.411 -0.3807  0.3358 -0.1700
 2289TIP3    H1 6831   5.606   5.642   5.359 -0.4292 -0.8189 -1.9763
 2289TIP3    H2 6832   5.585   5.492   5.348 -2.6902 -0.7964  1.0116
 2290TIP3   OH2 6833   0.569   6.299   0.167 -0.0866 -0.0869 -0.1176
 2290TIP3    H1 6834   0.484   6.309   0.124  0.0912  0.5339 -0.3455
 2290TIP3    H2 6835   0.633   6.304   0.096  0.1944  0.6460  0.1695
 2291TIP3   OH2 6836   3.253   0.925   3.248  0.0295 -0.0219 -0.7972
 2291TIP3    H1 6837   3.205   0.910   3.330 -1.0089 -0.1307 -1.4001
 2291TIP3    H2 6838   3.341   0.950   3.276 -0.0421 -0.9445  0.3385
 2292TIP3   OH2 6839   3.099   5.412   3.934  0.0474  0.5799 -0.4288
 2292TIP3    H1 6840   3.093   5.447   4.023  1.3380  0.6457 -0.3375
 2292TIP3    H2 6841   3.009   5.394   3.909 -0.3350  0.4268  0.9459
 2293TIP3   OH2 6842   4.815   1.914   4.939  0.1031 -0.0138  0.4436
 2293TIP3    H1 6843   4.760   1.991   4.949  1.1038  0.8247 -0.2567
 2293TIP3    H2 6844   4.848   1.895   5.027 -0.3932  0.1703  0.6670
 2294TIP3   OH2 6845   5.338   6.520   0.536 -0.1622 -0.2809  0.4372
 2294TIP3    H1 6846   5.302   6.576   0.604 -0.7310 -0.2159  0.0844
 2294TIP3    H2 6847   5.266   6.461   0.513 -0.1254  0.0125 -0.4462
 2295TIP3   OH2 6848   2.179   0.088   0.061  0.7508  0.3440 -0.2666
 2295TIP3    H1 6849   2.190   0.023  -0.009 -1.3933  1.8109 -2.1043
 2295TIP3    H2 6850   2.175   0.036   0.141  0.8739 -1.6167 -1.4644
 2296TIP3   OH2 6851   6.834   1.400   5.318  0.0062 -0.6228 -0.0971
 2296TIP3    H1 6852   6.892   1.357   5.256  2.3615 -1.0815  2.2439
 2296TIP3    H2 6853   6.851   1.494   5.305  1.5720 -0.7547  0.7373
 2297TIP3   OH2 6854   1.208   1.857   0.566  0.3482 -0.1099 -0.0500
 2297TIP3    H1 6855   1.290   1.808   0.575 -0.1496 -1.1471 -0.9318
 2297TIP3    H2 6856   1.211   1.892   0.477 -0.0491  0.0644  0.0034
 2298TIP3   OH2 6857   7.190   4.900   0.548 -0.2675  0.1165 -0.4795
 2298TIP3    H1 6858   7.109   4.940   0.577 -1.2847 -1.3388 -1.2032
 2298TIP3    H2 6859   7.219   4.954   0.474 -0.5928  0.6160 -0.2395
 2299TIP3   OH2 6860   5.042   0.701   1.800  0.1201  0.0069  0.1972
 2299TIP3    H1 6861   4.966   0.759   1.803  0.3525  0.3740 -0.6638
 2299TIP3    H2 6862   5.109   0.745   1.853  0.9741  1.5741 -2.0177
 2300TIP3   OH2 6863   1.876   0.087   5.618 -0.2668  0.7779  0.9151
 2300TIP3    H1 6864   1.833   0.057   5.538  0.7641 -1.0841  1.0148
 2300TIP3    H2 6865   1.811   0.071   5.687 -0.0071 -0.6628  0.8647
 2301TIP3   OH2 6866  -0.015   4.152   5.160  0.0321 -0.6699 -0.3400
 2301TIP3    H1 6867   0.071   4.113   5.175 -0.1653 -2.1771 -2.5499
 2301TIP3    H2 6868   0.003   4.241   5.130  0.6620 -0.0945  1.6488
 2302TIP3   OH2 6869   2.688   3.556   3.852  0.6938  0.6858 -0.1577
 2302TIP3    H1 6870   2.727   3.524   3.933 -1.2502  0.1825  0.6498
 2302TIP3    H2 6871   2.762   3.588   3.801  2.0178  0.7507  1.6779
 2303TIP3   OH2 6872   5.713   4.948   0.367  0.4928  0.5919  0.0545
 2303TIP3    H1 6873   5.719   4.962   0.462  0.8665 -0.7627  0.2472
 2303TIP3    H2 6874   5.633   4.995   0.341  1.7409  3.1645  0.5782
 2304TIP3   OH2 6875   2.071   5.846   0.461  0.1443 -0.1881  0.0126
 2304TIP3    H1 6876   2.005   5.779   0.478 -1.2376  0.6492 -1.7070
 2304TIP3    H2 6877   2.100   5.829   0.371  1.3805  0.2168  0.3148
 2305TIP3   OH2 6878   4.174   3.836   1.320 -0.2032  0.4100  0.5441
 2305TIP3    H1 6879   4.235   3.884   1.377  0.7987 -0.3553  0.1516
 2305TIP3    H2 6880   4.216   3.751   1.307 -0.4774  0.5055 -1.1924
 2306TIP3   OH2 6881   1.056   0.180   4.271 -0.1866  0.2136  0.4960
 2306TIP3    H1 6882   1.111   0.189   4.349 -0.8693  2.1408  0.7921
 2306TIP3    H2 6883   1.052   0.269   4.234 -1.2324 -0.3488 -0.8132
 2307TIP3   OH2 6884   3.925   3.603   1.758  0.2832  0.3063  0.0589
 2307TIP3    H1 6885   3.853   3.542   1.742 -0.8661  1.6394 -0.0529
 2307TIP3    H2 6886   3.971   3.608   1.675  1.1950 -1.3744  0.4263
 2308TIP3   OH2 6887   0.112   2.638   3.984 -0.2504  0.5482 -0.1731
 2308TIP3    H1 6888   0.107   2.713   3.924 -1.4799  0.7936  0.2114
 2308TIP3    H2 6889   0.203   2.637   4.013  0.3995  0.4239 -2.0277
 2309TIP3   OH2 6890   0.157   2.315   5.852  0.8852 -0.7449  0.2011
 2309TIP3    H1 6891   0.121   2.402   5.835 -1.4165 -1.7455 -0.3501
 2309TIP3    H2 6892   0.250   2.324   5.832  0.2440  0.9185 -2.6293
 2310TIP3   OH2 6893   0.408   3.966   2.047  0.1921 -0.3156  0.1318
 2310TIP3    H1 6894   0.400   3.958   2.142 -1.0269  1.3812  0.2169
 2310TIP3    H2 6895   0.331   3.923   2.012 -1.9108  3.0056  0.2195
 2311TIP3   OH2 6896   5.865   0.386   3.954  0.9705  0.8620 -0.0537
 2311TIP3    H1 6897   5.877   0.472   3.992  0.5594  0.1238  1.8438
 2311TIP3    H2 6898   5.772   0.367   3.966  0.5272  1.0443 -2.5362
 2312TIP3   OH2 6899   6.827   0.792   4.871  0.2169  0.2724 -0.0252
 2312TIP3    H1 6900   6.745   0.778   4.918  1.4198 -2.4052  1.5538
 2312TIP3    H2 6901   6.873   0.858   4.923  0.0490 -0.0157  0.5001
 2313TIP3   OH2 6902   3.853   4.002   2.316 -0.0521  0.0499 -0.1590
 2313TIP3    H1 6903   3.916   3.986   2.246 -0.0385 -1.5191  0.1814
 2313TIP3    H2 6904   3.830   4.094   2.306  1.4846  0.3832 -0.9435
 2314TIP3   OH2 6905   3.209   0.200   0.209  0.4902 -0.1931  0.6490
 2314TIP3    H1 6906   3.282   0.244   0.165 -0.3030  1.0080  0.4769
 2314TIP3    H2 6907   3.222   0.220   0.302 -0.2579  1.0777  0.5089
 2315TIP3   OH2 6908   7.027   4.044   4.812 -0.1222 -0.6453 -0.2538
 2315TIP3    H1 6909   7.098   4.091   4.856 -0.9783  1.2518 -0.7953
 2315TIP3    H2 6910   7.050   3.952   4.823  2.0216 -0.1263  0.2443
 2316TIP3   OH2 6911   4.591   6.423   3.749  0.2824  0.1709  0.4040
 2316TIP3    H1 6912   4.589   6.505   3.799 -1.4970  0.0325  0.6096
 2316TIP3    H2 6913   4.654   6.439   3.680  1.8219  0.8432  1.8827
 2317TIP3   OH2 6914   4.940   3.566   4.215 -0.4088 -0.0301  0.4867
 2317TIP3    H1 6915   4.907   3.490   4.167 -1.4674  0.7868 -0.1161
 2317TIP3    H2 6916   4.904   3.556   4.303 -0.3097 -0.3754  0.4886
 2318TIP3   OH2 6917   1.070   2.587   2.741 -0.5329  0.0479 -0.2580
 2318TIP3    H1 6918   1.033   2.501   2.762 -3.1993  1.1080 -0.1984
 2318TIP3    H2 6919   1.108   2.618   2.823 -1.3713 -0.2597  0.2659
 2319TIP3   OH2 6920   1.771   3.425   3.466  0.9832 -0.0568  0.0981
 2319TIP3    H1 6921   1.719   3.353   3.504  1.0718 -0.5623 -0.7154
 2319TIP3    H2 6922   1.854   3.422   3.514  0.9499 -0.4357  0.1394
 2320TIP3   OH2 6923   3.263   1.013   4.412  0.1673  0.1529 -0.3470
 2320TIP3    H1 6924   3.224   1.084   4.361  0.2444 -0.7974 -1.7565
 2320TIP3    H2 6925   3.350   1.046   4.437 -0.1096  0.8564 -0.2952
 2321TIP3   OH2 6926   0.257   4.151   3.587 -0.4430 -0.5800  0.4756
 2321TIP3    H1 6927   0.185   4.196   3.630 -0.8113 -0.0751 -0.6354
 2321TIP3    H2 6928   0.322   4.137   3.656 -0.6730  0.9295  1.0266
 2322TIP3   OH2 6929   4.016   5.429   0.088  0.0102  0.1466 -0.4425
 2322TIP3    H1 6930   4.105   5.408   0.114 -0.1311 -0.1832 -0.2259
 2322TIP3    H2 6931   4.011   5.405  -0.004  0.0470 -0.1429 -0.3676
 2323TIP3   OH2 6932   4.073   5.665   3.869 -1.0506  0.2215 -0.4154
 2323TIP3    H1 6933   4.158   5.697   3.840 -1.9037  2.5441 -0.5129
 2323TIP3    H2 6934   4.074   5.677   3.964 -0.7012 -1.3271 -0.1824
 2324TIP3   OH2 6935   6.590   2.075   4.316 -0.1010  0.8023 -0.1296
 2324TIP3    H1 6936   6.540   2.032   4.246  0.1612 -0.5998  0.5147
 2324TIP3    H2 6937   6.672   2.026   4.321 -0.7096 -0.0964  2.1182
 2325TIP3   OH2 6938   6.871   1.400   2.593  0.0941  0.0027  0.0493
 2325TIP3    H1 6939   6.944   1.461   2.578  0.0502 -0.3529 -1.8656
 2325TIP3    H2 6940   6.902   1.316   2.558 -1.4715  0.0298 -1.5540
 2326TIP3   OH2 6941   3.455   4.134   5.284 -0.4538  0.1088 -0.0135
 2326TIP3    H1 6942   3.543   4.159   5.311 -0.6436 -0.7595  1.5333
 2326TIP3    H2 6943   3.400   4.208   5.310 -0.5211 -0.4016  1.3823
 2327TIP3   OH2 6944   1.475   0.479   1.559 -0.5653 -0.0080  0.5807
 2327TIP3    H1 6945   1.551   0.445   1.511 -1.1586 -2.0022  0.9889
 2327TIP3    H2 6946   1.513   0.541   1.621  0.4684  0.7764 -0.7730
 2328TIP3   OH2 6947   5.923   3.935   2.233 -0.0277 -0.9463 -0.1585
 2328TIP3    H1 6948   5.843   3.983   2.255  0.5557 -1.1137  2.5928
 2328TIP3    H2 6949   5.977   3.998   2.186 -0.7399 -0.0496  0.1981
 2329TIP3   OH2 6950   6.347   0.435   3.138 -0.0652  0.0427  0.6550
 2329TIP3    H1 6951   6.385   0.523   3.138 -0.1136  0.1172 -1.5271
 2329TIP3    H2 6952   6.391   0.390   3.210  0.8116  1.4803  1.0670
 2330TIP3   OH2 6953   4.161   4.559   5.529 -0.0299  0.2029  0.2395
 2330TIP3    H1 6954   4.160   4.594   5.440 -0.6553  0.5015  0.3625
 2330TIP3    H2 6955   4.081   4.593   5.570  0.8297  1.0119  1.2924
 2331TIP3   OH2 6956   3.203   3.645   1.312 -0.3012  0.0708  0.7761
 2331TIP3    H1 6957   3.126   3.632   1.368  0.4672  0.9049  2.0808
 2331TIP3    H2 6958   3.272   3.674   1.372  0.0625  2.9753 -0.8437
 2332TIP3   OH2 6959   2.481   2.077   2.142 -0.5509  0.1755 -0.1102
 2332TIP3    H1 6960   2.514   2.158   2.102  0.1270 -0.3980 -0.7378
 2332TIP3    H2 6961   2.414   2.106   2.204  0.6718  1.3311  0.7243
 2333TIP3   OH2 6962   6.673   6.331   4.221 -0.3361  0.3241 -0.0793
 2333TIP3    H1 6963   6.636   6.243   4.235  0.1602  0.4665  2.5044
 2333TIP3    H2 6964   6.598   6.383   4.191 -0.8266 -0.7665 -0.8273
 2334TIP3   OH2 6965   2.268   5.889   4.682 -0.0587 -0.8624 -0.1789
 2334TIP3    H1 6966   2.270   5.848   4.596  0.9249 -1.9353  0.3289
 2334TIP3    H2 6967   2.200   5.841   4.730 -0.4138 -0.4509 -0.2680
 2335TIP3   OH2 6968   3.269   3.938   2.908 -0.1573  0.1948 -0.0337
 2335TIP3    H1 6969   3.206   4.009   2.904  0.0298  0.4624  1.3250
 2335TIP3    H2 6970   3.224   3.864   2.867 -0.6136  0.8861 -0.8175
 2336TIP3   OH2 6971   3.268   5.802   1.722 -0.4678 -0.6267 -0.1791
 2336TIP3    H1 6972   3.310   5.887   1.735  3.6210 -2.5116  0.6213
 2336TIP3    H2 6973   3.204   5.795   1.793  0.3869  1.0773  0.8151
 2337TIP3   OH2 6974   5.710   0.458   0.565  0.1607 -0.4155  0.8437
 2337TIP3    H1 6975   5.631   0.475   0.617  0.3314 -0.7821  1.2276
 2337TIP3    H2 6976   5.691   0.375   0.520  0.3666 -0.5558  1.0158
 2338TIP3   OH2 6977   4.090   3.517   1.478  0.1620 -0.4059  0.5905
 2338TIP3    H1 6978   4.154   3.559   1.421 -2.2532  1.9999 -0.5589
 2338TIP3    H2 6979   4.050   3.449   1.423  0.7767 -0.9846  0.8553
 2339TIP3   OH2 6980   2.209   5.788   0.972  0.1329  0.4505 -0.4848
 2339TIP3    H1 6981   2.217   5.755   0.882 -1.3938 -0.1241 -0.4421
 2339TIP3    H2 6982   2.231   5.713   1.027  2.6444  1.2130 -0.3006
 2340TIP3   OH2 6983   6.010   3.221   2.588  0.7139  0.4142  0.4896
 2340TIP3    H1 6984   5.932   3.246   2.636  0.8540  0.8230  0.5059
 2340TIP3    H2 6985   5.984   3.226   2.496  0.6595  0.3423  0.5010
 2341TIP3   OH2 6986   3.309   1.866   3.677 -0.0362 -0.3184 -0.0467
 2341TIP3    H1 6987   3.330   1.942   3.623  1.8896 -0.3467  0.5866
 2341TIP3    H2 6988   3.279   1.800   3.614  1.7319 -0.2070 -1.0949
 2342TIP3   OH2 6989   4.663   0.902   1.440  0.5159  0.4803  0.3426
 2342TIP3    H1 6990   4.608   0.945   1.374  1.6310  1.1147 -0.2005
 2342TIP3    H2 6991   4.743   0.954   1.443  0.9853 -0.2540  1.3229
 2343TIP3   OH2 6992   1.759   5.430   4.604  0.3219 -0.1544 -0.1551
 2343TIP3    H1 6993   1.820   5.370   4.562  0.8153  0.9491 -1.0842
 2343TIP3    H2 6994   1.673   5.398   4.580  0.4850 -1.8080  1.2775
 2344TIP3   OH2 6995   1.877   0.336   2.128  0.0978 -0.2148 -0.5784
 2344TIP3    H1 6996   1.795   0.370   2.163  1.7228  2.5613  0.8764
 2344TIP3    H2 6997   1.864   0.241   2.127 -2.5542  0.0115  1.0659
 2345TIP3   OH2 6998   3.848   4.536   2.484 -0.1733 -0.0757  0.0295
 2345TIP3    H1 6999   3.833   4.453   2.529  0.5691 -0.8697 -1.1300
 2345TIP3    H2 7000   3.792   4.532   2.407 -0.6038  0.7890  0.2849
 2346TIP3   OH2 7001   2.279   6.722   1.785 -0.2319 -0.3360 -0.1982
 2346TIP3    H1 7002   2.362   6.768   1.798  0.5565 -2.1566  1.8280
 2346TIP3    H2 7003   2.251   6.747   1.697  2.1169  0.8701 -0.6771
 2347TIP3   OH2 7004   1.665   0.489   5.451  0.1466  0.5583  0.4122
 2347TIP3    H1 7005   1.704   0.520   5.533 -0.3916  0.3147  0.7656
 2347TIP3    H2 7006   1.740   0.475   5.393  0.5624  0.3693  0.9845
 2348TIP3   OH2 7007   4.475   5.593   5.194  0.2423  0.6984  0.1467
 2348TIP3    H1 7008   4.424   5.540   5.133  0.0156 -0.2597  1.1259
 2348TIP3    H2 7009   4.451   5.683   5.173 -0.5548  0.3462 -0.5405
 2349TIP3   OH2 7010   4.106   2.786   5.187 -0.6505  0.1254  0.3178
 2349TIP3    H1 7011   4.118   2.856   5.122  0.0032 -1.8394 -1.7907
 2349TIP3    H2 7012   4.195   2.764   5.215 -0.6153 -1.5610 -0.9933
 2350TIP3   OH2 7013   0.176   4.764   0.396 -0.2007 -0.0658  0.0845
 2350TIP3    H1 7014   0.110   4.819   0.439  1.6241  1.9294  0.4891
 2350TIP3    H2 7015   0.195   4.695   0.460  0.1014  0.9684  1.1401
 2351TIP3   OH2 7016   1.500   2.987   2.071 -0.1427  0.0494 -0.4890
 2351TIP3    H1 7017   1.573   3.035   2.110  2.4957 -2.4132 -1.9449
 2351TIP3    H2 7018   1.456   3.050   2.015  1.3683  1.4449 -0.1770
 2352TIP3   OH2 7019   2.934   2.932   1.473 -0.4666 -0.7041  0.5513
 2352TIP3    H1 7020   2.887   2.980   1.541 -0.8675  0.4936 -0.5176
 2352TIP3    H2 7021   2.870   2.869   1.439 -0.2627 -1.3099  1.2669
 2353TIP3   OH2 7022   1.345   2.239   2.378 -0.3765  0.2807 -0.3847
 2353TIP3    H1 7023   1.394   2.274   2.452  1.4859  1.9669 -2.2641
 2353TIP3    H2 7024   1.259   2.282   2.383 -0.3834  0.1364  0.9222
 2354TIP3   OH2 7025   0.924   1.896   1.391  0.6602 -0.4675  0.1031
 2354TIP3    H1 7026   0.887   1.838   1.325 -0.3504 -0.2273  0.4427
 2354TIP3    H2 7027   0.975   1.960   1.342  0.1819 -0.4871 -0.4280
 2355TIP3   OH2 7028   6.289   4.975   1.952 -0.2016  0.2066 -0.2450
 2355TIP3    H1 7029   6.340   5.012   2.023  0.9989  0.1218 -1.0408
 2355TIP3    H2 7030   6.354   4.946   1.888 -1.2010 -1.0394 -0.7333
 2356TIP3   OH2 7031   3.680   3.398   4.224  0.1062 -0.3515 -0.4965
 2356TIP3    H1 7032   3.624   3.400   4.301  2.3252  2.4667  1.2258
 2356TIP3    H2 7033   3.763   3.363   4.256  0.7829 -0.0411 -1.8561
 2357TIP3   OH2 7034   0.406   3.311   1.763 -0.2858 -0.4604  0.2430
 2357TIP3    H1 7035   0.486   3.340   1.806  0.4893  1.3065 -2.1633
 2357TIP3    H2 7036   0.336   3.341   1.820  0.7149  0.7567  0.8836
 2358TIP3   OH2 7037   0.266   5.860   3.433 -0.3536 -0.5293  0.2525
 2358TIP3    H1 7038   0.192   5.900   3.480 -0.5311  0.1652 -0.6068
 2358TIP3    H2 7039   0.227   5.824   3.353  0.2736  0.0294 -0.3081
 2359TIP3   OH2 7040   3.831   2.637   1.254 -0.3126  0.5291  0.5217
 2359TIP3    H1 7041   3.781   2.648   1.334 -1.6440  0.3848 -0.2561
 2359TIP3    H2 7042   3.766   2.643   1.184  0.8015  0.6162 -0.5511
 2360TIP3   OH2 7043   5.805   4.321   3.030  0.4793 -0.0084 -0.8132
 2360TIP3    H1 7044   5.880   4.369   2.997  1.3831 -1.5978 -1.1892
 2360TIP3    H2 7045   5.822   4.230   3.006  0.9645 -1.2705  3.4939
 2361TIP3   OH2 7046   0.366   2.948   2.672  0.3540 -0.4880 -0.3544
 2361TIP3    H1 7047   0.329   2.877   2.620 -0.8697  0.4686 -0.8575
 2361TIP3    H2 7048   0.295   3.013   2.677  1.5072  0.7909 -0.1152
 2362TIP3   OH2 7049   5.822   3.156   5.627  0.5731  0.2274  0.4385
 2362TIP3    H1 7050   5.842   3.067   5.599 -0.9129 -0.3282  1.0582
 2362TIP3    H2 7051   5.894   3.209   5.592  0.7501 -0.9904 -1.1357
 2363TIP3   OH2 7052   6.047   2.709   4.241  0.2681 -0.0229 -0.2233
 2363TIP3    H1 7053   6.043   2.758   4.323 -0.7623  1.0192 -0.8554
 2363TIP3    H2 7054   6.011   2.624   4.261 -1.5089  0.7627  0.0716
 2364TIP3   OH2 7055   2.814   6.538   2.138 -0.0905 -0.5057 -0.4524
 2364TIP3    H1 7056   2.833   6.574   2.224  0.3567  0.7928 -1.0622
 2364TIP3    H2 7057   2.887   6.568   2.083 -0.8709 -0.4453 -1.4979
 2365TIP3   OH2 7058   6.174   4.418   5.218  0.1153  0.0210 -0.8481
 2365TIP3    H1 7059   6.234   4.455   5.283  0.6625  1.2111 -1.9902
 2365TIP3    H2 7060   6.226   4.353   5.171  0.1001  0.0762 -0.9408
 2366TIP3   OH2 7061   7.053   0.939   3.993  0.2383 -0.1377 -0.3119
 2366TIP3    H1 7062   7.023   0.917   3.905 -2.5905  0.3479  0.4344
 2366TIP3    H2 7063   7.054   1.034   3.995  2.4675 -0.0903 -0.4059
 2367TIP3   OH2 7064   4.038   0.776   2.872 -0.1649  0.8352  0.4406
 2367TIP3    H1 7065   3.963   0.802   2.819 -1.6444 -1.3596  1.3195
 2367TIP3    H2 7066   4.114   0.801   2.820 -1.5264  1.0505 -1.5494
 2368TIP3   OH2 7067   4.947   2.008   2.435  0.2583  0.2118 -0.2639
 2368TIP3    H1 7068   4.982   2.086   2.392  1.0048  0.7436  1.2318
 2368TIP3    H2 7069   4.852   2.015   2.425  0.2873  1.5300  0.1520
 2369TIP3   OH2 7070   4.484   4.341   2.589  0.2821 -0.7032 -0.1688
 2369TIP3    H1 7071   4.470   4.247   2.601  1.6737 -0.9279 -0.0948
 2369TIP3    H2 7072   4.399   4.381   2.608 -0.0681 -1.8576  0.8067
 2370TIP3   OH2 7073   0.039   3.122   2.940  0.1252 -0.1122 -0.0970
 2370TIP3    H1 7074   0.001   3.205   2.971  1.1683  0.3676 -0.0575
 2370TIP3    H2 7075  -0.021   3.055   2.973 -1.5628  0.6742 -1.3525
 2371TIP3   OH2 7076   2.380   4.145   0.668 -0.4344 -0.0149  0.1316
 2371TIP3    H1 7077   2.308   4.196   0.703  0.3741 -0.1397  2.1190
 2371TIP3    H2 7078   2.457   4.201   0.678  0.2055 -0.9764  0.8306
 2372TIP3   OH2 7079   2.948   0.761   1.211 -0.1529  0.5605 -0.1299
 2372TIP3    H1 7080   2.899   0.683   1.236  0.0504  0.4038 -0.2206
 2372TIP3    H2 7081   3.033   0.751   1.254  0.9510 -0.6979 -2.4563
 2373TIP3   OH2 7082   1.497   3.535   3.977  0.1317  0.5123  0.0210
 2373TIP3    H1 7083   1.591   3.549   3.968  0.1470  1.0550  0.8852
 2373TIP3    H2 7084   1.465   3.525   3.887  1.0059  0.3496 -0.2807
 2374TIP3   OH2 7085   6.349   3.487   3.249  0.6486 -0.1254  0.0376
 2374TIP3    H1 7086   6.278   3.440   3.205  0.6644 -0.7315  0.6480
 2374TIP3    H2 7087   6.315   3.505   3.337  0.5655  1.1952 -0.2405
 2375TIP3   OH2 7088   0.530   0.762   0.672  0.4122 -0.1473  0.3597
 2375TIP3    H1 7089   0.577   0.769   0.589 -1.7578 -1.2671 -1.0512
 2375TIP3    H2 7090   0.573   0.690   0.718  1.8235  0.6699  0.3743
 2376TIP3   OH2 7091   0.899   5.539   4.944  0.5554 -0.2947 -0.8889
 2376TIP3    H1 7092   0.900   5.462   4.887 -0.3528  0.6520 -2.2647
 2376TIP3    H2 7093   0.916   5.505   5.031  1.2403 -1.9098 -1.6156
 2377TIP3   OH2 7094   6.730   3.109   5.550 -0.4747  0.0338  0.3446
 2377TIP3    H1 7095   6.691   3.054   5.482 -0.4554 -0.1751  0.5018
 2377TIP3    H2 7096   6.771   3.181   5.502  1.6854 -1.3769 -0.0970
 2378TIP3   OH2 7097   0.660   0.416   3.810 -0.2780 -0.0721 -0.0798
 2378TIP3    H1 7098   0.566   0.413   3.793 -0.7864  0.0942  2.3489
 2378TIP3    H2 7099   0.698   0.350   3.751 -1.7797  0.4958 -1.7332
 2379TIP3   OH2 7100   3.580   4.285   2.027 -0.1982  0.1580  0.0202
 2379TIP3    H1 7101   3.653   4.313   2.084 -0.9598 -2.4331  2.5161
 2379TIP3    H2 7102   3.572   4.355   1.962  2.9459  1.6944  1.0790
 2380TIP3   OH2 7103   0.491   6.053   3.170 -0.5920 -0.2527  0.7082
 2380TIP3    H1 7104   0.544   6.035   3.093 -1.1500 -2.4823  0.7888
 2380TIP3    H2 7105   0.542   6.020   3.244 -1.2429 -0.6654  0.9892
 2381TIP3   OH2 7106   0.342   5.306   2.142  0.1518 -0.6557  0.0594
 2381TIP3    H1 7107   0.427   5.264   2.133 -1.1737 -3.7738  0.7864
 2381TIP3    H2 7108   0.362   5.396   2.167  3.2199 -0.6041 -2.1060
 2382TIP3   OH2 7109   3.490   2.443   3.222  0.3953 -0.5176 -0.1060
 2382TIP3    H1 7110   3.508   2.532   3.192 -1.2308 -0.2902 -0.5033
 2382TIP3    H2 7111   3.530   2.386   3.156  0.7340 -0.0759 -0.2824
 2383TIP3   OH2 7112   4.083   2.743   3.555  0.3208  0.1795 -0.5596
 2383TIP3    H1 7113   4.003   2.784   3.520  0.8366  0.8853 -0.9464
 2383TIP3    H2 7114   4.153   2.775   3.498  0.7017 -1.6747 -1.1993
 2384TIP3   OH2 7115   1.902   0.554   0.148  0.3832 -0.0454 -0.1641
 2384TIP3    H1 7116   1.891   0.558   0.053 -0.4150  1.0540 -0.0419
 2384TIP3    H2 7117   1.816   0.576   0.183  1.1465  1.5586  0.8132
 2385TIP3   OH2 7118   2.412   0.303   3.817 -0.1000 -0.0037 -0.0988
 2385TIP3    H1 7119   2.478   0.324   3.752 -1.3458  1.7291 -0.8866
 2385TIP3    H2 7120   2.341   0.262   3.768  0.3580 -1.9168  0.7455
 2386TIP3   OH2 7121   0.496   1.411   2.470 -0.6414  0.0476  0.4512
 2386TIP3    H1 7122   0.443   1.338   2.439  0.4164 -0.3153 -0.6119
 2386TIP3    H2 7123   0.504   1.397   2.565 -1.9440 -0.1907  0.5325
 2387TIP3   OH2 7124   1.491   3.073   0.224  0.2734 -0.0301 -0.1809
 2387TIP3    H1 7125   1.582   3.105   0.225  0.6463 -0.8436 -2.5252
 2387TIP3    H2 7126   1.440   3.150   0.199  0.5376  0.0250 -0.5662
 2388TIP3   OH2 7127   6.423   3.883   5.854  0.1034 -0.4221  0.5657
 2388TIP3    H1 7128   6.446   3.856   5.766  1.9685 -1.5358  1.3449
 2388TIP3    H2 7129   6.369   3.812   5.888 -1.8382  0.6570 -0.1083
 2389TIP3   OH2 7130   1.849   6.788   0.332 -0.2011  0.5997 -0.0739
 2389TIP3    H1 7131   1.827   6.804   0.241 -3.4961  2.3652  0.8858
 2389TIP3    H2 7132   1.829   6.695   0.345 -0.5256  0.5401 -0.9175
 2390TIP3   OH2 7133   2.625   6.241   2.070  0.4358  0.0649 -0.2278
 2390TIP3    H1 7134   2.625   6.245   2.165 -0.9479  1.4241 -0.2553
 2390TIP3    H2 7135   2.718   6.242   2.046  0.8147 -0.6827  1.0912
 2391TIP3   OH2 7136   3.119   6.465   4.457 -0.2859  0.5884 -0.9691
 2391TIP3    H1 7137   3.155   6.430   4.376  0.4646 -1.1345  0.0599
 2391TIP3    H2 7138   3.117   6.560   4.443  2.0571  0.5539 -2.1478
 2392TIP3   OH2 7139   1.796   5.467   4.223  0.1047  0.2151  0.1407
 2392TIP3    H1 7140   1.736   5.431   4.288 -1.9592  1.3342 -1.0226
 2392TIP3    H2 7141   1.811   5.557   4.252  2.3374 -0.4003  1.1004
 2393TIP3   OH2 7142   5.315   5.665   0.930  0.5042  0.5320 -0.4276
 2393TIP3    H1 7143   5.235   5.671   0.877  0.9449 -0.1832 -1.2014
 2393TIP3    H2 7144   5.301   5.590   0.987  0.8968 -0.0382 -1.0649
 2394TIP3   OH2 7145   6.672   5.989   5.639  0.3918  0.4852 -0.0786
 2394TIP3    H1 7146   6.607   6.031   5.696  0.5181  0.4696  0.0764
 2394TIP3    H2 7147   6.620   5.928   5.586  0.5906 -1.5648  1.9281
 2395TIP3   OH2 7148   3.321   4.161   1.932  0.5372  0.0678  0.1429
 2395TIP3    H1 7149   3.352   4.247   1.960  1.0050  0.2037 -0.7352
 2395TIP3    H2 7150   3.395   4.125   1.882 -0.4772  0.1445 -1.4921
 2396TIP3   OH2 7151   7.060   0.297   5.464 -0.0805 -0.1589 -0.1935
 2396TIP3    H1 7152   6.969   0.314   5.442 -0.0553  1.6472  0.8951
 2396TIP3    H2 7153   7.091   0.379   5.503  1.9148 -0.8409 -0.2283
 2397TIP3   OH2 7154   6.703   2.421   2.104  0.5772 -0.4637  0.8013
 2397TIP3    H1 7155   6.772   2.378   2.154  0.2763 -0.8798  0.8598
 2397TIP3    H2 7156   6.627   2.364   2.113  1.0909 -1.7667 -1.9587
 2398TIP3   OH2 7157   0.170   5.199   2.560 -0.1350 -0.0336 -0.0694
 2398TIP3    H1 7158   0.152   5.192   2.467 -1.4201  0.6022  0.1119
 2398TIP3    H2 7159   0.227   5.276   2.568 -0.1151 -0.0230 -0.3243
 2399TIP3   OH2 7160   5.623   6.057   4.157  0.8884 -0.4659  0.2629
 2399TIP3    H1 7161   5.603   5.965   4.140  0.0343 -0.2685  0.1158
 2399TIP3    H2 7162   5.605   6.070   4.250  2.5778 -0.8134  0.6712
 2400TIP3   OH2 7163   5.148   0.459   0.831  0.3219  0.0374 -0.4067
 2400TIP3    H1 7164   5.148   0.421   0.919 -0.8511 -3.4800 -1.7723
 2400TIP3    H2 7165   5.102   0.542   0.841  0.3460 -0.1829  2.3198
 2401TIP3   OH2 7166   6.828   1.946   4.291 -0.4846 -0.5970  0.3034
 2401TIP3    H1 7167   6.885   1.924   4.364 -0.2132  0.8778  0.5723
 2401TIP3    H2 7168   6.791   1.862   4.263 -0.0799 -1.2689  1.6900
 2402TIP3   OH2 7169   3.996   1.163   4.368 -0.4754  0.3181  0.2754
 2402TIP3    H1 7170   4.011   1.188   4.277 -1.9366 -0.1241 -0.1017
 2402TIP3    H2 7171   3.924   1.219   4.397  0.0577  0.5416  1.2081
 2403TIP3   OH2 7172   6.072   3.241   1.072 -0.1657  0.2233  0.2795
 2403TIP3    H1 7173   6.013   3.317   1.073 -0.1678  0.2652  2.5497
 2403TIP3    H2 7174   6.138   3.261   1.138  1.9045 -0.2583 -1.5209
 2404TIP3   OH2 7175   5.045   1.494   2.294 -0.2957  0.1192 -0.1525
 2404TIP3    H1 7176   5.054   1.587   2.314  3.3896 -0.3425  1.0432
 2404TIP3    H2 7177   5.002   1.457   2.372  1.4741  0.3812  1.0161
 2405TIP3   OH2 7178   1.328   1.519   0.459  0.0601 -0.9294  0.6968
 2405TIP3    H1 7179   1.287   1.584   0.401 -1.1463 -1.1118  1.3094
 2405TIP3    H2 7180   1.392   1.569   0.510  0.1735 -0.5097  0.1509
 2406TIP3   OH2 7181   2.454   1.987   4.995 -0.0956  0.5144 -0.3776
 2406TIP3    H1 7182   2.425   2.076   4.977 -1.9300 -0.4193 -2.6113
 2406TIP3    H2 7183   2.372   1.936   5.002  0.8505 -1.4891 -2.4143
 2407TIP3   OH2 7184   1.201   5.474   2.601 -0.1826  0.0977 -0.4528
 2407TIP3    H1 7185   1.164   5.560   2.584 -0.0293 -0.2901 -3.2153
 2407TIP3    H2 7186   1.126   5.415   2.605 -0.2484  0.2396  0.8793
 2408TIP3   OH2 7187   1.566   4.938   4.321  0.4519 -0.2040 -0.4038
 2408TIP3    H1 7188   1.541   4.970   4.408 -0.5605  2.5246 -1.5932
 2408TIP3    H2 7189   1.641   4.992   4.297  0.7473 -0.9622 -1.2274
 2409TIP3   OH2 7190   1.918   2.821   1.618  0.3803  0.6925  0.0136
 2409TIP3    H1 7191   1.843   2.789   1.567 -0.4598  0.6674  1.2225
 2409TIP3    H2 7192   1.981   2.851   1.552 -0.8314  1.0304 -1.0246
 2410TIP3   OH2 7193   0.271   1.589   1.742  0.0283 -0.1026  0.2928
 2410TIP3    H1 7194   0.303   1.654   1.805 -0.1572  0.0172  0.2650
 2410TIP3    H2 7195   0.178   1.579   1.763 -0.2311  0.5462 -0.4801
 2411TIP3   OH2 7196   0.274   5.554   5.777 -0.7148  0.2965 -0.0801
 2411TIP3    H1 7197   0.285   5.470   5.821 -2.1027  0.0430 -0.1460
 2411TIP3    H2 7198   0.359   5.572   5.737  0.2410 -0.0358  1.6897
 2412TIP3   OH2 7199   2.616   3.481   1.370 -0.1309 -0.0285  0.0558
 2412TIP3    H1 7200   2.556   3.478   1.295  0.6070  0.3587 -0.5660
 2412TIP3    H2 7201   2.694   3.434   1.340  0.6613  1.1896  0.1113
 2413TIP3   OH2 7202   3.033   5.688   3.715  0.1502  0.4090 -0.4041
 2413TIP3    H1 7203   2.992   5.759   3.666 -2.5650 -1.2210 -0.7405
 2413TIP3    H2 7204   3.069   5.730   3.793 -0.2925  2.2816 -1.1473
 2414TIP3   OH2 7205   5.097   3.008   2.531  0.5242  0.1208  0.6872
 2414TIP3    H1 7206   5.027   2.953   2.565  1.9260 -0.7291  2.3298
 2414TIP3    H2 7207   5.051   3.084   2.493 -1.2733 -0.3736  1.7419
 2415TIP3   OH2 7208   0.696   2.601   5.054 -0.0974 -0.3347  0.8322
 2415TIP3    H1 7209   0.602   2.605   5.035  0.2402  0.9283 -0.7933
 2415TIP3    H2 7210   0.734   2.551   4.981  0.4410 -1.3245  1.7674
 2416TIP3   OH2 7211   3.761   5.601   4.607 -0.1532 -0.4060  0.1627
 2416TIP3    H1 7212   3.828   5.535   4.627  0.4974  0.3526  0.5714
 2416TIP3    H2 7213   3.738   5.638   4.693 -1.2212 -0.7593  0.0436
 2417TIP3   OH2 7214   7.176   4.281   5.426 -0.1999 -0.3559  0.0524
 2417TIP3    H1 7215   7.100   4.336   5.443 -0.0199  0.5200 -1.7398
 2417TIP3    H2 7216   7.148   4.224   5.354  0.0131 -1.8493  1.0981
 2418TIP3   OH2 7217   6.735   0.058   0.109  0.1915 -0.2189 -0.0123
 2418TIP3    H1 7218   6.751   0.087   0.199 -0.9094 -1.9433  0.7840
 2418TIP3    H2 7219   6.822   0.033   0.076  0.5062 -0.2579  0.8217
 2419TIP3   OH2 7220   6.310   1.257   3.322  0.1209 -0.0671  0.0597
 2419TIP3    H1 7221   6.324   1.351   3.336 -1.2232  0.2216 -0.3618
 2419TIP3    H2 7222   6.357   1.215   3.394  1.4259  0.8666 -0.2044
 2420TIP3   OH2 7223   5.911   3.399   3.232  0.5922  0.5172  0.1674
 2420TIP3    H1 7224   5.837   3.440   3.278  0.2784  1.4145 -1.0630
 2420TIP3    H2 7225   5.870   3.338   3.172  0.9806 -0.4381  0.8580
 2421TIP3   OH2 7226   6.462   3.182   2.840  0.0517 -0.4413  0.2316
 2421TIP3    H1 7227   6.383   3.194   2.893 -0.5298  1.5382 -0.9704
 2421TIP3    H2 7228   6.436   3.211   2.752  2.3358  1.1925 -0.0070
 2422TIP3   OH2 7229   3.949   2.574   0.999 -0.1137 -0.0845  0.1132
 2422TIP3    H1 7230   3.932   2.588   1.092 -0.8779  0.8240 -0.1586
 2422TIP3    H2 7231   4.027   2.518   0.998  0.5508  0.7817  1.2810
 2423TIP3   OH2 7232   3.728   4.593   1.954  0.0288 -0.2404  0.4988
 2423TIP3    H1 7233   3.714   4.636   2.038  0.8557  0.4440  0.2887
 2423TIP3    H2 7234   3.822   4.593   1.941 -0.0505 -0.8281 -0.1805
 2424TIP3   OH2 7235   0.553   1.563   0.602  0.1312 -0.2520 -0.4428
 2424TIP3    H1 7236   0.485   1.569   0.535 -0.8981 -0.7968  0.5046
 2424TIP3    H2 7237   0.553   1.649   0.644  0.2977 -0.1297 -0.6915
 2425TIP3   OH2 7238   2.236   6.051   1.825 -0.4382  0.6156 -0.5926
 2425TIP3    H1 7239   2.309   6.013   1.874  0.6788  0.9359 -1.9679
 2425TIP3    H2 7240   2.206   5.981   1.767 -1.7155  0.2619  0.4385
 2426TIP3   OH2 7241   3.571   3.243   2.276 -0.3790  0.4065 -0.4127
 2426TIP3    H1 7242   3.480   3.230   2.302  0.2947  0.8333  2.4628
 2426TIP3    H2 7243   3.615   3.161   2.301  0.1224  0.3476 -1.4260
 2427TIP3   OH2 7244   4.606   0.460   1.528 -0.3867 -0.0730  0.4220
 2427TIP3    H1 7245   4.526   0.408   1.522  1.0563 -2.2574 -1.7814
 2427TIP3    H2 7246   4.670   0.413   1.475  2.3353  1.7185  1.8385
 2428TIP3   OH2 7247   2.790   2.331   1.865  0.0744  0.0247  0.3799
 2428TIP3    H1 7248   2.830   2.308   1.949  1.5319 -1.9332 -0.7807
 2428TIP3    H2 7249   2.806   2.425   1.857  0.9770  0.0231  1.7448
 2429TIP3   OH2 7250   1.404   0.083   3.474  0.0777  0.0161 -0.0334
 2429TIP3    H1 7251   1.409   0.003   3.526  3.2552 -0.5604 -1.0020
 2429TIP3    H2 7252   1.386   0.152   3.538 -0.4843 -1.1870  1.1475
 2430TIP3   OH2 7253   4.172   0.980   2.680 -0.3967  0.3503 -0.1314
 2430TIP3    H1 7254   4.084   0.955   2.653 -0.1964 -2.3109  1.3295
 2430TIP3    H2 7255   4.230   0.927   2.626  0.1954 -0.0616  0.8799
 2431TIP3   OH2 7256   2.713   6.085   0.508 -0.3186  0.6085 -0.4591
 2431TIP3    H1 7257   2.769   6.048   0.439 -1.0666  0.4127 -0.9774
 2431TIP3    H2 7258   2.723   6.179   0.499 -0.1339  0.5755 -0.6031
 2432TIP3   OH2 7259   4.458   0.796   2.749 -0.0331 -0.0431 -0.0259
 2432TIP3    H1 7260   4.399   0.821   2.820 -1.6602  1.2252 -1.7100
 2432TIP3    H2 7261   4.406   0.810   2.669  1.7386 -1.3056 -1.4736
 2433TIP3   OH2 7262   0.691   3.122   5.829  0.8193 -0.3587  0.3798
 2433TIP3    H1 7263   0.757   3.053   5.823  0.9980 -0.1503 -0.2773
 2433TIP3    H2 7264   0.705   3.174   5.749 -1.1898 -1.2417 -0.6236
 2434TIP3   OH2 7265   3.527   2.912   0.354 -0.6252 -0.5320 -0.2783
 2434TIP3    H1 7266   3.551   2.941   0.266  0.3553  0.6919  0.3599
 2434TIP3    H2 7267   3.434   2.933   0.361 -0.0870  2.1525 -0.0441
 2435TIP3   OH2 7268   0.663   0.296   2.540 -0.6179  0.0277 -0.4065
 2435TIP3    H1 7269   0.723   0.258   2.605  0.6426  0.8622 -1.0289
 2435TIP3    H2 7270   0.576   0.276   2.573 -0.0163 -1.8347  0.1897
 2436TIP3   OH2 7271   0.711   1.477   2.301  0.2471  0.3072 -0.3712
 2436TIP3    H1 7272   0.756   1.398   2.269 -0.8216  0.0078 -1.1895
 2436TIP3    H2 7273   0.636   1.443   2.350  2.2087  0.7212  3.2577
 2437TIP3   OH2 7274   3.785   3.149   4.906 -0.2779  0.2488  0.2002
 2437TIP3    H1 7275   3.782   3.202   4.985 -2.8609  1.1630 -0.4137
 2437TIP3    H2 7276   3.785   3.058   4.937  0.7748  0.5842  1.2289
 2438TIP3   OH2 7277   2.755   1.161   2.694 -0.2427 -0.1301  0.7556
 2438TIP3    H1 7278   2.779   1.252   2.709  0.6824 -0.2306 -0.0398
 2438TIP3    H2 7279   2.802   1.111   2.761  1.8844 -0.3250 -0.7722
 2439TIP3   OH2 7280   0.326   3.567   0.458 -0.0646 -0.2629 -0.2758
 2439TIP3    H1 7281   0.336   3.502   0.528 -2.1823  0.4340  0.7391
 2439TIP3    H2 7282   0.415   3.580   0.425  0.6029 -2.6707  0.3836
 2440TIP3   OH2 7283   0.097   3.504   1.747 -0.4755  0.3096 -0.0793
 2440TIP3    H1 7284   0.071   3.422   1.788  0.6210 -0.1644 -0.2992
 2440TIP3    H2 7285   0.059   3.572   1.803  0.3461 -0.3194  1.3005
 2441TIP3   OH2 7286   6.751   3.650   2.240  0.5293  0.5957 -0.0600
 2441TIP3    H1 7287   6.769   3.564   2.279  2.0824  1.4202  1.1481
 2441TIP3    H2 7288   6.836   3.678   2.205 -0.2936  0.9913 -1.8354
 2442TIP3   OH2 7289   1.269   4.226   0.800 -0.6001 -0.3849  0.0613
 2442TIP3    H1 7290   1.196   4.282   0.774 -0.9725 -0.4800  0.8740
 2442TIP3    H2 7291   1.344   4.261   0.752 -1.2028 -0.3933 -0.9221
 2443TIP3   OH2 7292   0.504   4.022   0.880 -0.4181  0.0464 -0.3619
 2443TIP3    H1 7293   0.526   3.982   0.964  3.2672 -0.2014 -1.3039
 2443TIP3    H2 7294   0.471   4.109   0.902  0.7330  0.0921  1.3504
 2444TIP3   OH2 7295   0.653   2.547   4.271 -0.4793  0.0805  0.2821
 2444TIP3    H1 7296   0.688   2.529   4.184 -0.8202  1.5020 -0.1768
 2444TIP3    H2 7297   0.614   2.465   4.299  1.2871 -0.9424 -0.0944
 2445TIP3   OH2 7298   3.299   5.222   3.862  0.5970  0.3630  0.0656
 2445TIP3    H1 7299   3.230   5.273   3.904 -1.0401 -2.8351  1.6209
 2445TIP3    H2 7300   3.253   5.156   3.812  2.5976  0.0762 -1.5065
 2446TIP3   OH2 7301   0.753   1.387   3.454 -0.0019  0.3495  0.4571
 2446TIP3    H1 7302   0.771   1.420   3.367  0.9825 -3.8015 -1.1555
 2446TIP3    H2 7303   0.839   1.367   3.491 -0.4259 -2.8667  0.0442
 2447TIP3   OH2 7304   3.777   3.470   4.875 -0.2307  0.1529 -0.4732
 2447TIP3    H1 7305   3.696   3.448   4.921  0.5868 -1.0799  0.4299
 2447TIP3    H2 7306   3.762   3.438   4.786 -0.1925 -1.4904  0.0719
 2448TIP3   OH2 7307   3.067   3.523   2.621 -0.5637  0.2061  0.1173
 2448TIP3    H1 7308   3.041   3.431   2.617 -1.3543  0.4671 -1.6910
 2448TIP3    H2 7309   3.054   3.556   2.532 -0.1561  2.0399  0.6867
 2449TIP3   OH2 7310   1.203   4.384   3.476  0.6809 -0.0317  0.6879
 2449TIP3    H1 7311   1.164   4.472   3.484 -0.1556 -0.3828  0.5773
 2449TIP3    H2 7312   1.215   4.371   3.382  0.0389 -0.3501  0.6420
 2450TIP3   OH2 7313   6.920   2.413   1.052 -0.0681 -0.8107  0.2006
 2450TIP3    H1 7314   6.834   2.455   1.043  0.8428  0.7949 -1.7596
 2450TIP3    H2 7315   6.901   2.319   1.051 -1.7692 -0.5028 -0.7843
 2451TIP3   OH2 7316   5.907   0.927   3.324 -0.1932 -0.3245  0.5625
 2451TIP3    H1 7317   5.864   0.853   3.282 -0.9210  1.1220 -1.3628
 2451TIP3    H2 7318   5.836   0.985   3.350  0.4320  0.7999 -0.1236
 2452TIP3   OH2 7319   5.580   5.418   2.618 -0.0999  0.3134  0.1336
 2452TIP3    H1 7320   5.533   5.347   2.663  2.6063 -1.5991  0.1712
 2452TIP3    H2 7321   5.669   5.413   2.653  1.4761  0.4482 -3.4630
 2453TIP3   OH2 7322   5.316   1.199   3.035  0.0009 -0.6060  0.4188
 2453TIP3    H1 7323   5.277   1.142   2.969 -1.1709 -0.7119  1.1568
 2453TIP3    H2 7324   5.290   1.159   3.118  0.6525  0.0411  0.9415
 2454TIP3   OH2 7325   2.884   1.673   3.475  0.4753 -0.0388 -0.2800
 2454TIP3    H1 7326   2.790   1.692   3.478  0.4225 -0.1410 -1.1347
 2454TIP3    H2 7327   2.912   1.701   3.388  0.8404 -1.7739 -0.7621
 2455TIP3   OH2 7328   7.135   4.577   2.121 -0.0860 -0.1658 -0.4903
 2455TIP3    H1 7329   7.092   4.662   2.127  0.4064  0.0861 -0.4939
 2455TIP3    H2 7330   7.177   4.565   2.207 -2.1044 -1.4825  0.4147
 2456TIP3   OH2 7331   3.199   0.767   1.322  0.1690  0.3526  0.1089
 2456TIP3    H1 7332   3.290   0.767   1.292 -0.4043  0.4703 -1.7321
 2456TIP3    H2 7333   3.178   0.859   1.333  0.6525  0.2845  1.8636
 2457TIP3   OH2 7334   0.700   5.873   3.666 -0.0435  0.0568  0.8869
 2457TIP3    H1 7335   0.733   5.783   3.669 -0.3079 -0.0330  1.1151
 2457TIP3    H2 7336   0.715   5.908   3.753  2.1263  0.9890  0.1929
 2458TIP3   OH2 7337   3.773   0.899   2.435 -0.3362  0.1821 -0.2486
 2458TIP3    H1 7338   3.775   0.805   2.420  1.6206 -0.0721  1.2365
 2458TIP3    H2 7339   3.680   0.923   2.427 -0.9278 -1.9328 -0.1943
 2459TIP3   OH2 7340   1.447   4.193   5.126 -0.1733  0.4735  0.0588
 2459TIP3    H1 7341   1.358   4.198   5.091  0.3699  0.4575 -1.4339
 2459TIP3    H2 7342   1.462   4.100   5.142  1.0321 -0.2583 -4.0332
 2460TIP3   OH2 7343   2.467   5.463   4.219 -0.3015 -0.5162 -0.0396
 2460TIP3    H1 7344   2.394   5.470   4.281 -1.7121 -2.2029 -1.3907
 2460TIP3    H2 7345   2.431   5.412   4.146  1.4537  0.8877 -1.9868
 2461TIP3   OH2 7346   1.217   3.316   2.123 -0.4810 -1.0449 -0.7426
 2461TIP3    H1 7347   1.196   3.351   2.037 -1.3668 -1.4336 -0.7008
 2461TIP3    H2 7348   1.264   3.387   2.167 -3.2685  0.6296 -0.2087
 2462TIP3   OH2 7349   6.875   4.606   5.214  0.4698 -0.0442 -0.4267
 2462TIP3    H1 7350   6.897   4.625   5.123  1.5495  0.5968 -0.0538
 2462TIP3    H2 7351   6.791   4.649   5.229  0.3850  0.0136 -1.0587
 2463TIP3   OH2 7352   2.016   3.464   2.573 -0.5210  0.4847 -0.0861
 2463TIP3    H1 7353   2.110   3.467   2.557 -0.1145  0.5286  1.9360
 2463TIP3    H2 7354   1.989   3.378   2.542  0.7519 -0.6300  1.7144
 2464TIP3   OH2 7355   5.223   0.176   4.129 -0.2197 -0.7942 -0.2056
 2464TIP3    H1 7356   5.235   0.129   4.212 -0.0951  1.0985  0.8867
 2464TIP3    H2 7357   5.144   0.137   4.091 -0.1428 -1.8622  0.6606
 2465TIP3   OH2 7358   6.311   3.850   2.212  0.2527  0.2006 -0.4802
 2465TIP3    H1 7359   6.260   3.771   2.191  0.1312  0.4115 -1.0160
 2465TIP3    H2 7360   6.402   3.821   2.209  0.1695 -0.3633  1.2617
 2466TIP3   OH2 7361   2.320   0.720   3.829 -0.3979  0.7039  0.2341
 2466TIP3    H1 7362   2.244   0.729   3.771 -0.4413 -1.1929 -0.0698
 2466TIP3    H2 7363   2.395   0.737   3.772 -0.5482  2.5592  0.5301
 2467TIP3   OH2 7364   6.686   4.522   4.738  0.5853 -0.3359 -0.0024
 2467TIP3    H1 7365   6.699   4.599   4.794  1.0980 -0.3686 -0.0736
 2467TIP3    H2 7366   6.685   4.448   4.799 -0.5266 -0.2306  0.1341
 2468TIP3   OH2 7367   4.440   1.444   2.519  0.0704 -0.2768 -0.4663
 2468TIP3    H1 7368   4.411   1.396   2.596 -0.2409 -0.6976 -0.8408
 2468TIP3    H2 7369   4.359   1.480   2.482  0.2598  0.2278 -0.3935
 2469TIP3   OH2 7370   1.087   0.443   4.181  0.1722  0.3429  0.4650
 2469TIP3    H1 7371   1.166   0.405   4.143 -0.3096  1.5945 -2.0215
 2469TIP3    H2 7372   1.115   0.478   4.265  2.6601  2.0432 -0.9491
 2470TIP3   OH2 7373   5.790   2.318   1.940 -0.5798 -0.0964 -0.0098
 2470TIP3    H1 7374   5.799   2.224   1.927  2.2514 -0.0181  0.7634
 2470TIP3    H2 7375   5.843   2.337   2.017  0.3428  2.3700 -1.1508
 2471TIP3   OH2 7376   6.906   1.884   5.127  0.5333 -0.3549  0.6007
 2471TIP3    H1 7377   6.969   1.946   5.090  1.1657 -0.4102  1.5408
 2471TIP3    H2 7378   6.824   1.934   5.134  0.7121 -0.0014  0.2151
 2472TIP3   OH2 7379   0.755   5.917   3.928  0.2082  0.3498 -0.0768
 2472TIP3    H1 7380   0.805   5.979   3.876 -0.2597  0.2073 -0.7030
 2472TIP3    H2 7381   0.777   5.939   4.019  0.7799  0.8052 -0.3200
 2473TIP3   OH2 7382   2.431   3.553   3.747 -0.3292 -0.3791 -0.4377
 2473TIP3    H1 7383   2.514   3.543   3.794 -0.5903  0.2119  0.1704
 2473TIP3    H2 7384   2.457   3.570   3.656  0.3251  1.8442  0.0864
 2474TIP3   OH2 7385   5.796   1.388   1.448 -0.1865 -0.1353 -0.3086
 2474TIP3    H1 7386   5.841   1.315   1.491  1.0563  0.4007 -0.6596
 2474TIP3    H2 7387   5.787   1.454   1.517  0.3763  0.1009 -0.4544
 2475TIP3   OH2 7388   4.434   3.568   3.479  0.2625 -0.3330  0.1626
 2475TIP3    H1 7389   4.367   3.505   3.506  0.4172 -0.3702  0.4693
 2475TIP3    H2 7390   4.402   3.653   3.510  0.4657 -0.3831  0.5159
 2476TIP3   OH2 7391   2.439   4.928   0.341 -0.1389 -0.1572  0.0248
 2476TIP3    H1 7392   2.381   4.883   0.402  0.9080 -1.9814 -0.2529
 2476TIP3    H2 7393   2.501   4.976   0.396 -1.6592  1.5710  0.3237
 2477TIP3   OH2 7394   5.549   1.821   5.657  0.5260 -0.0349 -0.0342
 2477TIP3    H1 7395   5.603   1.843   5.733  0.4804 -0.5242  0.1446
 2477TIP3    H2 7396   5.515   1.734   5.677 -0.0726  0.1357 -0.2883
 2478TIP3   OH2 7397   2.593   6.527   0.221 -0.0906  0.5331 -0.5110
 2478TIP3    H1 7398   2.685   6.508   0.204 -0.0009  1.2350 -0.8707
 2478TIP3    H2 7399   2.594   6.577   0.303 -0.2560 -0.3533  0.0452
 2479TIP3   OH2 7400   0.977   2.017   3.681  0.2448  0.1891  0.1136
 2479TIP3    H1 7401   0.935   1.937   3.710  1.1913 -0.4208 -0.1737
 2479TIP3    H2 7402   1.013   2.056   3.760  0.2380  0.0648  0.1772
 2480TIP3   OH2 7403   2.609   2.795   0.756 -0.5482  0.3286 -0.2753
 2480TIP3    H1 7404   2.631   2.715   0.803  0.6041  0.0928 -1.1756
 2480TIP3    H2 7405   2.561   2.765   0.679 -1.1889  0.6056  0.0087
 2481TIP3   OH2 7406   0.886   6.659   0.776  0.0755  0.0804  0.2575
 2481TIP3    H1 7407   0.804   6.614   0.753 -0.2611 -0.2562  1.9613
 2481TIP3    H2 7408   0.945   6.588   0.804  0.7622  0.3774 -0.4235
 2482TIP3   OH2 7409   4.773   0.233   5.226 -0.1499  0.6395  0.3032
 2482TIP3    H1 7410   4.769   0.261   5.317 -0.5800  2.2228 -0.1810
 2482TIP3    H2 7411   4.691   0.263   5.187 -0.3341 -0.7244 -0.4335
 2483TIP3   OH2 7412   1.419   3.442   3.315 -0.3617  0.1052 -0.3934
 2483TIP3    H1 7413   1.395   3.507   3.381  0.6506 -0.8656  0.9609
 2483TIP3    H2 7414   1.490   3.483   3.266 -0.4667  0.4456 -0.2646
 2484TIP3   OH2 7415   0.600   3.543   5.719 -0.1150  0.8014 -0.4075
 2484TIP3    H1 7416   0.526   3.592   5.754 -1.7671 -0.5264 -1.9020
 2484TIP3    H2 7417   0.599   3.561   5.625 -0.3166 -1.4206 -0.8827
 2485TIP3   OH2 7418   6.177   1.666   0.361  0.2452 -0.5195  0.3268
 2485TIP3    H1 7419   6.092   1.626   0.382  0.6347 -2.2530 -1.1681
 2485TIP3    H2 7420   6.157   1.728   0.290  0.1909 -0.8241  0.0717
 2486TIP3   OH2 7421   6.891   2.291   4.501 -0.0533  0.2690  1.1105
 2486TIP3    H1 7422   6.936   2.263   4.420  0.4073  0.5036  1.2836
 2486TIP3    H2 7423   6.823   2.350   4.471 -0.6346 -0.5389  0.7909
 2487TIP3   OH2 7424   4.920   5.681   5.150  0.0117  0.1622  0.0523
 2487TIP3    H1 7425   4.959   5.594   5.158  1.2830  0.6864 -0.0866
 2487TIP3    H2 7426   4.990   5.741   5.177 -1.5166  1.0627  2.2749
 2488TIP3   OH2 7427   4.057   5.968   1.917 -0.3306 -0.5725 -0.1049
 2488TIP3    H1 7428   3.983   5.929   1.869 -1.3965  0.9712  0.1987
 2488TIP3    H2 7429   4.017   6.007   1.995  0.3478  2.4350 -1.1093
 2489TIP3   OH2 7430   5.580   0.584   1.897  0.5931 -0.4332 -0.1458
 2489TIP3    H1 7431   5.546   0.660   1.944 -0.2538 -0.6528 -0.3916
 2489TIP3    H2 7432   5.590   0.517   1.965  0.1696 -0.4882 -0.1369
 2490TIP3   OH2 7433   4.442   5.589   3.023  0.3193 -0.8100 -0.3164
 2490TIP3    H1 7434   4.379   5.517   3.022 -1.0471  0.2891  0.6477
 2490TIP3    H2 7435   4.396   5.661   2.979  0.6731  0.1704  0.8559
 2491TIP3   OH2 7436   4.266   3.829   5.450 -0.1617 -0.1169  0.2784
 2491TIP3    H1 7437   4.176   3.841   5.420 -0.0256  1.9552  0.5531
 2491TIP3    H2 7438   4.258   3.812   5.544 -0.2514  0.6180  0.4080
 2492TIP3   OH2 7439   3.110   3.924   2.225 -0.0946  0.3013  0.4645
 2492TIP3    H1 7440   3.190   3.882   2.195 -0.1583 -0.0204  0.7423
 2492TIP3    H2 7441   3.054   3.852   2.253 -0.3065  0.5534  0.6932
 2493TIP3   OH2 7442   0.683   3.654   3.270 -0.0391 -0.0633 -0.1862
 2493TIP3    H1 7443   0.681   3.718   3.199 -0.2441  0.4397  0.2693
 2493TIP3    H2 7444   0.634   3.579   3.236 -1.4610  0.7669 -0.0234
 2494TIP3   OH2 7445   1.991   2.629   4.630 -0.2082  0.0318  0.2199
 2494TIP3    H1 7446   1.926   2.570   4.592 -0.3996  0.6613 -0.4437
 2494TIP3    H2 7447   1.984   2.709   4.578  3.6779 -1.0720 -2.3862
 2495TIP3   OH2 7448   5.746   5.599   3.303 -0.3387 -0.5235 -0.3089
 2495TIP3    H1 7449   5.663   5.598   3.351  0.5732 -0.4818  1.3649
 2495TIP3    H2 7450   5.813   5.606   3.372  1.1065 -1.6571 -1.5341
 2496TIP3   OH2 7451   3.094   4.186   0.056 -0.1584 -0.0767  0.6387
 2496TIP3    H1 7452   3.115   4.273   0.023 -2.1793 -0.4025 -1.8830
 2496TIP3    H2 7453   3.041   4.201   0.135 -0.9148  1.0353 -0.0560
 2497TIP3   OH2 7454   1.138   3.332   0.000 -0.0968 -0.0319  0.4050
 2497TIP3    H1 7455   1.108   3.358   0.087 -1.0570 -0.5692  0.2379
 2497TIP3    H2 7456   1.070   3.273  -0.033 -0.2417  0.9207 -1.0957
 2498TIP3   OH2 7457   6.560   0.524   4.860  0.2379 -0.0535 -0.6666
 2498TIP3    H1 7458   6.622   0.451   4.849  0.7246  0.2713 -0.1281
 2498TIP3    H2 7459   6.518   0.507   4.944  1.1605  0.8696  0.0023
 2499TIP3   OH2 7460   2.009   4.976   2.887 -0.3067  0.0434  0.0380
 2499TIP3    H1 7461   2.039   5.020   2.967 -1.6946  0.1489  0.5253
 2499TIP3    H2 7462   2.088   4.936   2.851  0.6321  1.2740  0.6341
 2500TIP3   OH2 7463   7.040   4.920   2.714 -0.0708  0.1338 -0.4246
 2500TIP3    H1 7464   7.020   4.848   2.653 -0.2925  0.6473 -0.9664
 2500TIP3    H2 7465   7.032   4.999   2.661 -1.1239  0.6515  0.4765
 2501TIP3   OH2 7466   0.382   1.119   0.556 -0.0642  0.2602  0.1871
 2501TIP3    H1 7467   0.324   1.044   0.552  2.3537 -1.7731  0.8380
 2501TIP3    H2 7468   0.383   1.144   0.648  1.4453 -0.9322  0.5354
 2502TIP3   OH2 7469   3.567   1.264   2.376  0.0389 -0.4525 -0.3457
 2502TIP3    H1 7470   3.637   1.255   2.311 -1.0099 -0.0019 -1.5694
 2502TIP3    H2 7471   3.512   1.334   2.343  0.6420  1.3231  2.1591
 2503TIP3   OH2 7472   1.744   1.796   3.426 -0.0775 -0.2397  0.7674
 2503TIP3    H1 7473   1.810   1.799   3.357 -0.1463  0.4853  0.7278
 2503TIP3    H2 7474   1.761   1.874   3.479 -1.5951  0.5548  0.1310
 2504TIP3   OH2 7475   3.927   1.508   4.561  0.0097 -0.1478  0.2708
 2504TIP3    H1 7476   3.899   1.516   4.652  1.6710 -0.6573  0.8599
 2504TIP3    H2 7477   3.986   1.582   4.548 -1.3866  0.8311 -0.9087
 2505TIP3   OH2 7478   0.626   3.129   4.456  0.0232  0.1109 -0.0831
 2505TIP3    H1 7479   0.543   3.111   4.500 -0.0954  0.8764  0.0270
 2505TIP3    H2 7480   0.608   3.115   4.363  0.2787 -1.5300  0.0847
 2506TIP3   OH2 7481   5.466   5.365   1.271  0.1844  0.2046 -0.2189
 2506TIP3    H1 7482   5.477   5.451   1.310  1.5685  0.4645 -1.1221
 2506TIP3    H2 7483   5.463   5.381   1.176  2.0900 -0.8391 -0.5052
 2507TIP3   OH2 7484   3.983   2.859   5.431  0.6663  0.6109  0.0208
 2507TIP3    H1 7485   4.007   2.828   5.344 -0.2286 -1.3304  0.4045
 2507TIP3    H2 7486   3.995   2.783   5.488  0.5799  1.6432  1.4825
 2508TIP3   OH2 7487   7.158   2.596   0.559  0.2451  0.1053 -0.5233
 2508TIP3    H1 7488   7.151   2.689   0.536  0.8836 -0.2277 -2.1565
 2508TIP3    H2 7489   7.234   2.592   0.617  0.3164  0.5714 -0.5796
 2509TIP3   OH2 7490   1.925   6.791   4.458 -0.2699 -0.0255 -0.4883
 2509TIP3    H1 7491   1.887   6.865   4.410 -0.1149 -0.0980 -0.7218
 2509TIP3    H2 7492   1.938   6.724   4.391 -2.1454 -0.9533  0.0198
 2510TIP3   OH2 7493   4.331   4.737   4.096 -0.1132 -0.2891  0.2353
 2510TIP3    H1 7494   4.236   4.725   4.099  0.0063 -1.1557  1.5028
 2510TIP3    H2 7495   4.366   4.655   4.130  1.0875  0.1219  0.0272
 2511TIP3   OH2 7496   0.189   0.790   5.063 -0.6086  0.1424  0.4096
 2511TIP3    H1 7497   0.215   0.717   5.118 -0.6982 -0.7355 -0.6746
 2511TIP3    H2 7498   0.266   0.807   5.008 -1.4048 -0.8031 -1.0594
 2512TIP3   OH2 7499   1.326   1.086   5.839 -0.3966 -0.1526  0.2434
 2512TIP3    H1 7500   1.356   1.067   5.928 -0.0620  0.8459  0.3577
 2512TIP3    H2 7501   1.361   1.014   5.786  0.6511  0.0173  0.6794
 2513TIP3   OH2 7502   4.354   6.699   5.757  0.0494 -0.2650  0.3741
 2513TIP3    H1 7503   4.333   6.626   5.816  0.3471 -0.6218  0.0421
 2513TIP3    H2 7504   4.269   6.735   5.733 -0.1388  2.7536  4.4698
 2514TIP3   OH2 7505   1.903   1.109   5.671  0.1889  0.1370 -0.0639
 2514TIP3    H1 7506   1.899   1.204   5.685  0.1352  0.3019 -1.1453
 2514TIP3    H2 7507   1.853   1.072   5.744  0.7991  0.8925  0.7723
 2515TIP3   OH2 7508   6.718   2.695   3.028 -0.1629 -1.0007  0.0782
 2515TIP3    H1 7509   6.665   2.763   2.985 -0.9488 -2.2731 -1.0417
 2515TIP3    H2 7510   6.808   2.716   3.003 -0.2788  0.1964  0.5800
 2516TIP3   OH2 7511   4.664   2.940   5.659 -0.3592  0.2567  1.1348
 2516TIP3    H1 7512   4.730   3.006   5.637 -1.0080  0.1829 -1.3948
 2516TIP3    H2 7513   4.698   2.859   5.621 -2.3710  0.4602 -1.3774
 2517TIP3   OH2 7514   2.834   5.586   5.089 -0.2116 -0.0887 -0.0017
 2517TIP3    H1 7515   2.767   5.640   5.047  0.3554  0.6673  0.0324
 2517TIP3    H2 7516   2.847   5.626   5.175  0.5360  0.0115 -0.1477
 2518TIP3   OH2 7517   4.201   5.289   5.245  0.8741 -0.2348  0.2887
 2518TIP3    H1 7518   4.241   5.294   5.158 -1.9919 -0.0238 -1.1305
 2518TIP3    H2 7519   4.215   5.199   5.273  1.6966 -0.3462 -0.4177
 2519TIP3   OH2 7520   2.263   3.324   3.685 -0.0882 -0.1693 -0.2290
 2519TIP3    H1 7521   2.305   3.402   3.721 -1.7226  1.1014 -0.9597
 2519TIP3    H2 7522   2.335   3.275   3.645  1.1719  0.2538  1.4057
 2520TIP3   OH2 7523   1.461   5.321   5.233  0.5876  0.0123 -0.1963
 2520TIP3    H1 7524   1.414   5.385   5.179 -0.9339 -0.4055  0.6070
 2520TIP3    H2 7525   1.451   5.352   5.322  1.6475 -0.2360  0.0324
 2521TIP3   OH2 7526   2.096   4.668   4.849 -0.4480 -0.0711  0.1260
 2521TIP3    H1 7527   2.025   4.621   4.892 -0.5839  0.3057  0.3230
 2521TIP3    H2 7528   2.055   4.707   4.772 -0.1321 -1.0116 -0.5325
 2522TIP3   OH2 7529   3.706   6.279   4.380 -0.3768 -0.0374 -0.1080
 2522TIP3    H1 7530   3.697   6.184   4.387  1.1530 -0.2032 -0.1518
 2522TIP3    H2 7531   3.679   6.298   4.290 -0.8877 -0.3863 -0.0375
 2523TIP3   OH2 7532   4.751   6.512   2.025  0.3515 -0.1909  0.3508
 2523TIP3    H1 7533   4.666   6.514   2.070 -0.1723 -0.1436 -0.6020
 2523TIP3    H2 7534   4.814   6.490   2.093 -0.6927 -2.4373  0.6851
 2524TIP3   OH2 7535   4.907   4.965   1.115  1.0249 -0.0275  0.0116
 2524TIP3    H1 7536   4.871   5.022   1.048  1.2315  0.9358  0.6904
 2524TIP3    H2 7537   4.871   4.878   1.096  0.8919  0.2791 -1.1772
 2525TIP3   OH2 7538   1.548   1.058   3.462 -0.3016  0.3107  0.0359
 2525TIP3    H1 7539   1.559   1.153   3.459  0.9204  0.2061  0.6264
 2525TIP3    H2 7540   1.612   1.024   3.400  1.3341 -0.2352  1.9355
 2526TIP3   OH2 7541   6.720   3.780   4.206  0.2983  0.6722  0.8901
 2526TIP3    H1 7542   6.739   3.867   4.241 -0.9058  1.0809  0.5549
 2526TIP3    H2 7543   6.790   3.765   4.142  0.5635  1.3511  1.0076
 2527TIP3   OH2 7544   1.565   4.243   0.473  0.1180  0.0667  0.1604
 2527TIP3    H1 7545   1.605   4.252   0.560  0.4388  0.1001  0.0108
 2527TIP3    H2 7546   1.638   4.251   0.412 -0.4131  2.7152 -0.2364
 2528TIP3   OH2 7547   2.830   5.323   5.570 -0.0641  0.5616  0.0790
 2528TIP3    H1 7548   2.803   5.322   5.478  2.3771  0.5383 -0.7175
 2528TIP3    H2 7549   2.752   5.351   5.618 -1.2723  1.0424 -2.0329
 2529TIP3   OH2 7550   0.061   4.242   5.677 -0.0818 -0.8572 -0.1817
 2529TIP3    H1 7551   0.021   4.251   5.591  0.7664  0.7448 -0.4474
 2529TIP3    H2 7552  -0.009   4.209   5.733 -0.9566 -0.8506 -1.2435
 2530TIP3   OH2 7553   4.607   1.782   1.108 -0.3993  0.0596  0.8365
 2530TIP3    H1 7554   4.615   1.745   1.020 -1.1013  0.5885  0.5453
 2530TIP3    H2 7555   4.685   1.836   1.119  0.1311 -0.7027  0.8827
 2531TIP3   OH2 7556   2.697   1.366   5.825 -0.1779  0.4701 -0.2857
 2531TIP3    H1 7557   2.646   1.285   5.815 -0.0021  0.0761  1.6323
 2531TIP3    H2 7558   2.732   1.383   5.737 -0.9895 -1.0031 -0.9427
 2532TIP3   OH2 7559   5.266   0.394   5.150 -0.5306 -0.0442  0.2397
 2532TIP3    H1 7560   5.321   0.433   5.218 -1.6557  0.6391  0.7924
 2532TIP3    H2 7561   5.176   0.418   5.175 -1.0153 -0.3215 -1.1349
 2533TIP3   OH2 7562   4.635   1.927   1.674  0.1716  0.2952 -0.1806
 2533TIP3    H1 7563   4.664   1.836   1.684 -0.6181  0.0966  0.5047
 2533TIP3    H2 7564   4.545   1.926   1.706  0.2602  1.3930  0.1287
 2534TIP3   OH2 7565   6.736   5.360   1.585 -0.1956 -0.5630 -0.1109
 2534TIP3    H1 7566   6.690   5.279   1.604 -1.9063  0.2736 -0.4588
 2534TIP3    H2 7567   6.699   5.424   1.646  0.3787  0.2025 -0.5408
 2535TIP3   OH2 7568   3.474   6.233   0.551  0.2572  0.3873  0.2495
 2535TIP3    H1 7569   3.396   6.227   0.606 -0.5200 -0.9668 -0.9067
 2535TIP3    H2 7570   3.487   6.143   0.520  1.0595  0.9801 -1.2143
 2536TIP3   OH2 7571   0.277   1.065   5.355 -0.5432  0.1932  0.1198
 2536TIP3    H1 7572   0.207   1.018   5.399 -0.5572  0.2446  0.1519
 2536TIP3    H2 7573   0.233   1.135   5.307 -0.5857 -0.2140 -0.4430
 2537TIP3   OH2 7574   4.157   1.575   5.782 -0.1729 -0.5266  0.1178
 2537TIP3    H1 7575   4.218   1.575   5.708 -1.8839  0.4807 -1.3554
 2537TIP3    H2 7576   4.199   1.518   5.847  1.9306 -0.5224 -1.1391
 2538TIP3   OH2 7577   3.814   0.978   2.022 -0.0894  0.4918 -0.1918
 2538TIP3    H1 7578   3.786   0.911   2.085 -0.1590  1.9699  1.4142
 2538TIP3    H2 7579   3.768   0.954   1.941  0.7427 -2.0090 -0.0198
 2539TIP3   OH2 7580   0.492   2.566   2.756  0.0956 -0.0471  0.0815
 2539TIP3    H1 7581   0.512   2.611   2.674  0.8028  0.1910  0.3718
 2539TIP3    H2 7582   0.577   2.557   2.799 -0.3483  0.4505  1.1025
 2540TIP3   OH2 7583   4.332   5.983   3.963 -0.6093  0.0221 -0.7221
 2540TIP3    H1 7584   4.398   6.002   4.030 -0.4518 -1.6618 -0.3588
 2540TIP3    H2 7585   4.325   6.064   3.913 -0.8351  1.3953  1.4005
 2541TIP3   OH2 7586   4.412   2.154   4.819 -0.0495  0.3093  0.3661
 2541TIP3    H1 7587   4.363   2.133   4.740  1.1774  0.0332 -0.3454
 2541TIP3    H2 7588   4.445   2.243   4.804  1.2542 -0.2150 -0.0199
 2542TIP3   OH2 7589   4.618   2.476   0.781 -0.2750 -0.6596  0.3923
 2542TIP3    H1 7590   4.692   2.442   0.830  0.0850 -0.4601 -0.0109
 2542TIP3    H2 7591   4.657   2.521   0.706 -0.7405  0.6435  0.9175
 2543TIP3   OH2 7592   6.779   0.941   3.330  0.7706 -0.3088 -0.3762
 2543TIP3    H1 7593   6.817   0.997   3.398  1.4732  0.3956 -1.3230
 2543TIP3    H2 7594   6.849   0.877   3.311  0.3402 -0.9007  0.0028
 2544TIP3   OH2 7595   5.489   0.642   4.426 -0.3873 -0.4197  0.7477
 2544TIP3    H1 7596   5.512   0.549   4.433  0.3171 -0.3292 -0.1922
 2544TIP3    H2 7597   5.441   0.660   4.507  0.5324 -1.2898  1.5257
 2545TIP3   OH2 7598   2.561   5.856   0.875 -0.0041 -0.6396  0.1257
 2545TIP3    H1 7599   2.532   5.855   0.784  1.0173 -0.6189 -0.2166
 2545TIP3    H2 7600   2.605   5.940   0.885 -0.0600 -0.6673  0.6222
 2546TIP3   OH2 7601   4.336   2.542   5.224  0.2304 -0.3554  0.6097
 2546TIP3    H1 7602   4.421   2.555   5.265 -0.5548  1.3145  1.8727
 2546TIP3    H2 7603   4.343   2.587   5.140  0.0646  1.4546  1.5154
 2547TIP3   OH2 7604   4.170   5.870   1.677 -0.1005 -0.2377  0.0182
 2547TIP3    H1 7605   4.255   5.827   1.685 -0.0569  0.0164  0.9838
 2547TIP3    H2 7606   4.138   5.878   1.766  0.7466  3.4569  0.1524
 2548TIP3   OH2 7607   5.225   2.652   4.516 -0.3439  0.1492 -0.3562
 2548TIP3    H1 7608   5.232   2.623   4.607  0.4401 -2.5967 -1.1784
 2548TIP3    H2 7609   5.135   2.632   4.492 -0.8160  1.6952  0.0078
 2549TIP3   OH2 7610   6.897   5.189   0.753  0.1199  0.4627 -0.4394
 2549TIP3    H1 7611   6.808   5.195   0.788  0.4403  1.1833  0.2852
 2549TIP3    H2 7612   6.888   5.208   0.660 -0.5477  0.0818 -0.4528
 2550TIP3   OH2 7613   0.422   3.440   4.337 -0.2606  0.1537 -0.2353
 2550TIP3    H1 7614   0.343   3.447   4.283 -0.8789 -0.8389  0.5019
 2550TIP3    H2 7615   0.401   3.491   4.416  0.2963  0.8575 -0.5301
 2551TIP3   OH2 7616   2.046   4.018   1.510  0.4995 -0.4726  0.0476
 2551TIP3    H1 7617   1.984   4.080   1.549  0.3868  0.9344 -2.1858
 2551TIP3    H2 7618   1.993   3.941   1.490 -0.0398 -0.1334  0.1449
 2552TIP3   OH2 7619   1.860   5.319   1.836  1.0016  0.1757  0.4125
 2552TIP3    H1 7620   1.797   5.327   1.907 -0.0746 -0.0769 -0.4965
 2552TIP3    H2 7621   1.833   5.385   1.771 -1.0619 -2.7629 -1.9719
 2553TIP3   OH2 7622   6.350   2.778   3.958  0.3489  0.1590  0.3277
 2553TIP3    H1 7623   6.319   2.817   4.040 -1.2298  0.3991 -0.3334
 2553TIP3    H2 7624   6.430   2.826   3.937 -0.7463  2.1053  0.2905
 2554TIP3   OH2 7625   4.474   2.251   2.188  0.6094  0.1525  0.7842
 2554TIP3    H1 7626   4.385   2.280   2.167  0.1657 -1.1784  0.7442
 2554TIP3    H2 7627   4.531   2.312   2.140 -0.2149  1.8963  1.9206
 2555TIP3   OH2 7628   0.551   0.589   4.768 -0.5011 -0.1321  0.2100
 2555TIP3    H1 7629   0.592   0.622   4.848 -0.9116  1.3847 -0.1753
 2555TIP3    H2 7630   0.624   0.582   4.706 -0.5593  1.2344 -0.0552
 2556TIP3   OH2 7631   4.019   6.265   4.696  0.2362 -0.0859  0.0721
 2556TIP3    H1 7632   4.085   6.211   4.739 -0.5838 -0.5660  0.7809
 2556TIP3    H2 7633   3.937   6.216   4.708 -0.6164  1.5144  1.1607
 2557TIP3   OH2 7634   1.503   1.123   4.998 -0.4426 -0.1307  0.6284
 2557TIP3    H1 7635   1.495   1.214   5.027  1.6584 -0.1250  1.3535
 2557TIP3    H2 7636   1.458   1.073   5.067 -0.0534  0.2455  1.1692
 2558TIP3   OH2 7637   2.741   3.200   4.861  0.6751 -0.3975  0.1424
 2558TIP3    H1 7638   2.651   3.193   4.893  0.8901  1.3746  1.2774
 2558TIP3    H2 7639   2.789   3.133   4.910  0.5144  0.6487  1.8097
 2559TIP3   OH2 7640   3.989   3.926   5.391 -0.2045 -0.2674  0.5429
 2559TIP3    H1 7641   3.896   3.946   5.402 -0.1244  0.1322  0.5077
 2559TIP3    H2 7642   3.993   3.871   5.312 -0.4568 -0.6599  0.8024
 2560TIP3   OH2 7643   4.577   0.195   4.340 -0.1594  0.2285 -0.4972
 2560TIP3    H1 7644   4.512   0.140   4.384 -0.2407  1.4783  1.0346
 2560TIP3    H2 7645   4.626   0.236   4.411  0.3329  1.6123 -1.5931
 2561TIP3   OH2 7646   1.086   2.844   4.632 -0.1434  0.4564  0.2944
 2561TIP3    H1 7647   1.066   2.880   4.545 -2.6830  1.5193  1.2306
 2561TIP3    H2 7648   1.069   2.750   4.623 -0.1885  0.5275 -0.4094
 2562TIP3   OH2 7649   6.452   0.692   4.375  0.0486 -0.6277  0.0596
 2562TIP3    H1 7650   6.446   0.666   4.467 -0.1514 -0.8091 -0.0041
 2562TIP3    H2 7651   6.370   0.662   4.336  0.1957 -0.6854 -0.2102
 2563TIP3   OH2 7652   4.464   0.696   1.298  0.1826  0.4355 -0.2293
 2563TIP3    H1 7653   4.395   0.631   1.311  0.1018  0.5433 -0.1125
 2563TIP3    H2 7654   4.440   0.768   1.357  0.4191  0.4535 -0.1530
 2564TIP3   OH2 7655   2.567   0.790   4.414  0.0333 -0.1006  0.1345
 2564TIP3    H1 7656   2.549   0.850   4.342 -2.6385 -0.4704  0.4152
 2564TIP3    H2 7657   2.486   0.787   4.464  1.1270 -1.5117  1.9520
 2565TIP3   OH2 7658   2.168   1.509   2.694  0.0761  0.2117 -0.3213
 2565TIP3    H1 7659   2.246   1.557   2.667  2.3399 -2.4747  1.0145
 2565TIP3    H2 7660   2.102   1.531   2.628  1.5358  3.4707 -0.8742
 2566TIP3   OH2 7661   6.952   3.009   2.664  0.2158  0.1762  0.2295
 2566TIP3    H1 7662   6.924   3.055   2.744 -3.1118 -1.7617  0.3718
 2566TIP3    H2 7663   6.894   2.933   2.659  0.8164 -0.2171 -3.6592
 2567TIP3   OH2 7664   3.712   2.408   2.682 -0.1489 -0.1392  0.7582
 2567TIP3    H1 7665   3.800   2.438   2.659  0.2168  0.1445  2.3810
 2567TIP3    H2 7666   3.727   2.325   2.728 -0.4955  0.9036  2.8830
 2568TIP3   OH2 7667   1.213   4.799   0.586 -0.6506 -0.0884  0.1679
 2568TIP3    H1 7668   1.217   4.732   0.655 -1.5224 -1.1982 -0.8255
 2568TIP3    H2 7669   1.290   4.854   0.602 -0.1542 -1.0659  1.2736
 2569TIP3   OH2 7670   2.815   1.693   0.024  0.3616  0.0617 -0.4596
 2569TIP3    H1 7671   2.842   1.680   0.115 -1.8920 -1.7262  0.0373
 2569TIP3    H2 7672   2.870   1.633  -0.026  0.1986 -0.4601 -0.0200
 2570TIP3   OH2 7673   2.913   5.070   4.127  0.0661 -0.4620  0.6056
 2570TIP3    H1 7674   2.905   4.986   4.083 -3.4870 -0.4859  1.0371
 2570TIP3    H2 7675   2.926   5.048   4.220  0.1999 -0.4985  0.5786
 2571TIP3   OH2 7676   5.113   5.013   1.997 -0.3773  0.3724 -0.4303
 2571TIP3    H1 7677   5.150   5.075   2.060 -1.4366  0.1181  0.4787
 2571TIP3    H2 7678   5.021   5.039   1.988 -0.5952 -0.4698 -0.7846
 2572TIP3   OH2 7679   4.315   5.456   3.773 -0.9541  0.2624 -0.4873
 2572TIP3    H1 7680   4.243   5.415   3.821 -0.0628 -1.1148 -0.2607
 2572TIP3    H2 7681   4.307   5.549   3.791 -1.4700 -0.0800  1.2061
 2573TIP3   OH2 7682   6.746   6.568   3.667 -0.7913  0.0629  0.2056
 2573TIP3    H1 7683   6.755   6.522   3.751  0.7241  1.8504  1.0981
 2573TIP3    H2 7684   6.803   6.520   3.608 -0.5325 -0.2163  0.6737
 2574TIP3   OH2 7685   1.004   0.124   5.796  0.2140 -0.0771 -0.4486
 2574TIP3    H1 7686   0.979   0.175   5.718 -1.2794 -0.1102 -0.0278
 2574TIP3    H2 7687   1.094   0.149   5.814 -0.9061  3.7210  0.7004
 2575TIP3   OH2 7688   3.418   0.412   1.962  1.0415 -0.7618  0.3366
 2575TIP3    H1 7689   3.459   0.475   1.903  0.8393 -0.4793  0.4979
 2575TIP3    H2 7690   3.489   0.385   2.021  1.2400 -1.0337 -0.0228
 2576TIP3   OH2 7691   0.135   1.814   3.495  0.2560 -0.1106 -0.5185
 2576TIP3    H1 7692   0.215   1.862   3.511 -0.5383  1.1351 -0.1472
 2576TIP3    H2 7693   0.080   1.831   3.572 -0.3733 -0.9234 -0.7657
 2577TIP3   OH2 7694   6.308   5.797   5.411  0.1593 -0.2769  0.7953
 2577TIP3    H1 7695   6.401   5.800   5.436 -0.0624 -0.7297  1.7113
 2577TIP3    H2 7696   6.309   5.789   5.316  1.0427  1.3316  0.6224
 2578TIP3   OH2 7697   6.197   1.532   4.792 -0.5133  0.4004  0.1823
 2578TIP3    H1 7698   6.242   1.535   4.876 -0.5100 -1.2904  0.2696
 2578TIP3    H2 7699   6.264   1.559   4.729 -0.5296  1.7233  0.6910
 2579TIP3   OH2 7700   6.573   4.653   4.045  0.2338  0.0128 -0.3625
 2579TIP3    H1 7701   6.537   4.613   4.125 -3.4223 -1.4233 -2.4941
 2579TIP3    H2 7702   6.564   4.747   4.060 -1.4426 -0.2472  0.5483
 2580TIP3   OH2 7703   5.133   4.779   0.270  0.2446  0.2925  0.1644
 2580TIP3    H1 7704   5.197   4.725   0.316  0.6450 -0.4855 -1.2428
 2580TIP3    H2 7705   5.155   4.768   0.178 -2.6815 -1.0102 -0.4702
 2581TIP3   OH2 7706   3.512   1.311   3.871 -0.4798 -0.5898  0.4080
 2581TIP3    H1 7707   3.542   1.401   3.860 -2.7143  0.0300 -1.3653
 2581TIP3    H2 7708   3.424   1.320   3.910 -0.4440 -2.0565  0.8928
 2582TIP3   OH2 7709   0.884   4.574   1.218 -0.3047 -0.1278  0.7240
 2582TIP3    H1 7710   0.910   4.497   1.269  0.1693 -0.5595 -0.1524
 2582TIP3    H2 7711   0.923   4.648   1.265  2.7711 -0.7547 -0.6378
 2583TIP3   OH2 7712   3.254   1.794   5.683 -0.0224 -0.2488 -0.2848
 2583TIP3    H1 7713   3.173   1.747   5.664  1.1104 -2.6994  0.4902
 2583TIP3    H2 7714   3.233   1.849   5.758 -1.5654  1.0452 -1.5971
 2584TIP3   OH2 7715   0.441   1.428   2.734  0.3203 -0.4268  0.3417
 2584TIP3    H1 7716   0.364   1.446   2.787  0.6073 -0.6643  0.8455
 2584TIP3    H2 7717   0.483   1.514   2.723  0.0204 -0.3069  0.1110
 2585TIP3   OH2 7718   6.456   3.118   2.277 -0.4450 -0.2260 -0.1143
 2585TIP3    H1 7719   6.390   3.131   2.209 -1.2593  0.7407  0.8393
 2585TIP3    H2 7720   6.435   3.033   2.315 -0.1861 -0.6210 -0.8275
 2586TIP3   OH2 7721   6.409   5.670   0.808  1.0248  0.5759  0.5953
 2586TIP3    H1 7722   6.321   5.701   0.831  1.2181  2.5014 -0.9943
 2586TIP3    H2 7723   6.445   5.635   0.889 -1.0645  0.0847  1.3667
 2587TIP3   OH2 7724   6.443   5.483   1.493 -0.3180  0.1673 -0.3314
 2587TIP3    H1 7725   6.484   5.494   1.579 -1.9726 -0.9577  0.6773
 2587TIP3    H2 7726   6.473   5.397   1.463 -0.7007  0.0196 -0.3007
 2588TIP3   OH2 7727   2.075   0.939   4.980 -0.0205 -0.3466 -0.4076
 2588TIP3    H1 7728   2.074   0.899   5.067  2.6017  0.4981  0.1238
 2588TIP3    H2 7729   2.008   1.007   4.984 -0.3394 -0.6936  0.7528
 2589TIP3   OH2 7730   4.549   6.432   5.268  0.4799  0.1518 -0.2698
 2589TIP3    H1 7731   4.604   6.418   5.345 -0.7870 -2.1762  0.2964
 2589TIP3    H2 7732   4.475   6.483   5.301 -0.2551 -1.1670  0.2171
 2590TIP3   OH2 7733   2.396   4.251   0.107 -0.0431 -0.0987 -0.3113
 2590TIP3    H1 7734   2.483   4.285   0.085  0.4862 -0.8597  0.5398
 2590TIP3    H2 7735   2.378   4.286   0.194 -0.6118  0.0835 -0.4983
 2591TIP3   OH2 7736   6.373   2.097   0.015  0.4156  0.0859  0.2146
 2591TIP3    H1 7737   6.407   2.181   0.045  1.1428 -0.1226 -0.0130
 2591TIP3    H2 7738   6.403   2.033   0.080 -0.3567  0.0307  0.5309
 2592TIP3   OH2 7739   0.672   6.485   0.749 -0.7987 -0.2441 -0.7312
 2592TIP3    H1 7740   0.588   6.531   0.744  0.0488  1.3835 -0.5961
 2592TIP3    H2 7741   0.660   6.422   0.820 -0.9772  2.1096  1.4739
 2593TIP3   OH2 7742   0.941   1.322   4.973 -0.0365 -0.1724  0.2056
 2593TIP3    H1 7743   1.005   1.340   5.042 -0.7820  1.1452  0.5885
 2593TIP3    H2 7744   0.951   1.229   4.954  0.2882 -0.5231  1.9741
 2594TIP3   OH2 7745   7.150   3.307   4.681  0.1135  0.2297  0.0340
 2594TIP3    H1 7746   7.099   3.321   4.601  0.7562 -1.1745 -0.6470
 2594TIP3    H2 7747   7.126   3.220   4.711  0.6524  0.3289  0.7998
 2595TIP3   OH2 7748   6.475   3.800   5.601 -0.0667 -0.1310 -0.1194
 2595TIP3    H1 7749   6.477   3.814   5.506 -1.3651 -2.6229 -0.5834
 2595TIP3    H2 7750   6.496   3.708   5.612 -0.4615 -0.0080  1.9915
 2596TIP3   OH2 7751   3.601   2.127   1.182  0.2575  0.0057 -0.1652
 2596TIP3    H1 7752   3.515   2.142   1.145 -0.2181 -0.9511  0.5125
 2596TIP3    H2 7753   3.599   2.174   1.266  0.0588 -0.7852  0.2779
 2597TIP3   OH2 7754   0.727   2.533   2.895 -0.0784 -0.1903  0.6271
 2597TIP3    H1 7755   0.790   2.593   2.935  0.3727 -1.4130  1.8438
 2597TIP3    H2 7756   0.778   2.485   2.829 -0.5467  1.0232 -0.6714
 2598TIP3   OH2 7757   7.108   3.863   0.505 -0.3608 -0.1561  0.3449
 2598TIP3    H1 7758   7.101   3.953   0.537  1.5090  0.3958 -0.6543
 2598TIP3    H2 7759   7.185   3.827   0.549  2.1729  0.5696 -3.1015
 2599TIP3   OH2 7760   5.024   1.017   3.419  0.2187 -0.2222 -0.3041
 2599TIP3    H1 7761   5.041   1.022   3.513  2.2237  1.1737 -0.6670
 2599TIP3    H2 7762   4.971   0.938   3.409 -0.6192 -0.0541  2.0469
 2600TIP3   OH2 7763   2.269   2.287   4.963 -0.3706  0.3706  0.0526
 2600TIP3    H1 7764   2.283   2.368   5.012 -2.2678  0.7370  0.0696
 2600TIP3    H2 7765   2.206   2.237   5.015 -1.9767  0.5087 -1.6437
 2601TIP3   OH2 7766   0.905   2.496   1.352  0.0391  0.7971  0.0559
 2601TIP3    H1 7767   0.832   2.544   1.391 -2.4445 -1.9123 -0.8628
 2601TIP3    H2 7768   0.950   2.561   1.298 -1.8619  2.5625  0.4571
 2602TIP3   OH2 7769   2.360   5.465   3.627 -0.0762 -0.1063  0.4971
 2602TIP3    H1 7770   2.321   5.393   3.676 -0.7192 -0.1575 -0.0765
 2602TIP3    H2 7771   2.393   5.525   3.695 -0.6735 -0.3225  0.9877
 2603TIP3   OH2 7772   6.709   2.672   5.836  0.1469  0.0782 -0.2432
 2603TIP3    H1 7773   6.775   2.632   5.893  0.5773 -1.4184 -1.7085
 2603TIP3    H2 7774   6.728   2.637   5.749 -1.6168  0.8539 -0.9891
 2604TIP3   OH2 7775   6.882   2.176   2.838 -0.2638  0.0156  0.1088
 2604TIP3    H1 7776   6.866   2.223   2.920 -0.2330  0.1369  0.0458
 2604TIP3    H2 7777   6.799   2.131   2.820 -0.3298  0.1361  0.1118
 2605TIP3   OH2 7778   6.706   2.767   3.330 -0.2976 -0.2435  0.2178
 2605TIP3    H1 7779   6.692   2.732   3.242 -0.1819  0.1176  0.0502
 2605TIP3    H2 7780   6.618   2.776   3.367 -0.3613 -0.1696  0.0477
 2606TIP3   OH2 7781   2.501   5.316   0.017  0.7633 -0.0155  0.0635
 2606TIP3    H1 7782   2.454   5.246  -0.029  1.7393 -0.2454 -0.6014
 2606TIP3    H2 7783   2.502   5.288   0.109  0.2265 -0.3464 -0.0269
 2607TIP3   OH2 7784   5.948   0.368   5.769  0.0129 -0.6806  0.7336
 2607TIP3    H1 7785   5.904   0.284   5.755  2.4174 -1.9646  0.3867
 2607TIP3    H2 7786   6.024   0.347   5.823  2.1549  0.7481 -1.4886
 2608TIP3   OH2 7787   3.190   0.809   3.487 -0.3246 -0.1339 -0.0981
 2608TIP3    H1 7788   3.161   0.793   3.576 -0.6459 -1.7070 -0.4505
 2608TIP3    H2 7789   3.209   0.721   3.452 -0.7440  0.3935 -1.7454
 2609TIP3   OH2 7790   3.695   1.318   2.613 -0.5461  0.4155 -0.6737
 2609TIP3    H1 7791   3.701   1.412   2.595  1.4008  0.2277 -1.1521
 2609TIP3    H2 7792   3.625   1.287   2.555 -1.2402  1.5458 -0.4815
 2610TIP3   OH2 7793   1.554   5.480   2.792  0.5431  0.0698 -0.3661
 2610TIP3    H1 7794   1.552   5.426   2.712 -0.1324 -0.9439  0.3030
 2610TIP3    H2 7795   1.577   5.418   2.861 -1.1790  0.4231  0.5768
 2611TIP3   OH2 7796   3.457   0.308   1.554 -0.1200 -0.1135  0.0180
 2611TIP3    H1 7797   3.508   0.265   1.623  0.8903  1.5153  0.3462
 2611TIP3    H2 7798   3.371   0.267   1.558  1.1310 -2.9952 -0.5709
 2612TIP3   OH2 7799   4.452   2.664   5.645  0.5051  0.0500  0.6808
 2612TIP3    H1 7800   4.410   2.735   5.694  0.0703 -0.1042  0.5357
 2612TIP3    H2 7801   4.536   2.701   5.617 -0.6746  1.3596 -1.4109
 2613TIP3   OH2 7802   6.833   4.033   4.600 -0.2126 -0.0690 -0.0140
 2613TIP3    H1 7803   6.907   4.074   4.643  2.4166 -0.2920 -3.8130
 2613TIP3    H2 7804   6.849   3.939   4.607 -0.7606 -0.1542  0.1359
 2614TIP3   OH2 7805   2.955   0.258   4.251  0.4437  0.0121  0.6346
 2614TIP3    H1 7806   2.893   0.286   4.183  0.8336  0.0705  0.2960
 2614TIP3    H2 7807   3.003   0.337   4.274  1.6181 -0.3583 -0.3944
 2615TIP3   OH2 7808   3.454   1.403   0.735 -0.1051 -0.3822  0.4324
 2615TIP3    H1 7809   3.505   1.341   0.682 -1.5618 -0.7771 -0.5527
 2615TIP3    H2 7810   3.462   1.369   0.824 -0.5918 -1.8298 -0.0364
 2616TIP3   OH2 7811   5.610   3.875   3.081  0.0856  0.0506 -0.2120
 2616TIP3    H1 7812   5.631   3.783   3.098 -1.6414 -0.4404 -0.5473
 2616TIP3    H2 7813   5.590   3.878   2.988 -0.4009  0.6364 -0.0945
 2617TIP3   OH2 7814   3.162   5.187   3.286 -0.0351 -0.2571 -0.6097
 2617TIP3    H1 7815   3.072   5.210   3.310 -0.1605 -0.7730 -0.5656
 2617TIP3    H2 7816   3.211   5.190   3.369  0.6578  2.8677 -1.0227
 2618TIP3   OH2 7817   6.366   2.810   1.013  0.7924 -0.2418 -0.1514
 2618TIP3    H1 7818   6.326   2.895   0.995 -0.4432 -0.4552  1.3768
 2618TIP3    H2 7819   6.380   2.772   0.926 -0.7595  0.5704 -0.8130
 2619TIP3   OH2 7820   3.518   5.744   4.181  0.2026  0.0713  0.0001
 2619TIP3    H1 7821   3.457   5.709   4.246 -0.1612  1.6171  0.5552
 2619TIP3    H2 7822   3.594   5.686   4.185 -1.3968 -2.2179 -1.0971
 2620TIP3   OH2 7823   4.188   1.598   1.105  0.0748  0.1468 -0.2782
 2620TIP3    H1 7824   4.268   1.546   1.104  0.3274  0.5191  0.3511
 2620TIP3    H2 7825   4.119   1.537   1.078  0.3506 -0.5385  0.5219
 2621TIP3   OH2 7826   3.243   3.433   4.307 -0.0238 -0.0110 -0.3550
 2621TIP3    H1 7827   3.192   3.375   4.251 -0.3653  0.8692 -0.9776
 2621TIP3    H2 7828   3.256   3.512   4.254  1.8822 -0.1497 -0.1837
 2622TIP3   OH2 7829   0.677   2.449   1.866 -0.0429  0.0403 -0.0498
 2622TIP3    H1 7830   0.761   2.446   1.819 -0.4084 -0.1307 -0.6921
 2622TIP3    H2 7831   0.701   2.483   1.953  0.7574 -0.4134 -0.0778
 2623TIP3   OH2 7832   0.664   1.304   4.747  0.2452  0.2834  0.1965
 2623TIP3    H1 7833   0.638   1.219   4.712  1.1298 -0.3117  0.9042
 2623TIP3    H2 7834   0.610   1.315   4.826  0.4629  0.1480  0.3668
 2624TIP3   OH2 7835   3.584   1.214   0.566  0.4164  0.4835 -0.9888
 2624TIP3    H1 7836   3.653   1.163   0.609 -0.9057  1.4213  2.6462
 2624TIP3    H2 7837   3.515   1.150   0.550  0.1275  0.4259  0.3277
 2625TIP3   OH2 7838   6.727   0.888   2.129  0.2389 -0.0879  0.1747
 2625TIP3    H1 7839   6.810   0.873   2.084  0.0170  1.6144 -0.8842
 2625TIP3    H2 7840   6.736   0.975   2.168 -0.5335 -0.4743  1.2365
 2626TIP3   OH2 7841   2.083   2.873   0.254  0.8984 -0.4415 -0.6057
 2626TIP3    H1 7842   2.168   2.864   0.299  1.2865  0.5024 -1.1118
 2626TIP3    H2 7843   2.094   2.950   0.198 -0.1179 -0.6438 -1.1029
 2627TIP3   OH2 7844   3.487   6.467   0.138  0.1076  0.3499 -0.2434
 2627TIP3    H1 7845   3.565   6.420   0.107 -0.1945 -0.6255  0.4064
 2627TIP3    H2 7846   3.436   6.400   0.184 -0.3518  1.3263  0.7079
 2628TIP3   OH2 7847   7.202   1.140   0.746 -0.2776 -0.0302 -0.0884
 2628TIP3    H1 7848   7.182   1.182   0.662 -1.3778  1.2021  0.7435
 2628TIP3    H2 7849   7.163   1.053   0.738 -0.3022  0.0430 -0.8809
 2629TIP3   OH2 7850   6.238   0.407   4.889 -0.4521 -0.0335  0.0171
 2629TIP3    H1 7851   6.279   0.369   4.812 -0.3831  0.7445 -0.3462
 2629TIP3    H2 7852   6.149   0.372   4.889 -0.7466  0.6646 -0.9485
 2630TIP3   OH2 7853   4.719   0.347   4.904 -0.3343  0.1856 -0.5070
 2630TIP3    H1 7854   4.667   0.355   4.984 -0.1723 -1.1560 -0.2347
 2630TIP3    H2 7855   4.681   0.272   4.858  0.4849  0.0425 -0.9807
 2631TIP3   OH2 7856   2.152   3.786   4.536 -0.0934 -0.2026  0.4864
 2631TIP3    H1 7857   2.193   3.701   4.556  0.7391 -0.0696 -0.5256
 2631TIP3    H2 7858   2.125   3.777   4.444 -2.1540 -0.1871  1.0534
 2632TIP3   OH2 7859   7.175   6.631   5.472 -0.3429 -0.4100 -0.5371
 2632TIP3    H1 7860   7.114   6.644   5.399  0.9950  0.3864 -1.5562
 2632TIP3    H2 7861   7.175   6.537   5.488 -1.8492 -0.4249 -0.4799
 2633TIP3   OH2 7862   6.434   3.102   1.758 -0.1968  0.0815  0.2246
 2633TIP3    H1 7863   6.360   3.154   1.788  0.5691 -0.0774  2.6270
 2633TIP3    H2 7864   6.508   3.131   1.813  0.6049 -2.3780  0.5880
 2634TIP3   OH2 7865   5.592   4.313   2.348  0.3138 -0.7202  0.6313
 2634TIP3    H1 7866   5.548   4.248   2.293  0.6396 -0.3253 -0.1096
 2634TIP3    H2 7867   5.680   4.321   2.309  0.7888 -0.9454  1.6304
 2635TIP3   OH2 7868   2.164   3.875   0.366  0.3882 -0.1125  0.3231
 2635TIP3    H1 7869   2.203   3.952   0.407  2.9368 -1.5889  0.8711
 2635TIP3    H2 7870   2.206   3.801   0.409 -0.3874 -1.8122 -1.6805
 2636TIP3   OH2 7871   4.946   5.704   1.097 -0.2023  0.6092 -0.4056
 2636TIP3    H1 7872   4.877   5.643   1.123  0.0095  0.5042 -0.0834
 2636TIP3    H2 7873   4.901   5.787   1.083 -0.4474  0.4532 -0.5510
 2637TIP3   OH2 7874   3.770   5.068   2.787  0.0873  0.0503  0.0915
 2637TIP3    H1 7875   3.825   4.996   2.758  0.7053  0.3537  0.4923
 2637TIP3    H2 7876   3.710   5.084   2.713  0.2751 -0.5373 -0.1892
 2638TIP3   OH2 7877   6.110   2.872   5.669 -0.7887  0.2882 -0.4953
 2638TIP3    H1 7878   6.174   2.939   5.693 -0.1825  0.0030 -1.2912
 2638TIP3    H2 7879   6.116   2.807   5.740  1.0005 -0.5578 -1.3410
 2639TIP3   OH2 7880   1.291   5.520   2.861  0.5424  0.1201 -0.1310
 2639TIP3    H1 7881   1.260   5.493   2.774  1.8604 -1.8643 -0.0345
 2639TIP3    H2 7882   1.386   5.516   2.855  0.6501 -0.4591  1.5205
 2640TIP3   OH2 7883   2.402   2.803   3.343  0.4572  0.2748  0.0260
 2640TIP3    H1 7884   2.320   2.766   3.312  0.0873  1.3400 -0.3080
 2640TIP3    H2 7885   2.382   2.836   3.431  0.2475  1.3749 -0.4115
 2641TIP3   OH2 7886   4.571   1.956   3.669  0.2172 -0.7627  0.4067
 2641TIP3    H1 7887   4.610   2.032   3.711 -0.0236 -0.8115  0.7210
 2641TIP3    H2 7888   4.581   1.885   3.733  0.3310 -0.9628  0.1660
 2642TIP3   OH2 7889   2.186   6.140   5.561 -0.2096  0.6006  0.4910
 2642TIP3    H1 7890   2.190   6.078   5.488 -1.2432  0.1045  0.8453
 2642TIP3    H2 7891   2.247   6.106   5.626 -1.3054 -0.4633  0.9905
 2643TIP3   OH2 7892   5.709   2.770   5.697  0.5405  0.3385 -0.0096
 2643TIP3    H1 7893   5.712   2.756   5.603 -0.1045  1.7769 -0.2709
 2643TIP3    H2 7894   5.789   2.729   5.730  0.2469 -1.1079 -1.0260
 2644TIP3   OH2 7895   4.585   2.001   2.056 -0.4174  0.2644 -0.3495
 2644TIP3    H1 7896   4.596   2.032   1.966  0.4080 -0.7000 -0.5930
 2644TIP3    H2 7897   4.527   2.066   2.096 -0.7601  0.7398 -1.5554
 2645TIP3   OH2 7898   6.239   5.583   1.138 -0.2237  0.1761 -0.0715
 2645TIP3    H1 7899   6.258   5.654   1.078 -1.2609  1.0548  0.5847
 2645TIP3    H2 7900   6.241   5.624   1.225  0.5661 -0.9091  0.4431
 2646TIP3   OH2 7901   1.430   6.083   5.099  0.5293  0.0543  0.1005
 2646TIP3    H1 7902   1.428   6.121   5.011  0.4156  0.8512  0.4373
 2646TIP3    H2 7903   1.341   6.050   5.113  0.4843  0.1356  0.0085
 2647TIP3   OH2 7904   5.306   0.625   0.180 -0.2582  0.0899  0.2501
 2647TIP3    H1 7905   5.286   0.550   0.236 -0.8847 -0.6688 -0.9489
 2647TIP3    H2 7906   5.239   0.622   0.112  0.4836  0.9904 -0.5386
 2648TIP3   OH2 7907   4.987   3.006   1.101 -0.1220  0.1109  0.1171
 2648TIP3    H1 7908   5.056   2.966   1.153 -0.9388  0.1604  1.2701
 2648TIP3    H2 7909   4.923   2.936   1.086 -0.1052  0.2073 -0.4594
 2649TIP3   OH2 7910   5.501   4.657   5.834 -0.0098  0.4856  0.2645
 2649TIP3    H1 7911   5.524   4.596   5.904  0.8125  0.8790  0.3428
 2649TIP3    H2 7912   5.413   4.688   5.857 -0.1789 -0.1821  0.5520
 2650TIP3   OH2 7913   3.125   0.404   1.981  0.0589  0.0240  0.1640
 2650TIP3    H1 7914   3.212   0.420   1.944 -0.1003  0.1429 -0.1612
 2650TIP3    H2 7915   3.139   0.332   2.042  0.6915  1.0907  1.3193
 2651TIP3   OH2 7916   6.598   5.781   1.283  0.2017  0.5244  0.4120
 2651TIP3    H1 7917   6.594   5.687   1.265 -0.3588  0.7389 -0.6580
 2651TIP3    H2 7918   6.660   5.789   1.356  1.1923 -0.5544 -0.2785
 2652TIP3   OH2 7919   3.094   3.431   4.546  0.0207 -0.2373 -0.7254
 2652TIP3    H1 7920   3.008   3.462   4.518  1.0392  2.4688 -1.1966
 2652TIP3    H2 7921   3.152   3.454   4.473  1.1473 -2.1673 -0.4911
 2653TIP3   OH2 7922   5.016   1.938   0.611 -0.6324  0.8205 -0.0292
 2653TIP3    H1 7923   5.039   2.013   0.556 -1.6578  1.1852  0.0199
 2653TIP3    H2 7924   5.054   1.958   0.696  1.2947  0.0772 -0.6620
 2654TIP3   OH2 7925   0.242   4.233   1.520 -0.0799  0.3012 -0.2429
 2654TIP3    H1 7926   0.333   4.258   1.538  0.5257 -1.2333 -1.0342
 2654TIP3    H2 7927   0.243   4.138   1.519 -1.8123  0.2524  0.1987
 2655TIP3   OH2 7928   5.311   2.344   1.275  0.1677  0.2416 -0.1077
 2655TIP3    H1 7929   5.319   2.269   1.334  0.0351  0.2879 -0.0292
 2655TIP3    H2 7930   5.216   2.358   1.267  0.1500 -0.2812 -0.9860
 2656TIP3   OH2 7931   2.155   3.733   0.820 -0.0106  0.1689 -0.5287
 2656TIP3    H1 7932   2.081   3.786   0.850 -0.3851 -1.2689  1.3532
 2656TIP3    H2 7933   2.194   3.699   0.901  1.6260 -0.5326 -1.5583
 2657TIP3   OH2 7934   4.064   5.011   4.805 -0.2418  0.2089  0.2654
 2657TIP3    H1 7935   4.039   5.036   4.893 -1.6099 -0.4557  0.0938
 2657TIP3    H2 7936   4.002   5.057   4.748  0.2545  0.1773 -0.3144
 2658TIP3   OH2 7937   5.148   0.224   0.642 -0.1835  0.1020  0.2399
 2658TIP3    H1 7938   5.237   0.189   0.644 -0.1880  0.0866  0.1370
 2658TIP3    H2 7939   5.154   0.305   0.694 -0.1813 -0.0687  0.5118
 2659TIP3   OH2 7940   5.471   5.648   1.268  1.1421 -0.0278  1.0016
 2659TIP3    H1 7941   5.505   5.728   1.226 -0.0519 -0.3291 -0.6355
 2659TIP3    H2 7942   5.379   5.667   1.284  0.9573 -0.9120  1.0105
 2660TIP3   OH2 7943   1.658   6.184   4.560  0.5568  0.0540 -0.1610
 2660TIP3    H1 7944   1.729   6.205   4.621 -1.3250  0.8465  1.8682
 2660TIP3    H2 7945   1.612   6.111   4.601 -0.8703  0.7373 -0.5077
 2661TIP3   OH2 7946   0.586   6.528   4.279  0.5760 -0.0521 -0.5191
 2661TIP3    H1 7947   0.659   6.508   4.337  1.7257  2.5699 -0.9428
 2661TIP3    H2 7948   0.587   6.623   4.270 -1.3384 -0.1396 -2.5833
 2662TIP3   OH2 7949   4.805   3.261   1.667  0.6347 -0.1027  0.4755
 2662TIP3    H1 7950   4.784   3.210   1.589  0.2877 -1.2635  1.3030
 2662TIP3    H2 7951   4.834   3.196   1.731  2.1823  0.9550  0.9059
 2663TIP3   OH2 7952   0.090   0.462   3.813  0.6452 -0.1813  0.5410
 2663TIP3    H1 7953   0.041   0.544   3.811  1.4248  0.2894 -0.8053
 2663TIP3    H2 7954   0.030   0.398   3.852  0.2982  1.1764  2.3171
 2664TIP3   OH2 7955   7.027   4.200   3.868 -0.8723  0.3411 -0.2701
 2664TIP3    H1 7956   6.977   4.265   3.819  0.0947  1.4201  0.1440
 2664TIP3    H2 7957   6.976   4.119   3.858 -2.8523  1.4371  0.3668
 2665TIP3   OH2 7958   2.523   2.948   1.964 -0.1277 -0.3386  0.1645
 2665TIP3    H1 7959   2.498   3.032   2.004  2.1467 -0.2852  1.6832
 2665TIP3    H2 7960   2.460   2.935   1.893 -1.4161  1.9480  0.7897
 2666TIP3   OH2 7961   1.909   2.983   0.475  0.4421  0.2071 -0.4856
 2666TIP3    H1 7962   1.942   3.063   0.516  0.6783 -0.2174  0.1828
 2666TIP3    H2 7963   1.984   2.945   0.430  0.5733 -0.1296  0.0087
 2667TIP3   OH2 7964   1.351   2.755   4.911 -0.0030  0.3840  0.2056
 2667TIP3    H1 7965   1.341   2.819   4.840  0.2931  0.5942  0.3551
 2667TIP3    H2 7966   1.266   2.756   4.956 -0.0795  0.4949  0.0593
 2668TIP3   OH2 7967   1.135   6.735   0.059 -0.0426 -0.1667  0.0798
 2668TIP3    H1 7968   1.061   6.709   0.004  0.8767 -0.5961 -0.9924
 2668TIP3    H2 7969   1.119   6.827   0.078 -1.1302 -0.3936  0.3146
 2669TIP3   OH2 7970   2.786   0.804   5.495 -0.2060  0.2147  0.2158
 2669TIP3    H1 7971   2.709   0.749   5.481  0.5193 -1.0461  1.0173
 2669TIP3    H2 7972   2.860   0.750   5.468  0.4693  1.1497  0.1190
 2670TIP3   OH2 7973   0.571   0.190   2.038  0.6691 -0.2625  0.3683
 2670TIP3    H1 7974   0.617   0.186   1.954  1.1859 -0.7752  0.6767
 2670TIP3    H2 7975   0.499   0.252   2.022  0.9051 -0.1693 -0.3805
 2671TIP3   OH2 7976   5.406   4.939   5.723 -0.1340  0.0945  0.4908
 2671TIP3    H1 7977   5.476   4.882   5.690 -0.6237  0.3394 -1.0481
 2671TIP3    H2 7978   5.326   4.890   5.710 -0.3954  0.4022  0.8954
 2672TIP3   OH2 7979   6.599   6.378   1.617  0.5143 -0.0785 -0.3749
 2672TIP3    H1 7980   6.610   6.456   1.561 -1.8245  0.4990 -0.1397
 2672TIP3    H2 7981   6.656   6.393   1.692 -0.2399  1.6816 -0.1102
 2673TIP3   OH2 7982   6.808   1.084   2.971 -0.0836  0.0914 -0.0537
 2673TIP3    H1 7983   6.732   1.059   3.025 -0.0468  1.0954  0.4697
 2673TIP3    H2 7984   6.817   1.011   2.910 -3.0791  1.0408 -1.8632
 2674TIP3   OH2 7985   1.332   1.216   2.324  0.1296 -0.0365 -0.1249
 2674TIP3    H1 7986   1.238   1.200   2.319  0.2939 -1.7091  1.1197
 2674TIP3    H2 7987   1.369   1.167   2.251  0.1177 -0.4483  0.1381
 2675TIP3   OH2 7988   0.788   5.518   4.239  0.1107 -0.6033 -0.2346
 2675TIP3    H1 7989   0.829   5.439   4.206 -0.1857 -0.4219 -1.0495
 2675TIP3    H2 7990   0.722   5.541   4.174 -1.1046 -0.7227  0.8986
 2676TIP3   OH2 7991   3.202   1.667   1.382  0.4211 -0.5422 -0.0504
 2676TIP3    H1 7992   3.211   1.722   1.460 -0.6085 -1.8780  1.0449
 2676TIP3    H2 7993   3.115   1.630   1.388  0.3142 -0.6943 -1.8616
 2677TIP3   OH2 7994   1.818   3.538   5.628  0.3511  0.0838  0.3799
 2677TIP3    H1 7995   1.871   3.617   5.619  0.2473  0.2146  0.8831
 2677TIP3    H2 7996   1.828   3.493   5.545 -0.8915  1.4216 -0.5326
 2678TIP3   OH2 7997   0.590   4.449   0.750  0.9091  0.1980  0.4784
 2678TIP3    H1 7998   0.678   4.446   0.788  0.6865  3.6427  1.6271
 2678TIP3    H2 7999   0.577   4.541   0.727 -1.8191 -0.4950 -1.1798
 2679TIP3   OH2 8000   3.846   0.861   2.698 -0.2204 -0.2532 -0.4403
 2679TIP3    H1 8001   3.843   0.916   2.620  0.7923 -0.0162 -0.3266
 2679TIP3    H2 8002   3.814   0.917   2.768  2.2555  0.7810 -0.0269
 2680TIP3   OH2 8003   2.272   0.427   2.779  0.4004  0.1776 -0.0604
 2680TIP3    H1 8004   2.357   0.468   2.765  0.6032  0.4580  1.7533
 2680TIP3    H2 8005   2.209   0.488   2.739  0.7948  1.7476  1.5788
 2681TIP3   OH2 8006   5.303   2.479   3.029 -0.1502 -0.3130 -0.2089
 2681TIP3    H1 8007   5.311   2.573   3.013  1.4735 -0.2119  0.9812
 2681TIP3    H2 8008   5.351   2.439   2.956  0.6837 -0.1421  0.2368
 2682TIP3   OH2 8009   4.420   6.235   3.246 -0.1214  0.0389 -0.3722
 2682TIP3    H1 8010   4.479   6.259   3.317  0.4107 -0.5047 -0.6171
 2682TIP3    H2 8011   4.382   6.317   3.217  0.8177  0.4519 -0.4638
 2683TIP3   OH2 8012   4.963   5.033   0.700  0.0753 -0.8603 -0.6913
 2683TIP3    H1 8013   5.057   5.017   0.706 -0.0102 -1.8418 -1.4632
 2683TIP3    H2 8014   4.935   4.978   0.627 -1.3372 -1.7037  0.4315
 2684TIP3   OH2 8015   4.704   2.171   0.898 -0.3907  0.1305 -0.1589
 2684TIP3    H1 8016   4.685   2.110   0.969  1.0354  1.9013  1.8619
 2684TIP3    H2 8017   4.618   2.194   0.863 -1.6218  1.9611  3.4993
 2685TIP3   OH2 8018   4.610   1.210   2.335  0.1437 -0.1391 -0.1835
 2685TIP3    H1 8019   4.555   1.161   2.274  0.1958  0.9019 -1.0977
 2685TIP3    H2 8020   4.571   1.193   2.421 -1.5406  0.4469 -0.7882
 2686TIP3   OH2 8021   4.793   0.347   1.730  0.0869  0.0607 -0.4939
 2686TIP3    H1 8022   4.730   0.297   1.781  1.1792  1.2436  2.2418
 2686TIP3    H2 8023   4.740   0.402   1.673 -1.2792 -0.3788  0.3177
 2687TIP3   OH2 8024   3.493   1.693   3.251  0.2793  0.2806 -0.1548
 2687TIP3    H1 8025   3.578   1.710   3.291  0.2600 -0.5203  0.2589
 2687TIP3    H2 8026   3.471   1.603   3.278 -0.7131  0.4883 -0.2065
 2688TIP3   OH2 8027   3.806   1.111   4.595 -0.0111  0.6156  0.6112
 2688TIP3    H1 8028   3.724   1.086   4.637 -0.1668 -0.5408 -0.3354
 2688TIP3    H2 8029   3.788   1.197   4.557 -0.7701  0.3928  0.4505
 2689TIP3   OH2 8030   2.987   6.127   2.037  0.2179  0.1487  0.5201
 2689TIP3    H1 8031   2.976   6.095   1.948  0.5882  2.2280 -0.3394
 2689TIP3    H2 8032   3.082   6.141   2.045  0.1183  0.5639  1.0113
 2690TIP3   OH2 8033   2.004   2.747   3.606  0.3120  0.0592 -0.5260
 2690TIP3    H1 8034   2.042   2.725   3.691 -1.4616 -0.6396  0.1380
 2690TIP3    H2 8035   2.018   2.841   3.597  1.3526 -0.0146  0.0801
 2691TIP3   OH2 8036   4.438   6.081   3.600  0.0961  0.0072 -0.0068
 2691TIP3    H1 8037   4.357   6.044   3.565 -0.1617  0.4311  0.1329
 2691TIP3    H2 8038   4.434   6.174   3.575  0.7744 -0.0706 -0.4348
 2692TIP3   OH2 8039   6.170   3.367   3.068  0.0953 -0.2779  0.0016
 2692TIP3    H1 8040   6.108   3.315   3.119 -0.2455  0.0973 -0.0219
 2692TIP3    H2 8041   6.199   3.308   2.998  0.4041 -0.7249  0.4999
 2693TIP3   OH2 8042   1.792   4.954   4.050  0.6129  0.0645  0.3834
 2693TIP3    H1 8043   1.786   5.001   4.133 -1.8826  2.0480 -0.7908
 2693TIP3    H2 8044   1.733   5.001   3.991  2.1566 -1.3545 -2.5048
 2694TIP3   OH2 8045   0.846   2.193   3.423  0.1367  0.0899 -0.8206
 2694TIP3    H1 8046   0.890   2.278   3.426  1.0613 -0.3820 -0.1024
 2694TIP3    H2 8047   0.913   2.133   3.388 -0.7389 -0.2198 -2.0286
 2695TIP3   OH2 8048   2.653   2.177   5.495 -0.4299 -0.2023 -0.0768
 2695TIP3    H1 8049   2.624   2.268   5.496  0.4241  0.1326 -1.5684
 2695TIP3    H2 8050   2.744   2.180   5.525 -0.4763 -0.5944  0.1111
 2696TIP3   OH2 8051   6.290   3.025   0.290 -0.1006  0.1802  0.6908
 2696TIP3    H1 8052   6.232   3.040   0.216  0.6841  0.8416  0.1973
 2696TIP3    H2 8053   6.250   3.072   0.363 -0.0968  0.7804  0.3094
 2697TIP3   OH2 8054   3.011   3.865   2.577 -0.1740 -0.1059  0.3949
 2697TIP3    H1 8055   3.082   3.800   2.571 -0.7800 -0.7911  0.5396
 2697TIP3    H2 8056   3.010   3.890   2.669  0.0815  0.1351  0.3330
 2698TIP3   OH2 8057   5.410   2.366   0.733  0.5737 -0.1460  0.3218
 2698TIP3    H1 8058   5.430   2.383   0.825  3.1591 -1.7020  0.1669
 2698TIP3    H2 8059   5.437   2.446   0.687  1.6144 -0.2672  0.7005
 2699TIP3   OH2 8060   6.703   3.149   0.798 -0.4226 -0.1168 -0.1612
 2699TIP3    H1 8061   6.788   3.106   0.810 -0.7226 -0.4793  0.7123
 2699TIP3    H2 8062   6.710   3.230   0.849  0.1091  0.8689 -1.7306
 2700TIP3   OH2 8063   0.272   6.735   3.611 -0.0485  0.0709  0.1219
 2700TIP3    H1 8064   0.316   6.820   3.606  0.4748 -0.1205  1.2034
 2700TIP3    H2 8065   0.332   6.680   3.662 -0.6693 -0.7672 -0.0325
 2701TIP3   OH2 8066   4.493   1.897   2.545  0.3301 -0.2926  0.0736
 2701TIP3    H1 8067   4.404   1.902   2.511 -0.1142  2.9314  1.4422
 2701TIP3    H2 8068   4.544   1.957   2.491  1.2646 -0.6302  0.5421
 2702TIP3   OH2 8069   3.331   0.685   2.318 -0.0075 -0.2105  0.6492
 2702TIP3    H1 8070   3.321   0.621   2.389  0.8261 -1.5816 -0.4186
 2702TIP3    H2 8071   3.242   0.711   2.297 -0.4005 -1.2716  0.9198
 2703TIP3   OH2 8072   7.004   1.514   1.389 -0.5294  0.0397  0.7831
 2703TIP3    H1 8073   7.092   1.548   1.406 -0.9624  1.5072  0.2758
 2703TIP3    H2 8074   6.954   1.591   1.363 -1.8080 -0.8809  0.4378
 2704TIP3   OH2 8075   7.189   1.302   1.584 -0.5111  0.4544 -0.4730
 2704TIP3    H1 8076   7.172   1.382   1.534  2.0527  1.6860  0.4834
 2704TIP3    H2 8077   7.224   1.333   1.668 -0.3769 -1.6748  0.3160
 2705TIP3   OH2 8078   2.724   1.720   0.436  0.2905  0.4681  0.3824
 2705TIP3    H1 8079   2.797   1.680   0.390 -0.5318 -0.9259  0.2258
 2705TIP3    H2 8080   2.735   1.814   0.423  1.4703  0.2254 -0.4910
 2706TIP3   OH2 8081   5.641   0.222   0.472 -0.2902 -0.3459 -0.3344
 2706TIP3    H1 8082   5.581   0.210   0.398 -0.3189 -1.9209 -0.0929
 2706TIP3    H2 8083   5.701   0.148   0.466 -1.3256 -1.5169  2.1468
 2707TIP3   OH2 8084   7.130   0.164   0.321 -0.1592 -0.0302  1.0349
 2707TIP3    H1 8085   7.189   0.129   0.254  1.6162 -1.8347  3.3697
 2707TIP3    H2 8086   7.154   0.256   0.328  0.1149  0.0179 -0.3030
 2708TIP3   OH2 8087   3.937   6.302   3.060 -0.0451  0.0677 -0.2033
 2708TIP3    H1 8088   3.897   6.360   2.995  1.9368  1.1013 -0.5744
 2708TIP3    H2 8089   3.909   6.337   3.144 -1.1864 -0.1990 -0.4593
 2709TIP3   OH2 8090   7.158   4.611   4.213 -0.3163 -0.1132 -0.3906
 2709TIP3    H1 8091   7.177   4.627   4.120 -0.6306  0.6914 -0.3250
 2709TIP3    H2 8092   7.099   4.683   4.238  0.0770 -0.1026  0.5368
 2710TIP3   OH2 8093   5.353   2.713   3.878  0.2841  0.4602  0.3228
 2710TIP3    H1 8094   5.425   2.744   3.933  3.3243 -1.8921 -1.9766
 2710TIP3    H2 8095   5.370   2.754   3.793 -0.7268 -0.6224 -0.4194
 2711TIP3   OH2 8096   3.502   4.726   1.492  0.5767 -0.2402 -0.2526
 2711TIP3    H1 8097   3.494   4.723   1.587  0.4478 -2.5738 -0.2726
 2711TIP3    H2 8098   3.474   4.815   1.468  0.0480  0.2043  1.8191
 2712TIP3   OH2 8099   0.822   6.626   1.120  0.5447 -0.0784  0.8900
 2712TIP3    H1 8100   0.794   6.562   1.054  0.1734  0.0547  0.9140
 2712TIP3    H2 8101   0.916   6.611   1.130  0.6885  0.1867  0.0091
 2713TIP3   OH2 8102   6.248   4.254   1.648 -0.0360 -0.3942  0.4690
 2713TIP3    H1 8103   6.306   4.330   1.637 -0.8238  0.0796 -0.4696
 2713TIP3    H2 8104   6.248   4.210   1.563  1.8990 -2.5785  1.4886
 2714TIP3   OH2 8105   4.795   0.537   3.999 -0.1813  0.1355 -0.3807
 2714TIP3    H1 8106   4.753   0.610   4.045 -0.2275  0.9277 -1.6123
 2714TIP3    H2 8107   4.883   0.533   4.036  0.2527  1.6730 -1.1380
 2715TIP3   OH2 8108   1.585   1.011   5.638  0.4213 -0.3208  0.0138
 2715TIP3    H1 8109   1.651   0.978   5.577 -0.6602 -1.9052 -0.3715
 2715TIP3    H2 8110   1.573   1.103   5.614 -1.4148 -1.3169 -3.6363
 2716TIP3   OH2 8111   4.696   2.897   3.690  0.0294  0.4006 -0.2461
 2716TIP3    H1 8112   4.772   2.931   3.738  1.4819 -0.8422 -1.5526
 2716TIP3    H2 8113   4.661   2.828   3.748  0.7170  0.0845 -0.1890
 2717TIP3   OH2 8114   6.812   1.387   5.602  0.0515 -0.1412 -0.4250
 2717TIP3    H1 8115   6.836   1.295   5.612 -2.2919 -1.0462 -2.4105
 2717TIP3    H2 8116   6.816   1.403   5.508 -1.1576  1.3103 -0.2586
 2718TIP3   OH2 8117   1.354   4.624   4.004  0.8241  0.0752 -0.2957
 2718TIP3    H1 8118   1.262   4.652   4.000  0.7457 -0.1938 -0.4242
 2718TIP3    H2 8119   1.389   4.668   4.081  0.7511  0.6742 -0.5985
 2719TIP3   OH2 8120   3.413   2.591   2.325  0.6049  0.1028  0.0747
 2719TIP3    H1 8121   3.465   2.613   2.248 -0.8944 -1.8996 -1.6513
 2719TIP3    H2 8122   3.391   2.498   2.313 -3.3366  0.7843  0.5961
 2720TIP3   OH2 8123   3.829   4.428   5.326 -0.0900 -0.5867  0.0484
 2720TIP3    H1 8124   3.856   4.516   5.301 -1.2393 -0.2673 -0.1083
 2720TIP3    H2 8125   3.821   4.380   5.244 -3.1194  0.2499 -0.2716
 2721TIP3   OH2 8126   7.000   1.313   5.138  0.1744  0.2213  0.0110
 2721TIP3    H1 8127   7.030   1.223   5.153 -0.7943 -0.2790 -0.8679
 2721TIP3    H2 8128   7.042   1.338   5.055  0.5407  0.6346  0.3174
 2722TIP3   OH2 8129   1.440   3.494   0.693  0.1917  0.3470 -0.8870
 2722TIP3    H1 8130   1.525   3.521   0.659 -0.2469  1.2662 -1.2960
 2722TIP3    H2 8131   1.418   3.415   0.644  1.3865 -0.6797  0.1552
 2723TIP3   OH2 8132   0.015   2.495   4.327  0.3484 -0.1694  0.5892
 2723TIP3    H1 8133   0.022   2.486   4.232 -0.1640  1.8003  0.3142
 2723TIP3    H2 8134  -0.031   2.416   4.356 -1.5572  0.2383 -1.1076
 2724TIP3   OH2 8135   1.873   4.522   4.905 -0.5857  0.1756  0.0307
 2724TIP3    H1 8136   1.867   4.443   4.959 -0.7438  0.2052  0.0582
 2724TIP3    H2 8137   1.818   4.503   4.829 -1.5866  0.7052  0.6029
 2725TIP3   OH2 8138   1.903   6.320   2.916  0.5196 -0.2722 -0.3537
 2725TIP3    H1 8139   1.875   6.359   2.999  1.2000 -1.5897  0.5157
 2725TIP3    H2 8140   1.873   6.383   2.850 -0.7945  0.3931  0.8070
 2726TIP3   OH2 8141   2.565   2.758   2.159  0.3241  0.4006  0.2625
 2726TIP3    H1 8142   2.547   2.825   2.093  0.2281  0.2222  0.1058
 2726TIP3    H2 8143   2.613   2.804   2.228 -0.0200  0.7008  0.3021
 2727TIP3   OH2 8144   3.206   0.581   3.112 -0.1078  0.7954  0.2028
 2727TIP3    H1 8145   3.134   0.547   3.059 -1.1196  2.3519  0.4933
 2727TIP3    H2 8146   3.240   0.655   3.060 -0.8420  2.0755  1.4808
 2728TIP3   OH2 8147   5.516   3.809   5.388 -0.3457 -0.5860  0.1550
 2728TIP3    H1 8148   5.608   3.783   5.381 -0.4974 -1.3042  0.7113
 2728TIP3    H2 8149   5.468   3.736   5.350 -0.7193 -0.5406  0.5375
 2729TIP3   OH2 8150   1.784   1.332   4.455 -0.2784 -0.3819 -0.2773
 2729TIP3    H1 8151   1.871   1.339   4.416 -0.4314 -0.2084 -0.5892
 2729TIP3    H2 8152   1.799   1.288   4.538 -0.0761 -1.7452 -0.9985
 2730TIP3   OH2 8153   4.829   4.971   4.479 -0.4775 -0.5247  0.0986
 2730TIP3    H1 8154   4.854   4.929   4.562 -0.3477 -1.9924 -0.6460
 2730TIP3    H2 8155   4.888   4.932   4.414  0.7558  2.0360 -0.4299
 2731TIP3   OH2 8156   2.144   0.175   4.885  0.5532  0.0483 -0.6042
 2731TIP3    H1 8157   2.169   0.266   4.868  1.7043 -0.0341  0.5651
 2731TIP3    H2 8158   2.209   0.123   4.838  0.0521 -0.2000 -1.0462
 2732TIP3   OH2 8159   4.010   5.909   1.342 -0.2747 -0.0803  0.0348
 2732TIP3    H1 8160   3.958   5.973   1.390 -1.1496 -1.2571  0.7006
 2732TIP3    H2 8161   3.967   5.825   1.359  0.2185 -0.7183 -1.6768
 2733TIP3   OH2 8162   6.416   5.505   2.324 -0.3315  0.1353 -0.0726
 2733TIP3    H1 8163   6.332   5.499   2.279 -0.4657 -0.2556  0.2355
 2733TIP3    H2 8164   6.433   5.417   2.357  0.8274 -0.1273 -1.2651
 2734TIP3   OH2 8165   5.456   2.856   5.441  0.3176 -0.2951 -0.0879
 2734TIP3    H1 8166   5.394   2.916   5.399 -0.3427 -1.2681 -0.5479
 2734TIP3    H2 8167   5.542   2.883   5.409 -0.1527 -0.9458 -2.0299
 2735TIP3   OH2 8168   6.651   5.632   4.687  0.0588 -0.3964 -0.3458
 2735TIP3    H1 8169   6.564   5.651   4.724 -0.9879 -1.7417 -1.9674
 2735TIP3    H2 8170   6.686   5.562   4.742  1.1411  1.5842  1.6597
 2736TIP3   OH2 8171   1.044   2.081   0.956  0.4400  0.3249  0.6822
 2736TIP3    H1 8172   1.116   2.144   0.948  1.1507 -0.3743  1.4743
 2736TIP3    H2 8173   1.063   2.015   0.888 -1.0457  1.6276 -1.1000
 2737TIP3   OH2 8174   4.275   5.836   0.038 -0.7769 -0.3167 -0.3355
 2737TIP3    H1 8175   4.197   5.839  -0.017 -0.6136  2.0917 -0.5177
 2737TIP3    H2 8176   4.259   5.900   0.107  0.5353 -0.6619  0.3286
 2738TIP3   OH2 8177   1.402   2.990   3.951  0.0148 -0.6839  0.7589
 2738TIP3    H1 8178   1.458   2.992   4.028  1.7766  1.0813 -0.4773
 2738TIP3    H2 8179   1.417   3.074   3.907 -2.0560 -1.0025 -0.7384
 2739TIP3   OH2 8180   3.186   2.894   2.407 -0.8556 -0.2512  0.2841
 2739TIP3    H1 8181   3.195   2.931   2.320 -0.6024 -2.3228 -0.6355
 2739TIP3    H2 8182   3.275   2.886   2.440 -0.9501  0.5253  0.7538
 2740TIP3   OH2 8183   4.177   2.002   1.946  0.7370  0.7498  0.0731
 2740TIP3    H1 8184   4.139   2.011   2.033  0.9169 -0.5573  0.3112
 2740TIP3    H2 8185   4.175   2.090   1.909  1.2859  1.4482  1.6537
 2741TIP3   OH2 8186   3.592   0.156   1.727  0.1827 -0.1128  0.1831
 2741TIP3    H1 8187   3.636   0.211   1.791 -1.0665  0.7091  0.3653
 2741TIP3    H2 8188   3.629   0.069   1.741  0.5329  0.2186  1.4503
 2742TIP3   OH2 8189   6.090   6.597   3.883  0.1920 -0.0542 -0.0202
 2742TIP3    H1 8190   6.145   6.601   3.962  0.0503 -0.8330  0.1227
 2742TIP3    H2 8191   6.021   6.661   3.899  0.0955 -0.2961  0.5477
 2743TIP3   OH2 8192   3.983   0.523   4.486  0.0672 -0.6426  0.7452
 2743TIP3    H1 8193   3.945   0.585   4.548  1.4567  0.2507  0.7440
 2743TIP3    H2 8194   3.920   0.520   4.414  1.1122  2.7887 -0.4820
 2744TIP3   OH2 8195   6.540   3.045   4.120  0.1634  0.0160  0.0319
 2744TIP3    H1 8196   6.496   2.963   4.144 -0.2463 -0.4485 -2.0432
 2744TIP3    H2 8197   6.509   3.063   4.031  2.3631  0.9334 -0.6256
 2745TIP3   OH2 8198   4.364   1.904   3.201  0.0526 -0.1924 -0.0825
 2745TIP3    H1 8199   4.368   1.816   3.163  0.1259 -0.6613  0.9458
 2745TIP3    H2 8200   4.382   1.889   3.294 -1.4658  0.7078  0.3912
 2746TIP3   OH2 8201   2.007   2.483   3.476 -0.3196 -0.0095  0.6180
 2746TIP3    H1 8202   2.005   2.577   3.494  0.4976 -0.0744  1.0863
 2746TIP3    H2 8203   2.098   2.465   3.454 -0.9603 -0.2107 -2.2293
 2747TIP3   OH2 8204   1.588   1.681   4.236  0.6409  0.3664 -0.5504
 2747TIP3    H1 8205   1.674   1.665   4.273  0.2097 -0.3641  0.1500
 2747TIP3    H2 8206   1.588   1.775   4.218  1.0031  0.6839  0.9560
 2748TIP3   OH2 8207   4.535   2.879   5.014 -0.2649 -0.0986  0.1194
 2748TIP3    H1 8208   4.622   2.885   5.052  0.4831 -1.2678 -1.3403
 2748TIP3    H2 8209   4.550   2.877   4.919 -1.9949  1.6230 -0.2623
 2749TIP3   OH2 8210   2.224   0.700   2.117  0.1201 -0.4901 -0.0729
 2749TIP3    H1 8211   2.212   0.779   2.063  0.9556 -0.0653  0.3478
 2749TIP3    H2 8212   2.150   0.643   2.093 -1.3281  0.9890  0.6582
 2750TIP3   OH2 8213   3.949   5.464   5.219 -0.0561 -0.2221 -0.7885
 2750TIP3    H1 8214   4.039   5.438   5.239 -0.0862 -0.3315 -0.7922
 2750TIP3    H2 8215   3.957   5.537   5.159  0.0225 -1.1378 -1.9127
 2751TIP3   OH2 8216   6.218   3.737   1.494  0.3951 -0.5313 -0.0987
 2751TIP3    H1 8217   6.227   3.744   1.398 -0.4449 -0.2152 -0.1700
 2751TIP3    H2 8218   6.157   3.665   1.506 -0.6175  0.3358  0.1253
 2752TIP3   OH2 8219   5.962   1.804   2.538 -0.5623 -0.0199 -0.3381
 2752TIP3    H1 8220   5.896   1.740   2.563 -0.3029 -0.4636 -0.7597
 2752TIP3    H2 8221   6.014   1.759   2.471 -0.6630  0.8042 -0.9751
 2753TIP3   OH2 8222   5.917   0.562   3.003  0.3766 -0.4642 -0.4196
 2753TIP3    H1 8223   6.002   0.526   2.979  0.3367  0.4631 -2.1347
 2753TIP3    H2 8224   5.937   0.628   3.069  0.8952 -0.8472 -0.1888
 2754TIP3   OH2 8225   4.074   0.445   1.289  0.3074  0.0388 -0.3227
 2754TIP3    H1 8226   4.121   0.427   1.371 -0.1123 -1.6637 -0.4211
 2754TIP3    H2 8227   3.987   0.407   1.303  0.6091 -1.3945 -1.9620
 2755TIP3   OH2 8228   3.281   2.584   1.617  0.2507 -0.1365  0.1792
 2755TIP3    H1 8229   3.337   2.579   1.694 -2.0432 -0.5935  1.9298
 2755TIP3    H2 8230   3.228   2.662   1.630 -0.6575 -0.5986 -0.5812
 2756TIP3   OH2 8231   0.076   4.183   4.866 -0.0794  0.1053 -0.2131
 2756TIP3    H1 8232   0.161   4.189   4.910 -0.4107  1.4774  0.2701
 2756TIP3    H2 8233   0.034   4.266   4.884 -1.3252 -0.3599 -0.8976
 2757TIP3   OH2 8234   3.923   2.773   0.796 -0.3348  0.7462  0.0579
 2757TIP3    H1 8235   3.926   2.711   0.869 -0.4764 -0.0966 -0.6354
 2757TIP3    H2 8236   4.006   2.820   0.801  0.3214 -0.3703 -0.1501
 2758TIP3   OH2 8237   0.878   4.421   4.154  0.2511 -0.4707 -0.1403
 2758TIP3    H1 8238   0.819   4.350   4.129  1.5648 -1.7800  0.3666
 2758TIP3    H2 8239   0.819   4.490   4.185 -1.0220 -1.8432  0.6621
 2759TIP3   OH2 8240   6.958   3.142   1.931 -0.0487 -0.1336 -0.3608
 2759TIP3    H1 8241   6.929   3.226   1.969  1.7998 -0.2093  1.3676
 2759TIP3    H2 8242   6.982   3.164   1.841  2.2131  1.6999  0.5787
 2760TIP3   OH2 8243   4.018   2.016   2.187  0.3627  0.5156  0.0908
 2760TIP3    H1 8244   3.942   1.959   2.199  0.3614  0.4241 -0.3717
 2760TIP3    H2 8245   3.982   2.105   2.195  0.0612  0.4966 -0.9307
 2761TIP3   OH2 8246   0.416   1.778   3.038 -0.0944 -0.3571  0.1105
 2761TIP3    H1 8247   0.449   1.804   3.124  0.7990 -1.7027  0.2149
 2761TIP3    H2 8248   0.330   1.740   3.056 -0.6429  0.8691  0.1716
 2762TIP3   OH2 8249   2.485   5.534   2.227 -0.0496  0.0931  0.1628
 2762TIP3    H1 8250   2.569   5.580   2.227 -0.4151  0.7739 -0.7448
 2762TIP3    H2 8251   2.503   5.452   2.273  0.7026  0.9675  1.5100
 2763TIP3   OH2 8252   2.881   0.414   3.731 -0.2038  0.5954  0.1103
 2763TIP3    H1 8253   2.867   0.506   3.705  0.1084  0.2804 -1.2620
 2763TIP3    H2 8254   2.972   0.396   3.705 -0.4304 -0.2550 -0.1158
 2764TIP3   OH2 8255   1.789   1.263   3.125 -0.2251 -0.0511 -0.5722
 2764TIP3    H1 8256   1.807   1.315   3.203  1.2602 -0.8001 -0.3594
 2764TIP3    H2 8257   1.821   1.317   3.052  0.2838 -0.1866 -0.4559
 2765TIP3   OH2 8258   6.570   6.602   5.063  0.1886  0.1635 -0.0686
 2765TIP3    H1 8259   6.534   6.622   5.150  1.0277  1.2516  0.0566
 2765TIP3    H2 8260   6.652   6.651   5.060  0.5676 -0.5128 -1.1780
 2766TIP3   OH2 8261   2.544   2.116   1.022 -0.0580 -0.2678 -0.5037
 2766TIP3    H1 8262   2.614   2.074   0.971  0.7497  1.1013 -0.5806
 2766TIP3    H2 8263   2.518   2.051   1.087  1.8232 -0.5592  0.0058
 2767TIP3   OH2 8264   5.503   0.063   4.619 -0.2400 -0.3219 -0.0537
 2767TIP3    H1 8265   5.593   0.044   4.590 -0.8720 -3.6670 -0.3113
 2767TIP3    H2 8266   5.512   0.135   4.680  2.5226 -0.0108 -0.6959
 2768TIP3   OH2 8267   0.218   6.290   1.423 -0.1609 -0.2343  0.3409
 2768TIP3    H1 8268   0.229   6.314   1.515  2.0031 -2.1799  0.6970
 2768TIP3    H2 8269   0.259   6.204   1.416 -1.3803 -0.6983 -2.2135
 2769TIP3   OH2 8270   2.790   5.816   2.668 -0.0788  0.2109  0.1174
 2769TIP3    H1 8271   2.708   5.847   2.629  0.9876  3.5767  0.2044
 2769TIP3    H2 8272   2.855   5.824   2.598  0.3775 -1.6121  0.2938
 2770TIP3   OH2 8273   2.160   3.900   3.104 -0.3094 -0.1421  0.0295
 2770TIP3    H1 8274   2.073   3.875   3.134 -0.7481  1.9308  0.6283
 2770TIP3    H2 8275   2.152   3.992   3.078  1.4807 -0.1692 -0.8114
 2771TIP3   OH2 8276   5.828   3.855   0.067 -0.0047 -0.0187 -0.4254
 2771TIP3    H1 8277   5.749   3.818   0.107  0.7433  1.1204  2.3241
 2771TIP3    H2 8278   5.816   3.950   0.074  0.4754  0.2158 -2.3928
 2772TIP3   OH2 8279   4.862   3.859   4.981 -0.1075  0.1730  0.2798
 2772TIP3    H1 8280   4.788   3.887   4.926  1.4473  0.4950 -1.7958
 2772TIP3    H2 8281   4.907   3.794   4.927  0.6878 -0.5950  1.8274
 2773TIP3   OH2 8282   0.452   0.857   5.279 -0.1439 -0.1309 -0.1515
 2773TIP3    H1 8283   0.441   0.938   5.329 -0.0467 -0.3348  0.2032
 2773TIP3    H2 8284   0.369   0.810   5.290 -0.3681  0.1290 -0.7342
 2774TIP3   OH2 8285   4.913   3.136   4.322  0.0048 -0.2401 -0.1875
 2774TIP3    H1 8286   4.859   3.152   4.399  2.0524  0.7610  1.1298
 2774TIP3    H2 8287   4.955   3.052   4.339 -1.2458 -1.1386 -1.3210
 2775TIP3   OH2 8288   5.850   3.692   5.233 -0.2029  0.3840  0.0145
 2775TIP3    H1 8289   5.910   3.673   5.304 -0.2440  0.5539  0.0958
 2775TIP3    H2 8290   5.878   3.778   5.200 -0.6808  0.6802  0.3554
 2776TIP3   OH2 8291   5.051   4.108   2.354 -0.1970  0.6775 -0.1394
 2776TIP3    H1 8292   5.085   4.098   2.443 -1.2060  0.3371  0.2253
 2776TIP3    H2 8293   4.975   4.050   2.351 -0.4547  1.0470 -1.0725
 2777TIP3   OH2 8294   1.422   5.098   3.691  0.3864  0.6113  0.4316
 2777TIP3    H1 8295   1.454   5.024   3.742  1.7474 -0.1206 -1.3729
 2777TIP3    H2 8296   1.494   5.119   3.632 -1.3932  0.8083 -1.8144
 2778TIP3   OH2 8297   0.241   4.866   1.546  0.0499  0.0517  0.1692
 2778TIP3    H1 8298   0.192   4.905   1.618  1.6416  2.4312  0.0830
 2778TIP3    H2 8299   0.327   4.845   1.583  0.2561 -0.4554 -0.5717
 2779TIP3   OH2 8300   7.049   3.812   3.385 -0.2266  0.4079  0.1790
 2779TIP3    H1 8301   7.127   3.756   3.386 -0.0093  0.6779 -0.7021
 2779TIP3    H2 8302   7.006   3.791   3.302 -0.9250  0.4993  0.5105
 2780TIP3   OH2 8303   5.172   3.885   0.960  0.0369  0.2816 -0.3100
 2780TIP3    H1 8304   5.122   3.815   1.003  0.3265  0.5014  0.3993
 2780TIP3    H2 8305   5.263   3.857   0.966 -0.0138 -0.4099 -2.1355
 2781TIP3   OH2 8306   3.235   2.052   1.289 -0.1372  0.1133 -0.0026
 2781TIP3    H1 8307   3.237   1.993   1.214  1.6793 -2.0416  1.6102
 2781TIP3    H2 8308   3.155   2.028   1.336 -0.3402  0.1994 -0.3027
 2782TIP3   OH2 8309   6.845   5.800   3.811 -0.8951  0.3734 -0.2613
 2782TIP3    H1 8310   6.913   5.824   3.874 -1.9358 -0.1594  1.1170
 2782TIP3    H2 8311   6.869   5.711   3.783 -1.2383  0.0044  0.5696
 2783TIP3   OH2 8312   4.572   3.421   4.285 -0.1294  0.7207  0.1422
 2783TIP3    H1 8313   4.498   3.471   4.251  0.4100  0.4959 -1.4429
 2783TIP3    H2 8314   4.533   3.360   4.348 -1.2436  0.8186 -0.4267
 2784TIP3   OH2 8315   2.035   2.953   2.499 -0.3106  0.5308  0.3632
 2784TIP3    H1 8316   2.105   2.924   2.557 -0.0741  0.7841  0.2033
 2784TIP3    H2 8317   2.016   2.875   2.445 -0.3301  0.3847  0.5813
 2785TIP3   OH2 8318   2.807   4.903   3.399 -0.2230 -0.0920 -0.1054
 2785TIP3    H1 8319   2.770   4.846   3.466  0.3500 -0.1164  0.1956
 2785TIP3    H2 8320   2.782   4.991   3.426  0.1166 -0.0913  0.2143
 2786TIP3   OH2 8321   6.993   1.093   3.162 -0.2612  0.0013 -0.0723
 2786TIP3    H1 8322   6.953   1.145   3.231  0.1040 -0.2422  0.3313
 2786TIP3    H2 8323   6.922   1.074   3.100 -0.4789  0.6316 -0.0141
 2787TIP3   OH2 8324   5.400   3.355   0.393 -0.3702 -0.3067  0.1255
 2787TIP3    H1 8325   5.489   3.333   0.365 -1.0243 -1.2996 -1.2363
 2787TIP3    H2 8326   5.371   3.279   0.443 -1.6738 -1.5348 -2.3616
 2788TIP3   OH2 8327   4.095   2.971   0.849 -0.0662  0.2430 -0.0942
 2788TIP3    H1 8328   4.090   3.014   0.935  1.5792  0.3635 -0.0322
 2788TIP3    H2 8329   4.134   3.037   0.791  1.9343 -0.9121 -0.1364
 2789TIP3   OH2 8330   1.952   1.764   5.329  0.1267  0.4040  0.5978
 2789TIP3    H1 8331   1.940   1.675   5.296  0.2330  0.4352  0.4754
 2789TIP3    H2 8332   2.013   1.754   5.402 -1.5947  0.0638  2.0676
 2790TIP3   OH2 8333   2.868   2.720   5.156  0.1113 -0.2337 -0.4203
 2790TIP3    H1 8334   2.818   2.671   5.091  0.4307 -0.0511 -0.8083
 2790TIP3    H2 8335   2.959   2.693   5.142  0.2076 -0.0501 -0.1732
 2791TIP3   OH2 8336   1.070   1.389   1.449  0.0160 -0.0237  0.0889
 2791TIP3    H1 8337   1.056   1.381   1.543  0.9665 -0.7433  0.1913
 2791TIP3    H2 8338   0.984   1.375   1.410 -0.1554 -1.0695  0.7984
 2792TIP3   OH2 8339   6.851   1.292   2.027 -0.2185 -0.0638  0.0928
 2792TIP3    H1 8340   6.790   1.243   2.082 -1.3982  0.8439 -0.3807
 2792TIP3    H2 8341   6.801   1.315   1.949  0.3078  1.8484  0.2719
 2793TIP3   OH2 8342   2.741   1.962   2.064 -0.1705 -0.1629  0.1474
 2793TIP3    H1 8343   2.709   1.889   2.116 -1.2354 -0.4949 -0.9243
 2793TIP3    H2 8344   2.690   2.038   2.095 -0.4157 -0.2531 -0.0316
 2794TIP3   OH2 8345   3.583   0.908   2.835  0.3097  0.0725 -0.8654
 2794TIP3    H1 8346   3.666   0.920   2.880 -0.2352 -1.4430  0.6227
 2794TIP3    H2 8347   3.537   0.991   2.848  0.3089 -0.2004  1.1299
 2795TIP3   OH2 8348   5.946   5.467   0.534 -0.3377  0.2790  0.0730
 2795TIP3    H1 8349   5.971   5.419   0.613  2.4702 -0.7871 -1.3282
 2795TIP3    H2 8350   5.981   5.555   0.547 -1.0025  0.4824  0.5222
 2796TIP3   OH2 8351   5.801   0.346   4.305 -0.5451  0.3530  0.1749
 2796TIP3    H1 8352   5.851   0.426   4.295 -1.2911  0.8972  0.6844
 2796TIP3    H2 8353   5.865   0.276   4.296  0.0886  0.9939 -0.4309
 2797TIP3   OH2 8354   5.003   3.629   1.930 -0.0624 -0.6086  0.5533
 2797TIP3    H1 8355   4.933   3.690   1.952  0.8599  1.1940 -1.1293
 2797TIP3    H2 8356   5.079   3.662   1.978  0.1478 -1.2419  0.6605
 2798TIP3   OH2 8357   6.788   5.877   0.545  0.1609 -0.3689 -0.1905
 2798TIP3    H1 8358   6.801   5.971   0.559 -0.2894 -0.3594  0.1825
 2798TIP3    H2 8359   6.787   5.840   0.633 -1.0820 -0.5310 -0.2574
 2799TIP3   OH2 8360   0.646   2.795   3.138  0.0448  0.0934  0.3140
 2799TIP3    H1 8361   0.601   2.814   3.055  1.1035 -1.8223 -0.7824
 2799TIP3    H2 8362   0.727   2.752   3.111  0.1120 -1.1872  2.3819
 2800TIP3   OH2 8363   3.915   3.103  -0.023 -0.5099 -0.3886  0.2069
 2800TIP3    H1 8364   3.912   3.101   0.073  1.7252 -3.4178  0.3785
 2800TIP3    H2 8365   3.851   3.037  -0.050  0.7088 -1.4878 -0.1532
 2801TIP3   OH2 8366   1.978   0.123   4.080  0.2732 -0.0158  0.3188
 2801TIP3    H1 8367   2.065   0.121   4.040  0.2863 -0.0261  0.3475
 2801TIP3    H2 8368   1.992   0.090   4.169  0.2230 -0.1096  0.2923
 2802TIP3   OH2 8369   4.566   6.602   1.569 -0.0080 -0.1496  0.4717
 2802TIP3    H1 8370   4.603   6.531   1.516  1.2827  1.3259 -0.7117
 2802TIP3    H2 8371   4.580   6.574   1.659  0.0427 -1.6108  0.0345
 2803TIP3   OH2 8372   6.971   3.097   4.722  0.2019 -0.1347 -0.1021
 2803TIP3    H1 8373   6.878   3.104   4.700 -0.5704 -1.5302  2.3499
 2803TIP3    H2 8374   7.006   3.035   4.658 -0.3502  0.8691 -1.4453
 2804TIP3   OH2 8375   6.188   1.044   4.061  0.2624 -0.6890  0.3594
 2804TIP3    H1 8376   6.178   1.081   4.149  0.3883 -1.5373  0.7376
 2804TIP3    H2 8377   6.117   0.981   4.053 -0.4410  0.1827 -0.5871
 2805TIP3   OH2 8378   4.086   5.209   2.000  0.0276  0.2692 -0.1460
 2805TIP3    H1 8379   4.099   5.238   2.090  0.2029  1.1729 -0.4516
 2805TIP3    H2 8380   4.113   5.117   2.000 -1.0678 -0.0873  0.9748
 2806TIP3   OH2 8381   3.572   0.418   0.214  0.2071  0.4918 -0.4248
 2806TIP3    H1 8382   3.556   0.334   0.256 -1.4381  0.9314 -0.0795
 2806TIP3    H2 8383   3.639   0.460   0.267  0.0782 -0.0615  0.1759
 2807TIP3   OH2 8384   5.479   1.228   1.152  0.0158 -0.4124 -0.1160
 2807TIP3    H1 8385   5.520   1.219   1.238  0.6371 -0.0504 -0.3738
 2807TIP3    H2 8386   5.475   1.322   1.137  0.3462 -0.4934 -0.6958
 2808TIP3   OH2 8387   4.766   4.213   0.885 -0.2155 -0.1376  0.3232
 2808TIP3    H1 8388   4.672   4.228   0.873  0.0978  1.8188  0.0077
 2808TIP3    H2 8389   4.801   4.210   0.797 -0.0301 -1.4408  0.4216
 2809TIP3   OH2 8390   6.189   3.504   0.888  0.1153 -0.6920 -0.0053
 2809TIP3    H1 8391   6.243   3.428   0.866 -0.2863 -0.6722 -1.1145
 2809TIP3    H2 8392   6.160   3.539   0.803  1.5887  1.6852  0.3681
 2810TIP3   OH2 8393   2.297   3.534   1.975 -0.1610 -0.7990  0.1902
 2810TIP3    H1 8394   2.356   3.589   1.924  1.8261 -1.7791  1.3270
 2810TIP3    H2 8395   2.293   3.451   1.928 -1.0741 -0.5732 -0.1508
 2811TIP3   OH2 8396   0.978   4.651   2.429 -0.1936 -0.5883 -0.3252
 2811TIP3    H1 8397   1.060   4.607   2.409 -0.6767 -1.3240 -0.6975
 2811TIP3    H2 8398   0.944   4.678   2.344 -0.1823  0.0226 -0.1465
 2812TIP3   OH2 8399   4.740   0.991   3.578  0.0693  0.0231  0.4130
 2812TIP3    H1 8400   4.807   0.931   3.547 -0.0660 -0.5217  1.1320
 2812TIP3    H2 8401   4.692   1.017   3.499 -0.4891 -1.5916  0.1942
 2813TIP3   OH2 8402   2.869   4.716   2.353 -0.5405 -0.0583 -0.9417
 2813TIP3    H1 8403   2.922   4.658   2.299  0.4415 -0.0143 -0.0448
 2813TIP3    H2 8404   2.922   4.795   2.364 -1.2345  0.4104 -0.9017
 2814TIP3   OH2 8405   6.164   1.083   3.139  0.2702 -0.0785 -0.2585
 2814TIP3    H1 8406   6.080   1.119   3.111 -0.6274 -1.3866  0.6593
 2814TIP3    H2 8407   6.211   1.157   3.176  0.4359  1.1426 -2.7402
 2815TIP3   OH2 8408   0.195   3.961   0.371  0.1208 -0.3106  1.0977
 2815TIP3    H1 8409   0.135   4.031   0.400  0.5486  0.6794 -0.2520
 2815TIP3    H2 8410   0.278   3.982   0.413  0.1283 -0.2751  1.0657
 2816TIP3   OH2 8411   5.585   3.245   3.553  0.0762 -0.1696 -0.3307
 2816TIP3    H1 8412   5.518   3.230   3.487 -0.4390  1.7250 -0.3023
 2816TIP3    H2 8413   5.537   3.281   3.628  0.6820 -2.0353  1.0208
 2817TIP3   OH2 8414   4.443   1.482   1.068  0.2845  0.2972  0.1095
 2817TIP3    H1 8415   4.429   1.448   0.980 -0.9008  0.5633  0.1730
 2817TIP3    H2 8416   4.472   1.572   1.054 -1.1860  0.7765 -0.0170
 2818TIP3   OH2 8417   0.716   4.359   2.480  0.2116 -0.3226  0.6182
 2818TIP3    H1 8418   0.811   4.356   2.484  0.1451 -2.2507  2.0031
 2818TIP3    H2 8419   0.690   4.398   2.564 -0.2450 -1.4667  1.0210
 2819TIP3   OH2 8420   1.732   3.323   0.702 -0.8911  0.3627 -0.0945
 2819TIP3    H1 8421   1.731   3.349   0.794 -0.3375  2.0808 -0.5504
 2819TIP3    H2 8422   1.711   3.403   0.654  1.5264  0.1766 -1.6038
 2820TIP3   OH2 8423   2.289   4.402   4.977 -0.1886  0.0500 -0.3550
 2820TIP3    H1 8424   2.288   4.408   5.073  0.0212 -0.7344 -0.2995
 2820TIP3    H2 8425   2.208   4.355   4.956 -0.0428 -0.1184 -0.5355
 2821TIP3   OH2 8426   6.929   6.506   1.826  0.2160 -0.4424  0.6138
 2821TIP3    H1 8427   6.856   6.445   1.827 -1.4523  1.4557  0.9304
 2821TIP3    H2 8428   6.931   6.544   1.914  2.1447 -1.0380  0.8764
 2822TIP3   OH2 8429   2.994   2.252   0.440 -0.8913  0.3829 -0.2231
 2822TIP3    H1 8430   2.948   2.317   0.387  0.2548  0.1214 -1.6187
 2822TIP3    H2 8431   3.032   2.302   0.511 -0.7924  1.1110 -0.7749
 2823TIP3   OH2 8432   2.885   1.192   1.251 -0.0337 -0.6490 -0.1765
 2823TIP3    H1 8433   2.806   1.152   1.215 -0.5525  0.4764 -0.3213
 2823TIP3    H2 8434   2.927   1.235   1.177  0.2730 -0.5290  0.0620
 2824TIP3   OH2 8435   3.378   5.078   2.412  0.0048 -0.4074 -0.1762
 2824TIP3    H1 8436   3.388   5.063   2.318 -2.7234  1.2673 -0.8325
 2824TIP3    H2 8437   3.388   5.173   2.423 -2.9181 -0.0998  0.6354
 2825TIP3   OH2 8438   1.628   5.586   5.325 -0.3612 -0.0535 -0.4397
 2825TIP3    H1 8439   1.657   5.654   5.386 -1.0795 -0.1345  0.0117
 2825TIP3    H2 8440   1.557   5.541   5.371  0.0125 -1.0305 -0.7836
 2826TIP3   OH2 8441   1.429   5.435   5.479 -0.1678 -0.2649 -0.4994
 2826TIP3    H1 8442   1.405   5.519   5.519 -0.3470  0.2729 -1.7164
 2826TIP3    H2 8443   1.361   5.375   5.508 -0.9102  0.3757 -0.8927
 2827TIP3   OH2 8444   6.635   2.909   4.458  0.0105 -0.3328 -0.2364
 2827TIP3    H1 8445   6.561   2.962   4.428  1.8202  0.6867 -3.3513
 2827TIP3    H2 8446   6.613   2.820   4.428 -1.1855 -0.6666  1.4545
 2828TIP3   OH2 8447   6.153   5.908   4.833 -0.4217  0.1943 -0.3038
 2828TIP3    H1 8448   6.147   5.979   4.769 -1.8470  0.1073 -0.2973
 2828TIP3    H2 8449   6.071   5.860   4.824  0.0241 -0.7569  0.5105
 2829TIP3   OH2 8450   4.056   4.400   2.250  0.1333  0.0927  0.2464
 2829TIP3    H1 8451   4.138   4.351   2.250  1.7280  2.5696 -0.3372
 2829TIP3    H2 8452   4.066   4.464   2.321 -0.3765  1.7823 -1.1355
 2830TIP3   OH2 8453   2.247   6.515   0.132 -0.4834  0.2394 -0.4661
 2830TIP3    H1 8454   2.236   6.608   0.112  2.4458  1.2113  1.7981
 2830TIP3    H2 8455   2.164   6.488   0.171 -1.8104  1.5037 -2.2557
 2831TIP3   OH2 8456   5.072   1.253   2.821 -0.1071 -0.7239 -0.3101
 2831TIP3    H1 8457   5.057   1.224   2.911  0.5003 -1.2728 -0.3839
 2831TIP3    H2 8458   5.067   1.173   2.769 -0.3724 -0.4187 -0.7614
 2832TIP3   OH2 8459   1.846   4.195   3.814 -0.4183 -0.2232 -0.2827
 2832TIP3    H1 8460   1.855   4.201   3.909  1.7380 -0.5645 -0.4242
 2832TIP3    H2 8461   1.822   4.283   3.786 -1.0501 -0.1197  0.5660
 2833TIP3   OH2 8462   4.016   3.935   4.314 -0.2428  0.1087  0.0943
 2833TIP3    H1 8463   3.984   3.862   4.261 -0.2035  0.6276 -0.6569
 2833TIP3    H2 8464   3.989   4.014   4.267  1.4567  0.5730 -0.1865
 2834TIP3   OH2 8465   1.408   0.885   1.927  0.2811  0.3796  0.3112
 2834TIP3    H1 8466   1.380   0.951   1.863  1.1316 -0.4903 -0.9943
 2834TIP3    H2 8467   1.344   0.815   1.918  1.0393 -0.2284 -0.3902
 2835TIP3   OH2 8468   3.401   3.452   3.620 -0.2049 -0.6366  0.4905
 2835TIP3    H1 8469   3.404   3.379   3.682 -1.3298  0.0241  1.3676
 2835TIP3    H2 8470   3.334   3.426   3.556 -1.3070 -0.0092  1.3425
 2836TIP3   OH2 8471   7.209   6.325   1.044 -0.2155  0.7319  0.2856
 2836TIP3    H1 8472   7.133   6.310   0.988  1.3405 -0.1126 -1.7330
 2836TIP3    H2 8473   7.260   6.391   0.998  1.3702 -0.3567  0.4131
 2837TIP3   OH2 8474   1.106   0.118   3.146 -0.2103 -0.0409 -0.4372
 2837TIP3    H1 8475   1.184   0.062   3.155  0.9278  1.3970 -0.9705
 2837TIP3    H2 8476   1.128   0.198   3.194 -1.3679  0.3986 -0.6022
 2838TIP3   OH2 8477   1.027   5.079   1.737  0.0606  0.1378 -0.5511
 2838TIP3    H1 8478   1.065   5.110   1.654  0.4198  1.0672 -0.0588
 2838TIP3    H2 8479   1.025   4.984   1.728 -0.8929  0.2637 -2.0495
 2839TIP3   OH2 8480   5.770   4.337   0.701  0.0587  0.2057 -0.2975
 2839TIP3    H1 8481   5.848   4.330   0.756 -0.5708  0.1761  0.6232
 2839TIP3    H2 8482   5.802   4.375   0.619  0.9801  0.5228  0.1853
 2840TIP3   OH2 8483   5.464   1.873   2.692  0.7626 -0.4367  0.4728
 2840TIP3    H1 8484   5.396   1.894   2.756  0.5049 -0.7161  0.2939
 2840TIP3    H2 8485   5.416   1.839   2.616  1.1112 -0.8030  0.4136
 2841TIP3   OH2 8486   0.941   4.122   5.780 -0.3351 -0.1057 -0.2310
 2841TIP3    H1 8487   0.905   4.206   5.809 -0.1556  0.1852 -0.8287
 2841TIP3    H2 8488   0.905   4.058   5.841 -1.6384  0.2088 -0.6347
 2842TIP3   OH2 8489   6.443   5.538   4.881 -0.0010  0.0696 -0.0362
 2842TIP3    H1 8490   6.424   5.631   4.897 -2.7977 -0.3822 -0.2863
 2842TIP3    H2 8491   6.422   5.495   4.964 -0.7663 -0.5636 -0.5475
 2843TIP3   OH2 8492   3.048   0.823   4.296  0.2787 -0.5768  0.1350
 2843TIP3    H1 8493   3.091   0.905   4.320 -0.4332  0.6681 -2.5131
 2843TIP3    H2 8494   2.977   0.814   4.360 -0.1820  1.3573 -0.0335
 2844TIP3   OH2 8495   1.601   3.085   3.061  0.9245  0.5679  0.0599
 2844TIP3    H1 8496   1.532   3.025   3.088  1.1542  0.3129  0.0880
 2844TIP3    H2 8497   1.682   3.036   3.076  1.1418  1.0832  0.5929
 2845TIP3   OH2 8498   1.672   1.936   5.392  0.3065  0.8319 -0.2403
 2845TIP3    H1 8499   1.726   1.970   5.463  1.0341  0.3877 -0.5677
 2845TIP3    H2 8500   1.719   1.859   5.361 -1.6872 -0.9792  0.9804
 2846TIP3   OH2 8501   5.832   5.242   3.189 -0.3429 -0.4648 -0.2389
 2846TIP3    H1 8502   5.887   5.248   3.112  0.5178  1.1362  0.4712
 2846TIP3    H2 8503   5.861   5.162   3.233 -0.4129 -1.0440 -1.2087
 2847TIP3   OH2 8504   2.708   2.338   0.623 -0.2248  0.0052 -0.9982
 2847TIP3    H1 8505   2.663   2.297   0.549  0.2632  2.3478 -2.7188
 2847TIP3    H2 8506   2.768   2.401   0.582 -1.3713  2.8624  1.3928
 2848TIP3   OH2 8507   1.744   0.854   5.488  0.1941 -0.3901 -0.1074
 2848TIP3    H1 8508   1.684   0.798   5.438  1.9508 -1.2591 -1.3740
 2848TIP3    H2 8509   1.779   0.915   5.423  1.8406 -0.9554  0.1932
 2849TIP3   OH2 8510   1.060   3.089   2.680  0.4177  0.0684  0.8141
 2849TIP3    H1 8511   1.138   3.091   2.736 -0.1578  0.4088  1.6354
 2849TIP3    H2 8512   1.052   2.998   2.654 -0.5987 -0.6012  3.2204
 2850TIP3   OH2 8513   6.480   2.498   5.887 -0.1222  0.1138 -0.0120
 2850TIP3    H1 8514   6.500   2.441   5.813 -0.3630  0.1906 -0.1360
 2850TIP3    H2 8515   6.537   2.574   5.875 -1.4114  0.9562 -1.0986
 2851TIP3   OH2 8516   6.634   2.914   5.066 -0.1239  0.2127 -0.1701
 2851TIP3    H1 8517   6.692   2.944   5.136  0.3247 -0.9612 -0.0280
 2851TIP3    H2 8518   6.637   2.983   5.000  0.0058  0.9997  0.6441
 2852TIP3   OH2 8519   2.182   1.258   5.469 -0.4895  0.1163 -0.5724
 2852TIP3    H1 8520   2.162   1.164   5.470 -0.0588  0.0188  1.0358
 2852TIP3    H2 8521   2.103   1.299   5.433 -0.8035 -0.8274 -0.9882
 2853TIP3   OH2 8522   4.003   3.711   0.599  0.0651  0.2480  0.3188
 2853TIP3    H1 8523   3.994   3.628   0.646 -0.1051  1.3619  2.3946
 2853TIP3    H2 8524   4.001   3.778   0.668 -0.2907  2.0161 -1.3140
 2854TIP3   OH2 8525   4.174   5.644   4.565  0.0116  0.3377  0.1684
 2854TIP3    H1 8526   4.211   5.608   4.645  0.7325  0.3333 -0.1580
 2854TIP3    H2 8527   4.126   5.571   4.525 -0.1815  0.2874  0.4929
 2855TIP3   OH2 8528   1.291   0.974   4.372  0.3068 -0.4918 -0.4095
 2855TIP3    H1 8529   1.384   0.977   4.394  0.0183  0.7664  0.7659
 2855TIP3    H2 8530   1.288   0.928   4.288  2.0988  0.4799 -1.0578
 2856TIP3   OH2 8531   6.499   3.566   1.944 -0.0041  0.3703  0.3389
 2856TIP3    H1 8532   6.589   3.587   1.919  0.8333 -0.1413  2.6703
 2856TIP3    H2 8533   6.501   3.564   2.040 -2.6147  0.7563  0.4623
 2857TIP3   OH2 8534   0.224   0.255   4.948  0.1383 -0.5342 -0.3694
 2857TIP3    H1 8535   0.240   0.279   4.857 -1.9407  0.0296 -0.6247
 2857TIP3    H2 8536   0.287   0.307   4.998  0.1537  0.4325 -1.3633
 2858TIP3   OH2 8537   2.882   3.480   5.612  0.1398 -0.6444 -0.2672
 2858TIP3    H1 8538   2.853   3.393   5.583  3.2556 -1.4711 -1.2289
 2858TIP3    H2 8539   2.910   3.525   5.533 -0.4465  0.8789  0.3474
 2859TIP3   OH2 8540   4.875   2.085   3.316 -0.1084 -0.4112  0.4596
 2859TIP3    H1 8541   4.901   2.046   3.233  0.9427 -0.9015  1.0004
 2859TIP3    H2 8542   4.806   2.027   3.349 -2.7957  1.4776 -1.4794
 2860TIP3   OH2 8543   2.295   6.615   3.502 -0.7497 -0.4521  0.5374
 2860TIP3    H1 8544   2.255   6.699   3.481 -1.2093 -0.6391  0.6495
 2860TIP3    H2 8545   2.270   6.598   3.593 -0.7288 -0.7463  0.4908
 2861TIP3   OH2 8546   3.687   0.190   3.906 -0.2664  0.3839 -0.8398
 2861TIP3    H1 8547   3.593   0.202   3.895 -0.2839  0.0415 -1.0814
 2861TIP3    H2 8548   3.700   0.095   3.896 -0.0665  0.2616  0.4459
 2862TIP3   OH2 8549   4.868   6.188   4.578  0.3572  0.1649 -0.0595
 2862TIP3    H1 8550   4.866   6.279   4.608 -0.3681  0.0606  0.2357
 2862TIP3    H2 8551   4.958   6.174   4.549  0.9777  0.4081  1.6500
 2863TIP3   OH2 8552   4.570   4.138   0.309 -0.1997 -0.4221  0.3083
 2863TIP3    H1 8553   4.648   4.129   0.364 -1.0965  0.1623  1.7486
 2863TIP3    H2 8554   4.567   4.231   0.287 -0.5817 -0.4037  0.4224
 2864TIP3   OH2 8555   5.497   2.665   2.794  0.0910  0.1406 -0.4962
 2864TIP3    H1 8556   5.563   2.611   2.837  0.2704  1.4380  0.9232
 2864TIP3    H2 8557   5.417   2.613   2.798  0.3695 -0.2254  0.4180
 2865TIP3   OH2 8558   3.812   5.813   2.133 -0.4064  0.0206  0.6541
 2865TIP3    H1 8559   3.866   5.889   2.152 -1.0700  0.5962  0.2862
 2865TIP3    H2 8560   3.874   5.745   2.106  0.0420  1.1195 -1.2087
 2866TIP3   OH2 8561   0.465   2.941   4.835 -0.7069 -0.6099 -0.1770
 2866TIP3    H1 8562   0.385   2.915   4.882 -0.5495 -0.1639  0.3518
 2866TIP3    H2 8563   0.520   2.863   4.839 -0.0573 -0.1224  1.8003
 2867TIP3   OH2 8564   3.752   1.193   4.899 -0.6139  0.1194  0.2895
 2867TIP3    H1 8565   3.843   1.224   4.891  0.5132 -2.9476 -0.2152
 2867TIP3    H2 8566   3.699   1.273   4.893  2.0654  2.2579  2.4258
 2868TIP3   OH2 8567   6.013   0.170   4.297  0.0329 -0.3876 -0.1745
 2868TIP3    H1 8568   6.038   0.114   4.370 -1.1211  0.5191  0.9656
 2868TIP3    H2 8569   6.092   0.219   4.275  0.0668  0.3150  1.4048
 2869TIP3   OH2 8570   5.663   0.484   4.984  0.2768 -0.5755 -0.2665
 2869TIP3    H1 8571   5.712   0.473   5.065 -1.2278 -2.0030  0.4974
 2869TIP3    H2 8572   5.593   0.546   5.006  0.0935 -0.6701 -0.5677
 2870TIP3   OH2 8573   1.268   0.427   1.364  0.4878  0.3985  0.1003
 2870TIP3    H1 8574   1.313   0.444   1.282  0.2176  1.9483  0.2399
 2870TIP3    H2 8575   1.335   0.442   1.431  0.2413  0.9708  0.2268
 2871TIP3   OH2 8576   0.948   4.860   0.655 -0.4809  0.1348  0.1611
 2871TIP3    H1 8577   1.042   4.846   0.644 -0.4197  0.5220  0.1563
 2871TIP3    H2 8578   0.911   4.773   0.665 -0.1051 -0.0117  0.2759
 2872TIP3   OH2 8579   1.524   2.076   0.838  0.2230  0.3313  0.0585
 2872TIP3    H1 8580   1.484   2.125   0.910  1.0068  1.5536 -0.3044
 2872TIP3    H2 8581   1.511   2.132   0.761  2.2510  0.6152 -0.1347
 2873TIP3   OH2 8582   2.113   1.009   5.534 -0.3971 -0.5985  0.0234
 2873TIP3    H1 8583   2.032   1.031   5.581  0.0681  0.4981  0.3469
 2873TIP3    H2 8584   2.110   0.914   5.525 -2.2992 -0.4932 -1.0428
 2874TIP3   OH2 8585   0.737   2.084   5.303 -0.2852  0.0831 -0.5028
 2874TIP3    H1 8586   0.714   2.056   5.215 -1.7031  0.2556 -0.2108
 2874TIP3    H2 8587   0.817   2.136   5.292  0.6027 -1.4066 -1.4373
 2875TIP3   OH2 8588   0.123   3.025   2.380 -0.4911 -0.7308  0.1459
 2875TIP3    H1 8589   0.084   2.965   2.443  0.8668 -1.1192  0.6656
 2875TIP3    H2 8590   0.131   2.974   2.300 -0.2590 -0.9202  0.2906
 2876TIP3   OH2 8591   7.028   1.023   0.923 -0.2391 -0.1496 -0.1440
 2876TIP3    H1 8592   6.995   1.073   0.997  0.5401 -0.5096  0.4658
 2876TIP3    H2 8593   7.081   1.085   0.873 -1.4345  0.3080 -0.8695
 2877TIP3   OH2 8594   4.831   5.599   3.757  0.0735 -0.9531 -0.4134
 2877TIP3    H1 8595   4.799   5.667   3.698  1.1826 -0.7168 -0.7798
 2877TIP3    H2 8596   4.755   5.546   3.777 -0.9365  0.6516  0.2437
 2878TIP3   OH2 8597   0.644   6.554   1.374 -0.2993  0.4480 -0.0086
 2878TIP3    H1 8598   0.730   6.531   1.337 -0.5388  1.3025 -1.1521
 2878TIP3    H2 8599   0.665   6.601   1.455  0.2860 -0.1043  0.1699
 2879TIP3   OH2 8600   2.757   3.060   2.686 -0.0352 -0.3678 -0.1857
 2879TIP3    H1 8601   2.697   3.095   2.620  1.1111  1.9232 -0.0918
 2879TIP3    H2 8602   2.835   3.036   2.637  1.3146  2.5165  0.3604
 2880TIP3   OH2 8603   0.173   0.337   1.715 -0.0119  0.0172 -0.4876
 2880TIP3    H1 8604   0.163   0.423   1.675 -0.9397  0.6072  0.9052
 2880TIP3    H2 8605   0.225   0.287   1.653 -0.6450  1.1371 -1.9940
 2881TIP3   OH2 8606   2.958   1.379   3.944  0.1998  0.0276 -0.3183
 2881TIP3    H1 8607   2.950   1.399   4.037  0.0188  1.8691 -0.6942
 2881TIP3    H2 8608   2.982   1.462   3.903 -1.6806 -0.2517 -2.1748
 2882TIP3   OH2 8609   4.807   3.046   1.507 -0.0391 -0.4348 -0.3354
 2882TIP3    H1 8610   4.896   3.061   1.477 -0.5191  1.6968 -0.8842
 2882TIP3    H2 8611   4.753   3.057   1.428 -0.9467  0.7147  0.4043
 2883TIP3   OH2 8612   5.341   5.383   3.839  0.3018 -0.1814  0.0848
 2883TIP3    H1 8613   5.339   5.365   3.933 -0.6049 -0.9449 -0.0675
 2883TIP3    H2 8614   5.250   5.406   3.817 -0.0582 -2.4184 -1.0471
 2884TIP3   OH2 8615   5.245   3.837   1.972 -0.5090 -0.6162 -0.0749
 2884TIP3    H1 8616   5.160   3.866   1.938  0.0518 -0.9919 -1.9040
 2884TIP3    H2 8617   5.280   3.913   2.018 -0.4580  0.6387 -2.0722
 2885TIP3   OH2 8618   4.094   6.172   2.724  0.0302  0.1145 -0.0288
 2885TIP3    H1 8619   4.121   6.174   2.633 -0.1517 -0.1463 -0.0902
 2885TIP3    H2 8620   4.003   6.202   2.723 -0.9017 -2.4766 -0.2891
 2886TIP3   OH2 8621   3.795   2.830   2.219  0.0383 -0.4658 -0.6732
 2886TIP3    H1 8622   3.703   2.852   2.204 -0.2707 -1.3356 -0.1451
 2886TIP3    H2 8623   3.795   2.780   2.300  1.1363  0.5139 -0.0311
 2887TIP3   OH2 8624   4.722   4.541   1.515  0.1242 -0.3254 -0.1257
 2887TIP3    H1 8625   4.630   4.565   1.504 -0.5296 -2.4512  0.1713
 2887TIP3    H2 8626   4.758   4.544   1.427 -1.0917 -2.4593 -0.7760
 2888TIP3   OH2 8627   3.712   4.091   1.554 -0.5499  0.3320 -0.5827
 2888TIP3    H1 8628   3.784   4.043   1.593 -0.0906  1.1560 -0.3834
 2888TIP3    H2 8629   3.738   4.183   1.561 -1.2845  0.5971 -1.1788
 2889TIP3   OH2 8630   6.031   2.523   5.414  0.3025  0.3157  0.3142
 2889TIP3    H1 8631   6.026   2.432   5.445 -1.7138  0.1589 -0.3282
 2889TIP3    H2 8632   6.056   2.515   5.322  1.8201  0.5404  0.6796
 2890TIP3   OH2 8633   3.922   3.831   1.409 -0.4605 -0.2130  0.1596
 2890TIP3    H1 8634   4.007   3.844   1.367 -0.3273 -0.9579  0.1771
 2890TIP3    H2 8635   3.933   3.863   1.498 -0.5923  0.9065 -0.2160
 2891TIP3   OH2 8636   4.451   1.397   0.794  0.6320  0.4662  0.4081
 2891TIP3    H1 8637   4.489   1.455   0.728  1.3661  1.4365  1.6346
 2891TIP3    H2 8638   4.406   1.330   0.744  2.2515  0.4307 -1.1048
 2892TIP3   OH2 8639   3.646   6.785   5.632 -0.8224 -0.0208 -0.0021
 2892TIP3    H1 8640   3.653   6.696   5.597  2.1573 -0.1576  0.6373
 2892TIP3    H2 8641   3.620   6.772   5.723  1.3212 -0.4750  0.6175
 2893TIP3   OH2 8642   3.704   4.336   5.063 -0.3849 -0.2422 -0.1459
 2893TIP3    H1 8643   3.717   4.393   4.987 -0.6658  0.3040  0.2075
 2893TIP3    H2 8644   3.753   4.257   5.042 -1.3304 -0.5359 -1.3699
 2894TIP3   OH2 8645   6.380   4.710   2.880 -0.5334 -0.0072  0.8382
 2894TIP3    H1 8646   6.475   4.707   2.891 -0.4896 -0.9724  0.3108
 2894TIP3    H2 8647   6.348   4.744   2.963  0.2273 -0.4421  1.3283
 2895TIP3   OH2 8648   4.562   3.070   0.182  0.0584  0.0053  0.3092
 2895TIP3    H1 8649   4.495   3.024   0.233 -0.1435  0.2022  0.2192
 2895TIP3    H2 8650   4.627   3.002   0.163  0.4117  0.0576  1.3032
 2896TIP3   OH2 8651   5.248   4.619   1.936  0.1799 -0.2156  0.2563
 2896TIP3    H1 8652   5.233   4.537   1.889  1.4443 -0.4561  0.2375
 2896TIP3    H2 8653   5.316   4.664   1.886  2.2560 -0.9021  2.2715
 2897TIP3   OH2 8654   5.860   3.077   3.295 -0.3465 -0.0905  0.4887
 2897TIP3    H1 8655   5.881   2.993   3.335  1.5514  0.6853  1.2365
 2897TIP3    H2 8656   5.845   3.137   3.369  0.4532  0.7129  0.0250
 2898TIP3   OH2 8657   0.504   3.478   3.533 -0.7698 -0.5751  0.2815
 2898TIP3    H1 8658   0.596   3.472   3.507 -1.1503 -1.9462 -0.8384
 2898TIP3    H2 8659   0.500   3.429   3.616 -0.7895 -2.1115 -0.5838
 2899TIP3   OH2 8660   4.379   4.905   5.470 -0.0879 -0.0892  0.5764
 2899TIP3    H1 8661   4.304   4.899   5.530 -0.7947 -0.5426 -0.3273
 2899TIP3    H2 8662   4.369   4.830   5.412 -0.2582  1.1251 -1.0407
 2900TIP3   OH2 8663   0.089   3.905   5.322 -0.3632  0.0943  0.1338
 2900TIP3    H1 8664   0.148   3.914   5.248 -0.1495 -1.6777  0.0456
 2900TIP3    H2 8665   0.129   3.957   5.392  1.4529 -1.2143  0.1302
 2901TIP3   OH2 8666   4.394   5.436   3.498  0.2633 -0.3410  0.1587
 2901TIP3    H1 8667   4.347   5.433   3.581  0.3544  2.6740  0.4266
 2901TIP3    H2 8668   4.368   5.520   3.459  2.7433 -0.1702 -1.3127
 2902TIP3   OH2 8669   3.319   3.857   0.803 -0.0028 -0.2637 -0.0220
 2902TIP3    H1 8670   3.337   3.818   0.889 -0.8902  0.5844  0.5749
 2902TIP3    H2 8671   3.229   3.889   0.810 -0.3847 -0.9071 -1.5625
 2903TIP3   OH2 8672   3.629   3.927   1.327 -0.4412  0.2815  0.1517
 2903TIP3    H1 8673   3.676   3.998   1.371 -0.1438 -0.2466  0.7020
 2903TIP3    H2 8674   3.631   3.854   1.390  0.6433 -0.7356 -1.0280
 2904TIP3   OH2 8675   4.803   4.995   1.358 -0.0744  0.1163  0.2621
 2904TIP3    H1 8676   4.867   4.964   1.422 -1.2813  1.8210  2.4248
 2904TIP3    H2 8677   4.849   4.992   1.275  2.0538 -0.8322  1.3957
 2905TIP3   OH2 8678   5.500   0.324   1.591  0.2504  0.3288 -0.6182
 2905TIP3    H1 8679   5.587   0.333   1.552  0.1242  0.7048 -0.8146
 2905TIP3    H2 8680   5.491   0.230   1.607  0.6205  0.2658 -0.7620
 2906TIP3   OH2 8681   4.937   4.613   5.294 -0.1461 -0.4063 -0.5533
 2906TIP3    H1 8682   4.868   4.570   5.345  1.0499 -1.2843  0.3838
 2906TIP3    H2 8683   4.981   4.542   5.247 -0.0814  0.1821 -1.4071
 2907TIP3   OH2 8684   2.938   3.947   2.871  0.0548 -0.0841 -0.3094
 2907TIP3    H1 8685   2.961   4.025   2.922 -0.5599 -0.5370  0.6812
 2907TIP3    H2 8686   3.000   3.880   2.898 -0.0018 -0.2064 -0.4754
 2908TIP3   OH2 8687   3.086   3.020   0.498  0.0925  0.2671  0.1111
 2908TIP3    H1 8688   2.995   3.027   0.530 -0.3335  1.1962 -1.2253
 2908TIP3    H2 8689   3.136   3.076   0.558  0.0056 -1.0447  1.4905
 2909TIP3   OH2 8690   7.034   6.246   5.470 -0.4160 -0.4721 -0.3776
 2909TIP3    H1 8691   6.986   6.209   5.544 -0.9380  1.0713  0.1066
 2909TIP3    H2 8692   7.029   6.180   5.401 -0.9899 -1.4152  0.5525
 2910TIP3   OH2 8693   3.372   4.509   4.720 -0.1343  0.5453 -0.1284
 2910TIP3    H1 8694   3.411   4.422   4.715 -0.6230  0.2889  0.4099
 2910TIP3    H2 8695   3.361   4.525   4.814 -0.2436  1.0958 -0.2315
 2911TIP3   OH2 8696   3.513   6.787   3.198 -0.5302 -0.0787 -0.3147
 2911TIP3    H1 8697   3.478   6.698   3.193 -0.3565 -0.1366 -0.4743
 2911TIP3    H2 8698   3.600   6.781   3.161 -1.4524  0.6545 -2.7784
 2912TIP3   OH2 8699   6.416   3.904   4.151  0.4984  0.0615 -0.0555
 2912TIP3    H1 8700   6.497   3.955   4.154  0.2605  0.4296  0.2322
 2912TIP3    H2 8701   6.353   3.956   4.202  0.4936 -0.9395  1.0153
 2913TIP3   OH2 8702   0.210   2.704   0.396 -0.6953 -0.1752  0.5665
 2913TIP3    H1 8703   0.243   2.614   0.396 -0.1217  0.0160  1.6013
 2913TIP3    H2 8704   0.222   2.734   0.487 -0.7610  0.9795  0.2149
 2914TIP3   OH2 8705   3.178   1.671   5.390  0.3227  0.1733  0.3787
 2914TIP3    H1 8706   3.110   1.733   5.365  1.0153 -0.3135 -3.2872
 2914TIP3    H2 8707   3.256   1.725   5.405  0.2267  0.3901  0.0937
 2915TIP3   OH2 8708   6.640   2.197   0.101  0.1324 -0.4769  0.4556
 2915TIP3    H1 8709   6.576   2.251   0.147  2.3759  2.1916  0.7054
 2915TIP3    H2 8710   6.716   2.196   0.158  0.3155 -3.8228  0.3197
 2916TIP3   OH2 8711   5.747   1.121   0.489 -0.1896 -0.7131 -0.0990
 2916TIP3    H1 8712   5.710   1.208   0.504  1.3826  0.7290 -3.6731
 2916TIP3    H2 8713   5.696   1.064   0.547 -0.7629  2.5908  3.0059
 2917TIP3   OH2 8714   3.354   2.019   0.072 -0.6213  0.1511  0.0563
 2917TIP3    H1 8715   3.266   2.056   0.076 -0.8771 -0.4619  0.2088
 2917TIP3    H2 8716   3.399   2.056   0.148 -0.4545  1.1765 -0.5204
 2918TIP3   OH2 8717   7.238   3.474   1.005  0.3544  0.1137 -0.6767
 2918TIP3    H1 8718   7.200   3.392   1.036  1.2547  0.2163  0.7598
 2918TIP3    H2 8719   7.185   3.543   1.046  1.2009  0.2441  0.2497
 2919TIP3   OH2 8720   4.146   4.525   3.907  0.3105 -0.5707 -0.3701
 2919TIP3    H1 8721   4.164   4.468   3.982 -0.7084  1.9512  1.9873
 2919TIP3    H2 8722   4.098   4.599   3.945  2.2920  2.2987 -3.0184
 2920TIP3   OH2 8723   1.896   3.076   5.653 -0.2452 -0.2007 -0.5125
 2920TIP3    H1 8724   1.881   3.000   5.597 -0.5274 -0.0799 -0.5999
 2920TIP3    H2 8725   1.849   3.056   5.734 -0.9061  0.1923 -0.7991
 2921TIP3   OH2 8726   6.299   4.936   4.953  0.3059  0.3849 -0.1255
 2921TIP3    H1 8727   6.328   5.000   4.887 -2.9677 -0.1439 -2.3306
 2921TIP3    H2 8728   6.218   4.973   4.988 -1.4272 -2.2255 -1.0971
 2922TIP3   OH2 8729   1.527   2.197   4.478  0.1321 -0.2918 -0.1753
 2922TIP3    H1 8730   1.440   2.203   4.438 -0.6922  0.0642  1.5702
 2922TIP3    H2 8731   1.547   2.103   4.477 -0.9515 -0.5535  0.7207
 2923TIP3   OH2 8732   3.432   5.762   3.918  0.2872 -0.3717  0.0579
 2923TIP3    H1 8733   3.447   5.770   4.013 -0.3907 -0.5243  0.1792
 2923TIP3    H2 8734   3.517   5.735   3.883  0.2398 -1.4813  0.7656
 2924TIP3   OH2 8735   0.480   5.117   3.013  0.1727 -0.0348 -0.0906
 2924TIP3    H1 8736   0.390   5.136   2.987  0.0321  1.3770  1.2820
 2924TIP3    H2 8737   0.512   5.199   3.050  1.8359 -0.6884  0.0037
 2925TIP3   OH2 8738   2.740   2.213   3.399 -0.3523 -0.1438  0.3714
 2925TIP3    H1 8739   2.827   2.241   3.427  0.9461 -0.3082 -2.9954
 2925TIP3    H2 8740   2.739   2.119   3.414 -0.1711 -0.0666  0.8901
 2926TIP3   OH2 8741   1.703   3.162   5.097  0.2806  0.3422  0.4075
 2926TIP3    H1 8742   1.727   3.251   5.070  0.0131  0.7958  1.5672
 2926TIP3    H2 8743   1.626   3.141   5.043  0.0518  1.0126  0.4545
 2927TIP3   OH2 8744   1.853   2.431   2.905 -0.2106  0.2400 -0.1937
 2927TIP3    H1 8745   1.782   2.373   2.930 -0.3636  0.9871  1.1766
 2927TIP3    H2 8746   1.846   2.437   2.809 -1.1681 -0.7209 -0.2008
 2928TIP3   OH2 8747   6.487   2.289   2.175 -0.4230  0.0959  0.0920
 2928TIP3    H1 8748   6.422   2.292   2.104 -1.3449  0.1620  0.9121
 2928TIP3    H2 8749   6.435   2.291   2.255  0.4207 -2.7152  0.8269
 2929TIP3   OH2 8750   4.095   2.269   3.391  0.0489  0.6091  0.2295
 2929TIP3    H1 8751   4.115   2.204   3.323  0.6831  0.3260  0.6720
 2929TIP3    H2 8752   4.027   2.324   3.353 -1.3152 -0.9889  0.2483
 2930TIP3   OH2 8753   1.989   6.598   1.147  0.6894 -0.7357  0.2715
 2930TIP3    H1 8754   2.072   6.645   1.143 -0.0491  0.6083  0.0826
 2930TIP3    H2 8755   1.952   6.609   1.059 -0.1087 -0.5112  0.6323
 2931TIP3   OH2 8756   6.603   5.727   0.303  0.5360 -0.0564  0.1048
 2931TIP3    H1 8757   6.681   5.783   0.311  0.0021  0.5566  1.3862
 2931TIP3    H2 8758   6.593   5.689   0.390 -0.4131 -0.3679 -0.1375
 2932TIP3   OH2 8759   3.268   3.181   2.024  0.2853 -0.3202 -0.2418
 2932TIP3    H1 8760   3.356   3.159   1.994  0.7087 -2.4999  2.1777
 2932TIP3    H2 8761   3.274   3.271   2.055  0.8711  0.5138 -2.5721
 2933TIP3   OH2 8762   2.963   2.648   4.304  0.7962 -0.0256  0.0358
 2933TIP3    H1 8763   3.014   2.586   4.253 -0.2581 -2.0207  1.2697
 2933TIP3    H2 8764   3.002   2.647   4.391 -0.3122 -0.3595  0.5555
 2934TIP3   OH2 8765   1.416   6.131   2.465 -0.2310  0.1839 -0.1657
 2934TIP3    H1 8766   1.372   6.155   2.383 -0.1649  3.5273  0.6482
 2934TIP3    H2 8767   1.507   6.156   2.452  0.2671 -1.2966  0.2337
 2935TIP3   OH2 8768   6.718   4.421   1.712 -0.1458 -0.4839 -0.2797
 2935TIP3    H1 8769   6.807   4.450   1.730  0.4652 -0.9733 -2.2792
 2935TIP3    H2 8770   6.669   4.443   1.791  0.5841  4.4621 -0.9160
 2936TIP3   OH2 8771   4.217   2.307   2.118 -0.5570 -0.5841  0.4910
 2936TIP3    H1 8772   4.186   2.301   2.027 -0.2024 -0.3384  0.3536
 2936TIP3    H2 8773   4.137   2.299   2.171 -0.7358 -0.9938  0.1663
 2937TIP3   OH2 8774   5.113   6.107   2.459 -0.4564  0.0028 -0.6221
 2937TIP3    H1 8775   5.037   6.144   2.503 -0.6543 -0.5139 -0.5156
 2937TIP3    H2 8776   5.159   6.057   2.526  0.3739  0.8790 -0.5163
 2938TIP3   OH2 8777   3.734   6.008   3.085 -0.5471  0.0778  0.0240
 2938TIP3    H1 8778   3.745   6.043   3.174 -1.4155  0.0057  0.1724
 2938TIP3    H2 8779   3.820   5.973   3.062 -0.3209  0.0684  0.8493
 2939TIP3   OH2 8780   5.283   4.667   1.534 -0.3186 -0.0837 -0.3239
 2939TIP3    H1 8781   5.358   4.656   1.475  0.4235  0.5477  0.4585
 2939TIP3    H2 8782   5.322   4.700   1.615 -1.5242  0.8146 -0.0855
 2940TIP3   OH2 8783   2.202   3.394   0.984 -0.2991 -0.8189  0.3630
 2940TIP3    H1 8784   2.161   3.437   1.059  0.2389  0.5145 -0.0852
 2940TIP3    H2 8785   2.152   3.424   0.909  1.8874  1.4731 -0.2960
 2941TIP3   OH2 8786   4.489   1.210   1.051 -0.2167  0.2764 -0.1830
 2941TIP3    H1 8787   4.450   1.199   0.964 -0.4623  1.9162 -0.3272
 2941TIP3    H2 8788   4.501   1.305   1.059  0.3409  0.1002  1.3483
 2942TIP3   OH2 8789   6.268   0.775   5.772 -0.1093 -0.4873 -0.4603
 2942TIP3    H1 8790   6.268   0.825   5.853  0.3874 -0.4393 -0.4846
 2942TIP3    H2 8791   6.180   0.738   5.766 -0.5095  0.4201 -0.4671
 2943TIP3   OH2 8792   2.951   0.172   5.382 -0.0521  0.3833 -0.3732
 2943TIP3    H1 8793   3.020   0.229   5.347  0.9605 -0.3513  0.3693
 2943TIP3    H2 8794   2.872   0.226   5.380  0.6006  1.3415 -0.9897
 2944TIP3   OH2 8795   4.877   3.886   2.254 -0.2568  0.0949  0.2646
 2944TIP3    H1 8796   4.867   3.845   2.340  2.3491 -3.4264 -0.9044
 2944TIP3    H2 8797   4.835   3.826   2.193 -1.7051  2.3208 -1.0770
 2945TIP3   OH2 8798   1.141   2.978   5.612  0.5301 -0.6160 -0.2738
 2945TIP3    H1 8799   1.159   3.062   5.570  0.7360  0.3940  1.7207
 2945TIP3    H2 8800   1.208   2.970   5.680 -1.4812 -0.7405  1.8143
 2946TIP3   OH2 8801   1.358   6.556   4.310 -0.3824 -0.0369  0.2996
 2946TIP3    H1 8802   1.416   6.515   4.374  0.1596  0.0702 -0.1154
 2946TIP3    H2 8803   1.380   6.514   4.226 -0.1059  0.8042 -0.0609
 2947TIP3   OH2 8804   1.142   4.633   0.809 -0.2610  0.1385 -0.0102
 2947TIP3    H1 8805   1.205   4.658   0.876 -0.3618  0.2713  0.0345
 2947TIP3    H2 8806   1.057   4.658   0.845 -0.2293  1.2218 -0.6425
 2948TIP3   OH2 8807   1.469   1.740   5.298  0.8480  0.0246  0.6555
 2948TIP3    H1 8808   1.486   1.660   5.348 -0.9815 -0.0770  1.2073
 2948TIP3    H2 8809   1.510   1.810   5.349  1.8482 -0.4774  0.5433
 2949TIP3   OH2 8810   6.357   3.087   0.979  0.3350  0.4018  0.5045
 2949TIP3    H1 8811   6.336   3.107   1.070  0.1561  1.1787  0.3027
 2949TIP3    H2 8812   6.437   3.136   0.962  0.8908 -0.4958  0.5152
 2950TIP3   OH2 8813   2.209   5.525   4.049  0.1940 -0.4678  0.2573
 2950TIP3    H1 8814   2.166   5.588   3.991  0.7113  1.5591  1.9389
 2950TIP3    H2 8815   2.140   5.463   4.072 -0.3628 -0.5005 -1.3702
 2951TIP3   OH2 8816   4.721   0.269   3.959 -0.3396 -0.1875  0.2815
 2951TIP3    H1 8817   4.725   0.364   3.952 -1.3601 -0.1297  0.3596
 2951TIP3    H2 8818   4.630   0.250   3.981  0.3047 -1.0422  2.5208
 2952TIP3   OH2 8819   1.440   0.329   5.575  0.0584 -0.2297 -0.7527
 2952TIP3    H1 8820   1.510   0.381   5.535  1.2360 -0.9566  0.2975
 2952TIP3    H2 8821   1.458   0.333   5.669 -1.4185 -0.3089 -0.4528
 2953TIP3   OH2 8822   0.751   0.772   1.728 -0.0515 -0.1081  0.2917
 2953TIP3    H1 8823   0.794   0.688   1.745 -0.4861 -0.2478  0.7270
 2953TIP3    H2 8824   0.695   0.786   1.804  1.8107  1.7581  1.4189
 2954TIP3   OH2 8825   5.257   3.429   5.109  0.1895 -0.1886  0.7391
 2954TIP3    H1 8826   5.162   3.436   5.113  0.2730  0.4230  2.7746
 2954TIP3    H2 8827   5.273   3.343   5.071 -1.1476  0.0241 -0.3928
 2955TIP3   OH2 8828   6.517   4.251   2.517  0.3455  0.5756 -0.0227
 2955TIP3    H1 8829   6.423   4.265   2.526  0.3172  0.2987  0.1256
 2955TIP3    H2 8830   6.538   4.186   2.583  0.5850  0.3914 -0.2767
 2956TIP3   OH2 8831   2.065   5.085   5.571  0.0403  0.1662 -0.3613
 2956TIP3    H1 8832   2.070   5.134   5.653  0.8219  1.4354 -1.1126
 2956TIP3    H2 8833   1.975   5.098   5.540 -0.6685 -1.4342  0.9062
 2957TIP3   OH2 8834   0.039   1.162   3.518 -0.4183  0.0548  0.0413
 2957TIP3    H1 8835   0.004   1.233   3.571  2.1522  0.4132  1.4456
 2957TIP3    H2 8836   0.044   1.198   3.429 -0.6824  1.0366  0.4145
 2958TIP3   OH2 8837   4.138   3.976   2.447 -0.3355 -0.2551  0.2816
 2958TIP3    H1 8838   4.091   3.917   2.388 -2.0895 -0.5616  1.8736
 2958TIP3    H2 8839   4.085   4.056   2.449  1.0992  0.7776 -0.5081
 2959TIP3   OH2 8840   2.056   6.543   3.303 -0.8189  0.0071 -0.0168
 2959TIP3    H1 8841   1.967   6.565   3.331 -0.1362 -0.6495  3.0251
 2959TIP3    H2 8842   2.111   6.605   3.350  0.4097  0.0372 -1.4329
 2960TIP3   OH2 8843   3.717   5.774   0.653 -0.3539 -0.6823 -0.2178
 2960TIP3    H1 8844   3.792   5.757   0.595 -1.3456 -1.5752 -1.2816
 2960TIP3    H2 8845   3.757   5.795   0.738  1.2697  3.1132 -1.6855
 2961TIP3   OH2 8846   3.851   4.963   3.767  0.2791 -0.2667  0.2869
 2961TIP3    H1 8847   3.836   5.017   3.689 -0.0925 -0.1330  0.4484
 2961TIP3    H2 8848   3.839   4.873   3.736  0.4083 -0.2301  0.1279
 2962TIP3   OH2 8849   3.417   3.785   4.559 -0.1901 -0.4114  0.2256
 2962TIP3    H1 8850   3.410   3.855   4.624  0.5274  0.2879 -0.4212
 2962TIP3    H2 8851   3.389   3.706   4.605  0.3549  0.0583  1.4050
 2963TIP3   OH2 8852   3.941   3.962   3.226 -0.0551 -0.0253 -0.4855
 2963TIP3    H1 8853   3.946   4.042   3.173 -1.0995 -0.5474 -1.4248
 2963TIP3    H2 8854   3.930   3.993   3.316  0.5060  0.8761 -0.7128
 2964TIP3   OH2 8855   3.700   5.684   5.189  0.2042  0.3178 -0.0121
 2964TIP3    H1 8856   3.765   5.676   5.259  0.6389 -0.0604 -0.4519
 2964TIP3    H2 8857   3.657   5.768   5.206  0.5176  0.3744  0.5269
 2965TIP3   OH2 8858   4.563   0.268   1.876 -0.2528 -0.2656 -0.4325
 2965TIP3    H1 8859   4.566   0.297   1.967 -1.7784  1.6193 -0.9204
 2965TIP3    H2 8860   4.538   0.176   1.881  1.1718 -0.6235  1.0633
 2966TIP3   OH2 8861   1.728   3.948   2.992  0.8460 -0.2018  0.3423
 2966TIP3    H1 8862   1.702   4.018   2.932  2.5094 -0.2105 -0.4447
 2966TIP3    H2 8863   1.763   3.993   3.068  0.2422 -0.1938  0.6216
 2967TIP3   OH2 8864   6.489   2.458   2.770  0.1582 -0.5859  0.1056
 2967TIP3    H1 8865   6.449   2.371   2.769 -0.4226 -0.3277  0.1028
 2967TIP3    H2 8866   6.569   2.448   2.822  0.8256 -1.4249 -1.0418
 2968TIP3   OH2 8867   6.474   3.693   4.285 -0.2947  0.6007 -0.5177
 2968TIP3    H1 8868   6.568   3.693   4.268 -0.2463 -1.0428 -0.3511
 2968TIP3    H2 8869   6.444   3.777   4.250  1.3484  1.5193  0.1471
 2969TIP3   OH2 8870   7.199   1.901   1.954 -0.5145 -0.0854  0.9264
 2969TIP3    H1 8871   7.182   1.976   2.011 -1.6142 -0.8983  1.6800
 2969TIP3    H2 8872   7.166   1.929   1.868 -2.0971 -0.1555  1.4856
 2970TIP3   OH2 8873   2.961   1.765   3.734  0.2550 -0.0233 -0.0029
 2970TIP3    H1 8874   2.932   1.755   3.643  0.0457  0.1408  0.0444
 2970TIP3    H2 8875   2.994   1.855   3.738  1.0491 -0.3097 -0.1331
 2971TIP3   OH2 8876   2.123   5.737   0.202 -0.3869  0.3177 -0.1074
 2971TIP3    H1 8877   2.152   5.817   0.159 -0.5835  0.3161 -0.2399
 2971TIP3    H2 8878   2.101   5.678   0.131  1.7636 -0.6116 -0.0723
 2972TIP3   OH2 8879   3.466   1.609   0.253  0.1346 -0.2642 -0.2680
 2972TIP3    H1 8880   3.436   1.683   0.201 -0.5831  0.2188  0.7938
 2972TIP3    H2 8881   3.557   1.597   0.227 -0.2490 -0.1654 -1.7459
 2973TIP3   OH2 8882   0.598   3.396   1.979 -0.4168  0.2153  0.5938
 2973TIP3    H1 8883   0.628   3.333   2.045 -2.4560 -0.5428  0.8671
 2973TIP3    H2 8884   0.671   3.402   1.917  0.1328 -1.8697  0.9537
 2974TIP3   OH2 8885   1.256   4.818   2.151  0.0100  0.0925 -0.3230
 2974TIP3    H1 8886   1.348   4.800   2.133 -0.4673 -1.0829 -1.8174
 2974TIP3    H2 8887   1.256   4.855   2.239  1.8628 -0.3080 -0.1009
 2975TIP3   OH2 8888   1.926   6.608   1.608 -0.9439  0.6362 -0.9677
 2975TIP3    H1 8889   1.875   6.566   1.677 -0.9310  0.3495 -1.1308
 2975TIP3    H2 8890   1.921   6.548   1.534  1.0989 -0.2990 -0.4188
 2976TIP3   OH2 8891   4.682   2.675   2.744 -0.7494 -0.3883  0.1330
 2976TIP3    H1 8892   4.616   2.669   2.675  0.1395 -0.2755 -0.7367
 2976TIP3    H2 8893   4.641   2.731   2.811 -1.9931 -1.2909  0.1575
 2977TIP3   OH2 8894   1.335   0.264   3.135  0.3650  0.0001 -0.2256
 2977TIP3    H1 8895   1.356   0.195   3.073  1.0564 -0.6078  0.6488
 2977TIP3    H2 8896   1.416   0.275   3.187 -0.3015  0.2186  0.8083
 2978TIP3   OH2 8897   6.947   6.154   3.194 -0.0992 -0.0017  0.2518
 2978TIP3    H1 8898   6.932   6.135   3.101 -1.3207 -2.0220  0.7835
 2978TIP3    H2 8899   6.999   6.234   3.194 -2.0961  1.4669 -2.1174
 2979TIP3   OH2 8900   2.529   3.465   3.152 -0.3880  0.4006  0.1537
 2979TIP3    H1 8901   2.620   3.453   3.123  0.8953  2.0036  3.0921
 2979TIP3    H2 8902   2.502   3.380   3.185  0.8340  0.3824  1.1649
 2980TIP3   OH2 8903   4.603   3.441   1.783 -0.0519 -0.7430  0.1384
 2980TIP3    H1 8904   4.543   3.366   1.777  0.1290 -0.7549 -2.1565
 2980TIP3    H2 8905   4.669   3.424   1.717 -0.8873  2.2033 -1.6210
 2981TIP3   OH2 8906   1.813   2.926   3.103 -0.2349  0.6389  0.2331
 2981TIP3    H1 8907   1.788   2.840   3.069 -0.5329  0.9767 -0.4038
 2981TIP3    H2 8908   1.900   2.942   3.066 -0.4552  0.8993 -0.1696
 2982TIP3   OH2 8909   5.971   4.109   0.033 -0.4983  0.3781 -0.4375
 2982TIP3    H1 8910   6.063   4.097   0.012  0.1002 -1.6123  2.5715
 2982TIP3    H2 8911   5.966   4.195   0.075  0.4444 -0.2567  1.0639
 2983TIP3   OH2 8912   3.919   1.124   2.618  0.3591 -0.1116 -0.0450
 2983TIP3    H1 8913   3.948   1.160   2.702  1.2915  0.9243 -0.7788
 2983TIP3    H2 8914   3.860   1.191   2.582 -1.3945 -1.2914  0.4997
 2984TIP3   OH2 8915   6.670   6.053   4.584  0.2937 -0.5604  0.1595
 2984TIP3    H1 8916   6.725   6.127   4.558 -1.0498 -0.5397 -3.1407
 2984TIP3    H2 8917   6.581   6.083   4.566 -0.3703 -2.5262 -0.0416
 2985TIP3   OH2 8918   1.988   5.575   5.776  0.0990  0.7100 -0.7560
 2985TIP3    H1 8919   1.925   5.579   5.848 -0.4612 -0.8858 -1.1064
 2985TIP3    H2 8920   1.938   5.539   5.703  0.9877  1.0850 -1.5726
 2986TIP3   OH2 8921   1.616   0.691   2.720 -0.1085  0.1672 -0.5881
 2986TIP3    H1 8922   1.652   0.774   2.691  2.1709 -0.3142  0.5989
 2986TIP3    H2 8923   1.688   0.628   2.708 -1.8540 -1.7459 -1.7982
 2987TIP3   OH2 8924   3.089   4.009   1.916  0.4028  0.4991  0.0870
 2987TIP3    H1 8925   3.128   4.079   1.863  0.3252  0.7677  0.3842
 2987TIP3    H2 8926   3.122   4.023   2.004  1.1319 -0.3969 -0.0244
 2988TIP3   OH2 8927   2.886   2.290   1.504 -0.5063 -0.0001  0.3570
 2988TIP3    H1 8928   2.980   2.311   1.500 -0.5168  0.5991  2.2925
 2988TIP3    H2 8929   2.877   2.213   1.448  1.0480  0.2115 -0.2618
 2989TIP3   OH2 8930   3.603   2.244   0.521 -0.2856 -0.4872 -0.4272
 2989TIP3    H1 8931   3.671   2.290   0.571 -2.1630  2.5218 -0.3352
 2989TIP3    H2 8932   3.537   2.221   0.587 -0.8410 -0.3595 -0.9307
 2990TIP3   OH2 8933   5.566   1.128   0.153 -0.1382  0.2548  0.0992
 2990TIP3    H1 8934   5.598   1.210   0.115  3.0362  0.0304  1.9547
 2990TIP3    H2 8935   5.505   1.155   0.221 -0.4350  0.9720 -0.4337
 2991TIP3   OH2 8936   6.010   5.401   3.386  0.0391  0.8443  0.5490
 2991TIP3    H1 8937   5.924   5.363   3.369  0.6944 -0.1931 -0.5615
 2991TIP3    H2 8938   6.048   5.415   3.300  0.9787  1.3223  1.0256
 2992TIP3   OH2 8939   7.097   1.558   2.599 -0.1115  0.4444  0.4081
 2992TIP3    H1 8940   7.102   1.625   2.668  0.8398 -0.3387  1.1119
 2992TIP3    H2 8941   7.186   1.524   2.591 -0.1398  0.6904 -1.4100
 2993TIP3   OH2 8942   6.958   6.202   2.909  0.6654  0.1216 -0.0757
 2993TIP3    H1 8943   6.993   6.272   2.964  0.6358 -0.6692  0.9753
 2993TIP3    H2 8944   6.904   6.247   2.844  0.5922  1.0673  0.6205
 2994TIP3   OH2 8945   2.122   5.601   3.619 -0.1880  0.0848  0.2148
 2994TIP3    H1 8946   2.173   5.673   3.582  0.5198  0.3571  1.6659
 2994TIP3    H2 8947   2.183   5.528   3.623 -0.2790  0.0384  0.7764
 2995TIP3   OH2 8948   2.955   1.405   3.538 -0.1759  0.3396  0.1402
 2995TIP3    H1 8949   2.896   1.477   3.516  0.4398  0.9577  0.4886
 2995TIP3    H2 8950   3.042   1.437   3.517  0.0381 -0.5985 -0.4354
 2996TIP3   OH2 8951   5.960   0.676   2.687  0.5888 -0.2656 -0.2346
 2996TIP3    H1 8952   6.003   0.669   2.773 -0.0444 -0.1433  0.1002
 2996TIP3    H2 8953   6.002   0.609   2.634 -0.3729 -1.7482  0.7789
 2997TIP3   OH2 8954   1.835   6.461   2.258  0.2384 -0.4323  0.2206
 2997TIP3    H1 8955   1.898   6.528   2.286 -2.3320  2.7327 -0.8683
 2997TIP3    H2 8956   1.867   6.433   2.172  0.6653  0.4849  0.0671
 2998TIP3   OH2 8957   6.913   2.430   0.708 -0.0666  0.2231 -0.0754
 2998TIP3    H1 8958   6.848   2.493   0.677  1.1286  0.8878 -1.3484
 2998TIP3    H2 8959   6.996   2.477   0.703  0.6484 -0.9307  0.5540
 2999TIP3   OH2 8960   3.891   5.345   4.863  0.1811 -0.0031 -0.1629
 2999TIP3    H1 8961   3.825   5.298   4.813 -1.2516  1.2946  0.4408
 2999TIP3    H2 8962   3.916   5.285   4.933 -0.2990 -0.5281 -0.4394
 3000TIP3   OH2 8963   4.098   0.522   5.828 -0.2077 -0.0220  0.0537
 3000TIP3    H1 8964   4.183   0.498   5.792  0.3474 -0.5067  1.6254
 3000TIP3    H2 8965   4.087   0.465   5.904 -0.7089  1.8536  1.4569
 3001TIP3   OH2 8966   6.056   0.103   1.183 -0.3544 -0.2767 -0.0160
 3001TIP3    H1 8967   6.030   0.024   1.135 -2.1846 -0.5916  1.4111
 3001TIP3    H2 8968   6.052   0.173   1.118 -3.5981 -0.5331 -0.2143
 3002TIP3   OH2 8969   6.855   0.817   2.833  0.1977 -0.1746 -0.3336
 3002TIP3    H1 8970   6.895   0.748   2.886  0.6889  0.3005 -0.0665
 3002TIP3    H2 8971   6.761   0.801   2.839  0.2883 -0.5904  0.0383
 3003TIP3   OH2 8972   2.564   3.168   2.864 -0.0457 -0.9861 -0.1037
 3003TIP3    H1 8973   2.641   3.137   2.815 -0.6919 -0.3352 -1.6219
 3003TIP3    H2 8974   2.513   3.217   2.799  0.2488  2.1322  1.7800
 3004TIP3   OH2 8975   1.426   5.995   0.065  0.2398 -0.3735  0.2941
 3004TIP3    H1 8976   1.442   6.090   0.070 -0.1544 -0.2751 -0.2305
 3004TIP3    H2 8977   1.513   5.957   0.055  0.3801 -0.0415  0.2312
 3005TIP3   OH2 8978   2.877   1.689   0.749  0.1592  0.0217  0.0385
 3005TIP3    H1 8979   2.881   1.600   0.714  0.0568  0.1181 -0.2215
 3005TIP3    H2 8980   2.924   1.742   0.685 -1.5046  0.4722 -0.8542
 3006TIP3   OH2 8981   5.029   3.451   4.491 -0.2358  0.3797  0.3343
 3006TIP3    H1 8982   5.056   3.439   4.582  1.0360 -0.1351 -0.0898
 3006TIP3    H2 8983   4.938   3.421   4.490 -0.6039  1.3682  1.6336
 3007TIP3   OH2 8984   4.019   4.842   1.134 -0.0572  0.0446 -0.6994
 3007TIP3    H1 8985   3.980   4.796   1.208  0.5375  0.0827 -0.3617
 3007TIP3    H2 8986   4.047   4.926   1.169  1.1011 -0.3061 -0.7130
 3008TIP3   OH2 8987   3.361   0.680   5.738  0.0676  0.2486  0.0239
 3008TIP3    H1 8988   3.421   0.708   5.807  0.5519 -0.8930  0.0830
 3008TIP3    H2 8989   3.359   0.753   5.677  0.1266  1.0192  0.9174
 3009TIP3   OH2 8990   7.099   2.716   2.273  0.4529 -0.1034 -0.8261
 3009TIP3    H1 8991   7.153   2.769   2.332 -0.1018 -0.8245  0.3714
 3009TIP3    H2 8992   7.017   2.766   2.265  1.0563  0.7094 -2.1837
 3010TIP3   OH2 8993   5.441   0.268   2.337  0.0107 -0.2594 -0.7210
 3010TIP3    H1 8994   5.490   0.186   2.340  1.5088  0.5900 -0.6993
 3010TIP3    H2 8995   5.358   0.246   2.296  0.2006 -1.8634 -0.2973
 3011TIP3   OH2 8996   0.933   4.006   4.424  0.2488  0.3987  0.2169
 3011TIP3    H1 8997   0.944   3.911   4.420 -2.6144 -0.0375 -0.1018
 3011TIP3    H2 8998   0.920   4.025   4.517 -0.1648  0.3021  0.1826
 3012TIP3   OH2 8999   2.536   0.304   4.548  0.2090 -0.2694  0.6634
 3012TIP3    H1 9000   2.601   0.351   4.601 -0.4526  1.3284  0.1145
 3012TIP3    H2 9001   2.506   0.368   4.484 -0.3729 -1.6137 -0.4695
 3013TIP3   OH2 9002   6.207   6.679   5.618 -0.2580 -0.2636 -0.0197
 3013TIP3    H1 9003   6.219   6.597   5.665 -1.8042 -0.2516  0.4401
 3013TIP3    H2 9004   6.126   6.667   5.568  0.3768  0.3881 -1.2735
 3014TIP3   OH2 9005   2.422   0.853   5.100  0.6459  1.0884  0.6755
 3014TIP3    H1 9006   2.439   0.935   5.146  0.3310  2.6462 -1.7456
 3014TIP3    H2 9007   2.369   0.880   5.024  0.2726 -1.4169 -0.0304
 3015TIP3   OH2 9008   5.892   2.458   1.012 -0.1233 -0.7073  0.1203
 3015TIP3    H1 9009   5.895   2.420   0.924  0.0927 -1.0693  0.2829
 3015TIP3    H2 9010   5.853   2.390   1.066 -0.3189 -0.4581  0.2941
 3016TIP3   OH2 9011   1.179   5.420   4.738  0.1535  0.4224  0.2103
 3016TIP3    H1 9012   1.200   5.385   4.824 -0.3955 -0.8683 -0.1442
 3016TIP3    H2 9013   1.084   5.409   4.730  0.3254 -0.4838 -0.9408
 3017TIP3   OH2 9014   2.157   4.684   1.521 -0.0786 -0.5445  0.1728
 3017TIP3    H1 9015   2.208   4.754   1.562 -1.6514  0.5756  0.3073
 3017TIP3    H2 9016   2.203   4.666   1.439  2.1664 -1.6448  1.5486
 3018TIP3   OH2 9017   6.175   2.385   3.976 -0.0093 -0.7080  0.4958
 3018TIP3    H1 9018   6.122   2.381   4.056  0.6539 -0.0026  0.9810
 3018TIP3    H2 9019   6.165   2.475   3.945  1.7153 -0.2416  1.1781
 3019TIP3   OH2 9020   4.748   2.467   4.795  0.1614 -0.3884 -0.1039
 3019TIP3    H1 9021   4.674   2.446   4.739 -0.1587 -2.3514  0.9509
 3019TIP3    H2 9022   4.715   2.454   4.884  1.2757  0.4534  0.4603
 3020TIP3   OH2 9023   7.149   2.106   2.130 -0.3872  0.9387 -0.1017
 3020TIP3    H1 9024   7.105   2.104   2.215 -0.6292  0.3183 -0.2350
 3020TIP3    H2 9025   7.225   2.163   2.143 -0.9680  1.6364  0.2606
 3021TIP3   OH2 9026   4.369   2.679   4.987  0.4852 -0.2876  0.1991
 3021TIP3    H1 9027   4.447   2.732   5.006  0.0531  0.6239 -0.4612
 3021TIP3    H2 9028   4.310   2.740   4.943 -0.0360 -1.3375 -0.5834
 3022TIP3   OH2 9029   3.128   4.977   4.627 -0.0845  0.3770  0.7324
 3022TIP3    H1 9030   3.150   4.893   4.667  0.8399  0.0628 -0.3597
 3022TIP3    H2 9031   3.208   5.001   4.579 -0.8811  1.0854 -0.2664
 3023TIP3   OH2 9032   3.035   2.525   2.648 -0.3523 -0.2486  0.5491
 3023TIP3    H1 9033   2.949   2.509   2.685  0.1867 -3.8002  0.6508
 3023TIP3    H2 9034   3.017   2.555   2.558 -1.7471 -1.8334  0.2494
 3024TIP3   OH2 9035   1.341   6.483   2.261 -0.4841 -0.5475 -0.4131
 3024TIP3    H1 9036   1.285   6.437   2.324 -0.3408  0.0738  0.1702
 3024TIP3    H2 9037   1.428   6.479   2.299 -0.1835 -1.1577 -1.1279
 3025TIP3   OH2 9038   3.849   2.187   0.944 -0.3297  0.5370  0.1402
 3025TIP3    H1 9039   3.868   2.127   0.872  1.0416  0.7584  0.2889
 3025TIP3    H2 9040   3.842   2.273   0.903 -3.9243  0.1679 -0.3145
 3026TIP3   OH2 9041   0.246   1.734   4.362  0.2497 -0.5096 -0.0886
 3026TIP3    H1 9042   0.220   1.802   4.424  1.1630  0.4650 -0.7438
 3026TIP3    H2 9043   0.335   1.711   4.387  0.4190 -0.5183 -0.6740
 3027TIP3   OH2 9044   0.113   1.224   5.215  0.1450  0.9383  0.0566
 3027TIP3    H1 9045   0.060   1.295   5.250 -2.0999  0.0885 -1.3697
 3027TIP3    H2 9046   0.095   1.225   5.121  1.2669 -0.5575 -0.2152
 3028TIP3   OH2 9047   3.441   0.088   5.472  0.1411 -0.2438  0.1795
 3028TIP3    H1 9048   3.501   0.072   5.544 -0.2367 -1.5114  0.2336
 3028TIP3    H2 9049   3.411   0.001   5.445 -0.5928  0.2742 -0.7611
 3029TIP3   OH2 9050   1.532   2.579   2.693  0.3279 -0.6758  0.2666
 3029TIP3    H1 9051   1.509   2.653   2.750  0.4327 -0.9840  0.7113
 3029TIP3    H2 9052   1.625   2.565   2.709  0.2370 -1.1124  0.4286
 3030TIP3   OH2 9053   5.169   5.511   1.479  0.5280  0.2688 -0.6624
 3030TIP3    H1 9054   5.182   5.563   1.400  1.2838 -0.6999 -1.1999
 3030TIP3    H2 9055   5.226   5.435   1.468 -0.2832 -0.5067  0.2520
 3031TIP3   OH2 9056   0.413   3.022   4.584 -0.1547 -0.6000  0.7377
 3031TIP3    H1 9057   0.323   3.056   4.581  0.5380  1.4341  1.2776
 3031TIP3    H2 9058   0.422   2.985   4.671 -0.8169 -1.9886  0.2561
 3032TIP3   OH2 9059   4.989   5.324   4.857  0.2602 -0.1450  0.0712
 3032TIP3    H1 9060   5.046   5.258   4.894 -0.1558 -0.4187  0.2358
 3032TIP3    H2 9061   4.907   5.315   4.906 -0.0221  0.0377 -0.3618
 3033TIP3   OH2 9062   4.785   6.491   3.567  0.0865  0.2168  0.0035
 3033TIP3    H1 9063   4.818   6.552   3.633  0.1289  1.4620 -1.1261
 3033TIP3    H2 9064   4.863   6.466   3.516 -0.0365 -0.2471  0.0410
 3034TIP3   OH2 9065   5.158   6.474   2.558 -0.1274 -0.4711 -0.2196
 3034TIP3    H1 9066   5.089   6.460   2.623  0.5579 -0.6448  0.4847
 3034TIP3    H2 9067   5.121   6.440   2.477 -0.8900 -0.5176  0.1340
 3035TIP3   OH2 9068   3.486   5.831   4.923  0.4224  0.1871 -0.8371
 3035TIP3    H1 9069   3.462   5.739   4.932 -0.6462  0.5031 -0.1610
 3035TIP3    H2 9070   3.533   5.836   4.840  2.5649 -1.3602  0.1912
 3036TIP3   OH2 9071   1.588   0.793   5.845 -0.1169 -0.2040 -0.2217
 3036TIP3    H1 9072   1.542   0.836   5.917 -0.6251  0.3358 -0.8576
 3036TIP3    H2 9073   1.556   0.837   5.766  0.6823 -0.5567 -0.7574
 3037TIP3   OH2 9074   6.493   6.282   1.290  0.0738 -0.1500 -0.6263
 3037TIP3    H1 9075   6.487   6.225   1.367 -3.5579  0.6893 -0.0975
 3037TIP3    H2 9076   6.586   6.306   1.286  0.8274 -2.0407  2.1046
 3038TIP3   OH2 9077   5.547   2.302   3.319 -0.1248  0.0473 -0.1940
 3038TIP3    H1 9078   5.503   2.349   3.248  0.7631  0.9985 -0.1443
 3038TIP3    H2 9079   5.553   2.366   3.390 -1.6309 -1.1068  1.0229
 3039TIP3   OH2 9080   6.590   0.854   2.529 -0.1725 -0.0355 -0.3632
 3039TIP3    H1 9081   6.576   0.871   2.436 -0.2515 -0.1474 -0.3713
 3039TIP3    H2 9082   6.597   0.759   2.535 -0.3691 -0.0416 -0.2256
 3040TIP3   OH2 9083   5.952   3.373   5.277 -0.3544 -0.9424  0.0354
 3040TIP3    H1 9084   5.985   3.322   5.351 -0.3064  0.0501  0.7154
 3040TIP3    H2 9085   5.867   3.405   5.306 -1.1864 -2.0844 -1.0650
 3041TIP3   OH2 9086   4.643   2.175   3.002 -0.7304  0.0083 -0.0771
 3041TIP3    H1 9087   4.717   2.166   2.943 -0.6053 -2.8068  0.3841
 3041TIP3    H2 9088   4.663   2.253   3.054  0.1729  1.3100 -2.2425
 3042TIP3   OH2 9089   3.529   1.030   3.320  0.2801  0.1009  0.1151
 3042TIP3    H1 9090   3.610   1.011   3.367  0.3518  1.1547  0.4242
 3042TIP3    H2 9091   3.555   1.089   3.249  0.1707 -1.4103 -1.2722
 3043TIP3   OH2 9092   0.492   1.650   3.885  0.4911  0.5433 -0.0316
 3043TIP3    H1 9093   0.481   1.560   3.855 -0.0158  0.5845  0.0119
 3043TIP3    H2 9094   0.546   1.692   3.819 -0.8426  0.7149 -1.0508
 3044TIP3   OH2 9095   4.700   2.328   3.229 -0.4847 -0.2220 -0.1356
 3044TIP3    H1 9096   4.775   2.273   3.206 -0.9202 -0.6200 -0.6272
 3044TIP3    H2 9097   4.731   2.417   3.214 -0.3662 -0.4191 -1.1776
 3045TIP3   OH2 9098   5.905   5.748   4.081 -0.0619  0.2379 -0.2816
 3045TIP3    H1 9099   5.967   5.767   4.010  2.5983 -0.7500  1.6326
 3045TIP3    H2 9100   5.888   5.654   4.074 -1.5768  0.5132 -0.8675
 3046TIP3   OH2 9101   4.817   0.400   1.351  0.2377 -0.4999  0.6115
 3046TIP3    H1 9102   4.802   0.493   1.336  0.9600 -0.2275  1.4909
 3046TIP3    H2 9103   4.754   0.356   1.294 -2.6045  0.5261  2.7376
 3047TIP3   OH2 9104   3.215   6.009   3.512  0.7054 -0.7327  0.5872
 3047TIP3    H1 9105   3.135   6.047   3.548  1.1185 -0.4819  1.2785
 3047TIP3    H2 9106   3.275   6.005   3.587  1.9251  0.6737 -0.2641
 3048TIP3   OH2 9107   0.792   0.973   5.201 -0.5707 -0.3025  0.0286
 3048TIP3    H1 9108   0.705   0.977   5.241  0.1664 -0.1311  1.6992
 3048TIP3    H2 9109   0.845   1.031   5.255  0.5752 -0.3761 -0.9955
 3049TIP3   OH2 9110   4.312   5.312   2.884 -0.1770 -0.0514 -0.4825
 3049TIP3    H1 9111   4.231   5.362   2.877  0.0284  0.0683 -2.3630
 3049TIP3    H2 9112   4.365   5.340   2.810  0.7339 -1.6554 -0.4992
 3050TIP3   OH2 9113   5.761   0.153   5.782 -0.9055 -0.7716 -0.0634
 3050TIP3    H1 9114   5.769   0.057   5.784 -2.3787 -0.9146  1.2914
 3050TIP3    H2 9115   5.732   0.176   5.870 -1.2057  0.8599 -0.5638
 3051TIP3   OH2 9116   0.193   0.253   0.168  0.0020  0.0593 -0.4911
 3051TIP3    H1 9117   0.249   0.305   0.110 -1.3070 -2.1785 -4.1477
 3051TIP3    H2 9118   0.120   0.311   0.188  0.4615  0.9065 -1.1496
 3052TIP3   OH2 9119   1.882   3.739   4.968  0.3371  0.2432 -0.2579
 3052TIP3    H1 9120   1.931   3.659   4.951 -0.4305 -0.3259  0.1730
 3052TIP3    H2 9121   1.874   3.742   5.063  0.2625  0.7764 -0.2769
 3053TIP3   OH2 9122   4.696   2.376   0.497  0.3091 -0.0634 -0.3253
 3053TIP3    H1 9123   4.604   2.400   0.495  0.3940  0.2514 -2.2764
 3053TIP3    H2 9124   4.697   2.283   0.518 -0.5246 -0.3224 -1.3628
 3054TIP3   OH2 9125   2.985   4.879   2.840  0.6631 -0.0939 -0.1200
 3054TIP3    H1 9126   2.987   4.857   2.933  0.7713  2.2226  0.4812
 3054TIP3    H2 9127   2.947   4.967   2.837 -1.7667 -1.0906 -2.4975
 3055TIP3   OH2 9128   3.812   0.890   3.193 -0.6899  0.1119  0.1880
 3055TIP3    H1 9129   3.723   0.855   3.196 -0.5266 -0.2331  1.3661
 3055TIP3    H2 9130   3.831   0.917   3.282  0.7577 -0.8011  0.1994
 3056TIP3   OH2 9131   2.191   2.412   2.925 -0.1537  0.2846  0.1991
 3056TIP3    H1 9132   2.104   2.380   2.904  0.6278 -0.9698 -1.3122
 3056TIP3    H2 9133   2.220   2.356   2.997  0.3869 -1.0577 -1.0332
 3057TIP3   OH2 9134   4.862   5.670   2.026  0.1815  0.0912 -0.0112
 3057TIP3    H1 9135   4.895   5.686   2.115 -1.4318 -1.0674  0.8459
 3057TIP3    H2 9136   4.913   5.595   1.995  2.0622  1.6353 -0.8574
 3058TIP3   OH2 9137   4.582   0.119   3.099 -0.0930  0.6248 -0.3307
 3058TIP3    H1 9138   4.487   0.118   3.089  0.0861 -0.0126 -2.9271
 3058TIP3    H2 9139   4.606   0.211   3.089 -0.4109  0.7041 -0.3879
 3059TIP3   OH2 9140   5.593   6.695   1.079 -0.0463 -0.4198  0.5593
 3059TIP3    H1 9141   5.504   6.713   1.107  0.5226  0.5676  1.8308
 3059TIP3    H2 9142   5.595   6.600   1.066 -1.2761 -0.4511  0.4963
 3060TIP3   OH2 9143   4.700   3.670   3.104 -0.5266  0.0302  0.4671
 3060TIP3    H1 9144   4.700   3.602   3.171  0.5056 -0.8741 -0.4148
 3060TIP3    H2 9145   4.608   3.681   3.080 -0.5862 -2.4481 -0.7284
 3061TIP3   OH2 9146   6.319   2.264   5.184  0.7273 -0.6745 -0.2181
 3061TIP3    H1 9147   6.245   2.298   5.234 -0.1750 -1.9364 -0.6514
 3061TIP3    H2 9148   6.388   2.250   5.250  0.2053 -0.5168  0.3745
 3062TIP3   OH2 9149   2.560   3.207   4.125  0.4025 -0.4523 -0.0221
 3062TIP3    H1 9150   2.573   3.113   4.114  2.7185 -0.1594 -0.3488
 3062TIP3    H2 9151   2.527   3.236   4.040  3.0201 -0.5395 -1.1792
 3063TIP3   OH2 9152   6.242   2.136   1.639  0.1681  0.4429 -0.2940
 3063TIP3    H1 9153   6.186   2.165   1.567 -0.6173 -0.0207  0.1150
 3063TIP3    H2 9154   6.270   2.217   1.682  1.0002  0.7449 -1.3646
 3064TIP3   OH2 9155   7.174   6.074   0.525  0.2275 -0.5400 -0.7006
 3064TIP3    H1 9156   7.259   6.102   0.490  0.5833  0.5336  0.8896
 3064TIP3    H2 9157   7.143   6.150   0.574 -0.8659 -1.4975  0.1304
 3065TIP3   OH2 9158   3.536   4.851   5.648  0.5597  0.0510  0.2561
 3065TIP3    H1 9159   3.449   4.819   5.673 -1.0720  2.3303 -2.0430
 3065TIP3    H2 9160   3.550   4.927   5.703  0.7144  0.1737  0.0477
 3066TIP3   OH2 9161   4.796   4.875   1.714 -0.4307  0.5304  0.4994
 3066TIP3    H1 9162   4.834   4.856   1.628 -0.2641  3.4738 -0.1622
 3066TIP3    H2 9163   4.798   4.790   1.760  1.9023 -0.5801 -1.4200
 3067TIP3   OH2 9164   3.934   4.336   3.419  0.3637  0.5063 -0.0602
 3067TIP3    H1 9165   3.849   4.334   3.375  0.4619  0.3847 -0.2453
 3067TIP3    H2 9166   3.948   4.428   3.440 -0.7086  0.3316  1.7163
 3068TIP3   OH2 9167   1.107   2.841   4.324  0.1731 -0.3203  0.3141
 3068TIP3    H1 9168   1.018   2.806   4.322  0.4647 -1.0430 -0.4833
 3068TIP3    H2 9169   1.161   2.772   4.286  0.7083  1.2188 -1.9174
 3069TIP3   OH2 9170   7.215   0.059   1.635 -0.6830 -0.3204 -0.6726
 3069TIP3    H1 9171   7.162   0.006   1.694  1.0556 -1.2451  0.1472
 3069TIP3    H2 9172   7.200   0.149   1.663  0.0135 -0.7299  1.1895
 3070TIP3   OH2 9173   4.561   4.041   1.258  0.0468 -0.2441 -0.0569
 3070TIP3    H1 9174   4.610   3.966   1.294 -0.2842 -1.1526 -1.4187
 3070TIP3    H2 9175   4.551   4.020   1.165  0.1242  1.6190 -0.5129
 3071TIP3   OH2 9176   4.063   6.650   0.657 -0.2331 -0.5307  0.2542
 3071TIP3    H1 9177   4.114   6.725   0.627 -0.1814 -1.1237 -1.1895
 3071TIP3    H2 9178   3.973   6.673   0.636 -0.4555 -0.0676  1.5822
 3072TIP3   OH2 9179   5.068   5.708   0.820  0.1339 -0.4214  0.4561
 3072TIP3    H1 9180   5.031   5.654   0.750  0.5949 -0.8296  0.5267
 3072TIP3    H2 9181   4.994   5.762   0.849  0.3888  1.2399 -1.7017
 3073TIP3   OH2 9182   3.666   5.435   0.140  0.4272 -0.4542  0.4950
 3073TIP3    H1 9183   3.692   5.525   0.163  2.1048 -0.9103  0.4648
 3073TIP3    H2 9184   3.692   5.425   0.049  1.2909 -1.3343  0.8248
 3074TIP3   OH2 9185   4.644   5.407   1.409 -0.1602  0.6573  0.3230
 3074TIP3    H1 9186   4.715   5.373   1.462  0.0846  0.1665 -0.2966
 3074TIP3    H2 9187   4.617   5.332   1.355  0.8927  1.5923 -1.6290
 3075TIP3   OH2 9188   4.262   3.512   5.312 -0.0849  0.0463 -1.1426
 3075TIP3    H1 9189   4.166   3.510   5.307 -0.2452  0.4561  0.7467
 3075TIP3    H2 9190   4.287   3.586   5.258 -0.9532  0.6739 -0.7208
 3076TIP3   OH2 9191   0.880   1.844   0.407 -0.2461 -0.1884  0.3676
 3076TIP3    H1 9192   0.895   1.835   0.313 -2.0554  1.0139 -0.0789
 3076TIP3    H2 9193   0.826   1.922   0.415 -1.1730 -0.9808  2.3081
 3077TIP3   OH2 9194   6.101   5.646   3.837 -0.1536  0.8660  0.1902
 3077TIP3    H1 9195   6.093   5.741   3.825  1.9964  1.1374  0.4720
 3077TIP3    H2 9196   6.017   5.611   3.808 -0.6450  2.7750 -0.8651
 3078TIP3   OH2 9197   6.557   5.698   5.562 -0.1349 -0.6700 -0.4519
 3078TIP3    H1 9198   6.581   5.686   5.654 -0.5671 -1.0252 -0.3829
 3078TIP3    H2 9199   6.595   5.623   5.517  1.5468  0.3748 -0.8524
 3079TIP3   OH2 9200   0.056   2.104   1.267 -0.0350 -0.2361 -0.5326
 3079TIP3    H1 9201   0.141   2.130   1.301  0.6702 -0.6174 -1.8958
 3079TIP3    H2 9202   0.011   2.186   1.249  1.4406  0.1362 -3.0443
 3080TIP3   OH2 9203   2.664   3.800   4.716  0.0224 -0.3873  0.2889
 3080TIP3    H1 9204   2.629   3.778   4.803  0.7507  0.5742  0.8436
 3080TIP3    H2 9205   2.599   3.766   4.655 -1.0327 -0.1507  1.2371
 3081TIP3   OH2 9206   3.889   0.057   0.917  0.6136 -0.4968  0.1079
 3081TIP3    H1 9207   3.801   0.091   0.936 -0.1829 -0.7660 -2.7650
 3081TIP3    H2 9208   3.936   0.068   1.000 -1.5046  1.5431  1.1765
 3082TIP3   OH2 9209   2.795   5.486   0.152 -0.0404  0.0236  0.7116
 3082TIP3    H1 9210   2.718   5.447   0.110 -0.2151  1.0079  0.0736
 3082TIP3    H2 9211   2.804   5.439   0.235 -0.4720 -1.0810  0.1563
 3083TIP3   OH2 9212   4.546   1.674   5.061 -0.1355 -0.4095  0.4114
 3083TIP3    H1 9213   4.527   1.689   4.968 -1.6369 -0.1156  0.7267
 3083TIP3    H2 9214   4.641   1.673   5.067  0.0005 -1.1710 -1.2430
 3084TIP3   OH2 9215   4.960   6.389   3.766 -0.1188 -0.2828 -0.1410
 3084TIP3    H1 9216   4.889   6.329   3.789  0.8233 -1.0143  0.9894
 3084TIP3    H2 9217   4.927   6.476   3.789 -1.4695 -0.3350 -1.7092
 3085TIP3   OH2 9218   5.522   6.285   4.011  0.1238  0.0491  0.0522
 3085TIP3    H1 9219   5.541   6.217   4.075  2.7309 -1.2357 -1.9069
 3085TIP3    H2 9220   5.481   6.239   3.938  0.4174  0.8732 -0.6450
 3086TIP3   OH2 9221   0.365   3.254   5.097 -0.1569  0.2169 -0.3686
 3086TIP3    H1 9222   0.318   3.201   5.033  0.2640 -1.5389  0.7137
 3086TIP3    H2 9223   0.449   3.272   5.055  0.0474 -0.7638 -0.4000
 3087TIP3   OH2 9224   1.084   0.116   3.719 -0.8416 -0.2985  0.0787
 3087TIP3    H1 9225   1.106   0.091   3.809 -0.2312  1.0556  0.3352
 3087TIP3    H2 9226   1.147   0.184   3.697 -0.1796 -1.4700 -1.8567
 3088TIP3   OH2 9227   2.981   0.290   0.436  0.4690  0.5214  0.2407
 3088TIP3    H1 9228   3.075   0.309   0.434  0.9267 -1.4373  0.4514
 3088TIP3    H2 9229   2.976   0.199   0.466 -1.3338 -0.3319 -2.3371
 3089TIP3   OH2 9230   4.310   0.106   3.061  0.2595 -0.1955 -0.3601
 3089TIP3    H1 9231   4.304   0.064   2.975 -2.0122 -0.2330 -0.2543
 3089TIP3    H2 9232   4.244   0.176   3.058  0.5110  0.1416  1.1570
 3090TIP3   OH2 9233   1.558   5.749   3.801  0.3436 -0.2297  0.1966
 3090TIP3    H1 9234   1.570   5.820   3.738 -0.9930 -0.1814 -0.0318
 3090TIP3    H2 9235   1.629   5.688   3.782  0.2473  0.0168 -1.0658
 3091TIP3   OH2 9236   5.313   5.847   5.535 -0.1011  0.1151  0.1190
 3091TIP3    H1 9237   5.306   5.938   5.563  0.3513 -0.2916  1.6190
 3091TIP3    H2 9238   5.382   5.847   5.469 -0.0190  0.8426  0.1992
 3092TIP3   OH2 9239   2.982   6.584   0.177  0.0859 -0.2393 -0.4398
 3092TIP3    H1 9240   3.068   6.599   0.216 -0.0288 -0.6325 -0.0255
 3092TIP3    H2 9241   3.001   6.560   0.087  0.3862  0.0860 -0.4669
 3093TIP3   OH2 9242   4.995   1.962   4.314 -0.6066 -0.1468 -0.0011
 3093TIP3    H1 9243   4.975   2.047   4.353  1.5469  0.5387 -0.2368
 3093TIP3    H2 9244   5.082   1.974   4.274 -0.6526 -2.1957 -0.8444
 3094TIP3   OH2 9245   2.143   0.741   5.541  0.2330  0.6000  0.2963
 3094TIP3    H1 9246   2.200   0.665   5.550  1.8499  1.9477  2.1752
 3094TIP3    H2 9247   2.062   0.716   5.586 -0.7070 -1.2284 -2.1662
 3095TIP3   OH2 9248   5.630   6.457   4.666  0.2515 -0.6632  0.2415
 3095TIP3    H1 9249   5.712   6.506   4.669  0.4968 -1.0287 -0.3495
 3095TIP3    H2 9250   5.657   6.365   4.674 -0.1964 -0.7150  1.2777
 3096TIP3   OH2 9251   1.898   1.339   0.455  0.2085 -0.6870 -0.0128
 3096TIP3    H1 9252   1.889   1.404   0.525  1.3557 -0.6332  0.1034
 3096TIP3    H2 9253   1.952   1.382   0.389 -0.8440 -0.7482 -0.9410
 3097TIP3   OH2 9254   2.546   4.451   3.205  0.2977 -0.2463  0.2941
 3097TIP3    H1 9255   2.451   4.457   3.195  0.4309  0.4703 -0.6649
 3097TIP3    H2 9256   2.560   4.435   3.298 -0.7422 -0.0096  0.4971
 3098TIP3   OH2 9257   4.136   0.239   5.279 -0.3169  0.0470 -1.0453
 3098TIP3    H1 9258   4.176   0.296   5.345  1.1675 -0.7861 -1.1879
 3098TIP3    H2 9259   4.044   0.232   5.306 -0.6609  2.7780 -1.2306
 3099TIP3   OH2 9260   0.315   3.943   1.497 -0.0415  0.4563 -0.1450
 3099TIP3    H1 9261   0.262   3.911   1.571 -0.4194  2.6516  0.5901
 3099TIP3    H2 9262   0.396   3.892   1.503 -0.8665 -0.8510  0.5296
 3100TIP3   OH2 9263   3.479   0.906   2.411 -0.3294 -0.3746  0.4755
 3100TIP3    H1 9264   3.443   0.828   2.369 -1.0979 -0.7496  1.7985
 3100TIP3    H2 9265   3.411   0.973   2.400  0.1950  0.0455 -0.3724
 3101TIP3   OH2 9266   4.315   3.544   2.518 -0.0534 -0.3577  0.2883
 3101TIP3    H1 9267   4.322   3.463   2.568 -0.4136 -0.7647 -0.3096
 3101TIP3    H2 9268   4.224   3.571   2.528  0.0903  0.0263  0.5682
 3102TIP3   OH2 9269   2.747   6.717   1.359 -0.4530  0.1541 -0.3164
 3102TIP3    H1 9270   2.829   6.752   1.392 -0.3040 -0.7397  0.2850
 3102TIP3    H2 9271   2.766   6.694   1.267  0.0414 -0.2613 -0.1155
 3103TIP3   OH2 9272   1.333   0.550   2.465  0.4007 -0.3123  0.4295
 3103TIP3    H1 9273   1.245   0.576   2.439  0.3077 -1.1501 -0.1398
 3103TIP3    H2 9274   1.333   0.555   2.560 -0.0133  0.4419  0.3978
 3104TIP3   OH2 9275   4.245   5.615   1.874  0.5002 -0.4692  0.4982
 3104TIP3    H1 9276   4.287   5.532   1.895  1.0530 -0.8717 -1.9404
 3104TIP3    H2 9277   4.312   5.664   1.825 -0.5331  0.5202  0.0411
 3105TIP3   OH2 9278   2.055   2.158   5.074 -0.3092  0.2444 -0.8816
 3105TIP3    H1 9279   2.002   2.197   5.005  0.9782  1.2091 -1.3491
 3105TIP3    H2 9280   2.032   2.065   5.071 -2.1134  0.6521 -0.9137
 3106TIP3   OH2 9281   5.947   4.162   0.359 -0.5856  0.1891  0.0424
 3106TIP3    H1 9282   5.933   4.255   0.376  1.2826  0.6201 -0.4788
 3106TIP3    H2 9283   5.913   4.148   0.271  0.2317  0.6794 -0.3588
 3107TIP3   OH2 9284   0.407   5.495   5.354  0.2652 -0.3412  0.0764
 3107TIP3    H1 9285   0.412   5.420   5.296 -0.6664 -0.2570 -0.1283
 3107TIP3    H2 9286   0.341   5.552   5.315 -2.1823 -1.3577  2.3663
 3108TIP3   OH2 9287   3.475   3.216   0.468  0.1647 -0.1458 -0.1557
 3108TIP3    H1 9288   3.552   3.262   0.433 -0.0804  0.2681 -0.1515
 3108TIP3    H2 9289   3.404   3.239   0.408  0.0097 -0.4096 -0.0745
 3109TIP3   OH2 9290   5.816   4.747   0.195  0.5067  0.2390  0.5108
 3109TIP3    H1 9291   5.797   4.775   0.105 -0.7847 -1.0902  0.3248
 3109TIP3    H2 9292   5.804   4.825   0.248  2.3008  1.3035 -0.5632
 3110TIP3   OH2 9293   3.992   5.184   5.801 -0.3050 -0.7236 -0.1403
 3110TIP3    H1 9294   3.994   5.089   5.816 -0.1492 -0.7148 -0.1031
 3110TIP3    H2 9295   4.084   5.209   5.799 -0.3409 -0.2266  2.0657
 3111TIP3   OH2 9296   6.946   4.778   4.313  0.3030 -0.8077  0.2036
 3111TIP3    H1 9297   6.924   4.817   4.398 -0.9433 -0.1130 -0.4067
 3111TIP3    H2 9298   6.891   4.699   4.308  0.8234 -1.1795  0.2927
 3112TIP3   OH2 9299   4.412   3.409   3.082 -0.0252 -0.1750 -0.2236
 3112TIP3    H1 9300   4.405   3.505   3.088 -0.1498 -0.2225  0.5045
 3112TIP3    H2 9301   4.340   3.383   3.024 -0.2206  0.1424 -0.1264
 3113TIP3   OH2 9302   3.121   6.629   3.070  0.1282 -0.2961 -0.1449
 3113TIP3    H1 9303   3.215   6.614   3.074  0.3756  1.2783  1.2370
 3113TIP3    H2 9304   3.108   6.680   2.990  0.5974  0.3313  0.1715
 3114TIP3   OH2 9305   3.365   2.101   5.441 -0.2433  0.1612 -0.1031
 3114TIP3    H1 9306   3.417   2.068   5.515 -2.0257 -1.7252  0.3663
 3114TIP3    H2 9307   3.292   2.147   5.482 -1.0996 -0.6614 -0.6708
 3115TIP3   OH2 9308   1.783   3.028   2.248  0.0369  0.1844  0.4643
 3115TIP3    H1 9309   1.868   3.071   2.236 -0.4166  0.9248 -0.1915
 3115TIP3    H2 9310   1.760   3.045   2.339  0.3561  0.4231  0.5014
 3116TIP3   OH2 9311   5.520   3.455   4.028  0.2507 -0.1350 -0.6604
 3116TIP3    H1 9312   5.518   3.360   4.032  0.4186 -0.1089  0.3115
 3116TIP3    H2 9313   5.453   3.483   4.091  0.0006  0.3896 -1.1526
 3117TIP3   OH2 9314   2.390   5.115   1.394 -0.0834 -0.2868 -0.2402
 3117TIP3    H1 9315   2.408   5.027   1.359  0.7866  0.0707 -0.7147
 3117TIP3    H2 9316   2.306   5.139   1.356 -1.2920 -1.6834  1.4091
 3118TIP3   OH2 9317   3.374   6.435   5.340  0.5826  0.0069  0.4866
 3118TIP3    H1 9318   3.400   6.366   5.280 -0.8286 -0.1914  0.0902
 3118TIP3    H2 9319   3.280   6.446   5.326  0.5970  1.3162  1.2527
 3119TIP3   OH2 9320   3.240   6.549   3.864 -0.1668 -0.1757  0.1994
 3119TIP3    H1 9321   3.273   6.638   3.878 -0.2262 -0.2603  0.8749
 3119TIP3    H2 9322   3.201   6.524   3.947  0.6857 -1.1875  0.3131
 3120TIP3   OH2 9323   5.094   5.444   0.990  0.6389 -0.1144  0.0104
 3120TIP3    H1 9324   5.048   5.528   0.982  1.2440  0.1658 -0.6378
 3120TIP3    H2 9325   5.037   5.390   1.045  0.2156  0.7012  0.3894
 3121TIP3   OH2 9326   5.941   5.929   2.871 -0.3904  0.5144  0.3741
 3121TIP3    H1 9327   5.909   5.988   2.939  0.8163  0.8883  0.6439
 3121TIP3    H2 9328   5.961   5.847   2.917  1.0813  0.9883  0.6277
 3122TIP3   OH2 9329   0.519   6.520   0.361  0.2575 -0.4388  0.5109
 3122TIP3    H1 9330   0.595   6.512   0.419  0.7730  2.3997  0.3588
 3122TIP3    H2 9331   0.540   6.463   0.286  1.4700 -0.9337  1.1958
 3123TIP3   OH2 9332   0.773   4.969   3.507 -0.2996 -0.3571 -0.5119
 3123TIP3    H1 9333   0.724   4.969   3.590 -1.2678 -0.6320 -1.0662
 3123TIP3    H2 9334   0.721   5.024   3.449  0.0725 -0.6307 -1.1131
 3124TIP3   OH2 9335   0.957   3.707   2.889 -0.2823 -0.4529  0.3513
 3124TIP3    H1 9336   1.047   3.674   2.883 -0.3354 -0.7255  0.9919
 3124TIP3    H2 9337   0.902   3.630   2.872 -0.3973 -0.4865  0.8512
 3125TIP3   OH2 9338   4.735   2.632   3.258  0.1789 -0.2130  0.0252
 3125TIP3    H1 9339   4.779   2.706   3.298  1.7994 -0.6727 -0.8275
 3125TIP3    H2 9340   4.650   2.667   3.230  1.4992  1.8101 -1.7882
 3126TIP3   OH2 9341   0.683   4.030   0.678  0.4673  0.2465 -0.1823
 3126TIP3    H1 9342   0.764   4.023   0.730 -0.3626 -1.8874  0.9362
 3126TIP3    H2 9343   0.613   4.016   0.741 -0.6767 -0.2739 -1.5192
 3127TIP3   OH2 9344   4.685   5.321   0.603 -0.1533  0.1528  0.2027
 3127TIP3    H1 9345   4.637   5.392   0.646 -0.2754 -0.3513  0.9272
 3127TIP3    H2 9346   4.766   5.313   0.653 -0.4664 -0.6980  0.5966
 3128TIP3   OH2 9347   4.301   0.399   2.784  0.5730 -0.9184  0.1607
 3128TIP3    H1 9348   4.243   0.373   2.855 -2.7423  0.8639 -1.6630
 3128TIP3    H2 9349   4.310   0.319   2.731  0.8843 -1.5575  1.1516
 3129TIP3   OH2 9350   5.058   3.213   0.678 -0.3229 -0.2372 -0.1391
 3129TIP3    H1 9351   5.041   3.123   0.708  0.2143 -0.1218  0.5282
 3129TIP3    H2 9352   5.050   3.208   0.583 -1.7048 -0.6959 -0.0234
 3130TIP3   OH2 9353   4.224   0.492   3.884 -0.1184 -0.0179 -0.1812
 3130TIP3    H1 9354   4.264   0.492   3.798 -1.9851  1.4709 -1.1342
 3130TIP3    H2 9355   4.295   0.513   3.945  1.4209 -2.0188 -1.1941
 3131TIP3   OH2 9356   5.520   4.224   3.448 -0.0995  0.3651 -0.2247
 3131TIP3    H1 9357   5.517   4.282   3.524 -2.6080  0.2991 -0.1829
 3131TIP3    H2 9358   5.515   4.282   3.373 -1.0396  0.3057 -0.2213
 3132TIP3   OH2 9359   5.420   0.675   4.156 -0.2799  0.7083 -0.0612
 3132TIP3    H1 9360   5.438   0.680   4.250  2.1159  0.0644 -0.4145
 3132TIP3    H2 9361   5.374   0.591   4.145 -0.9713  0.9931  0.5612
 3133TIP3   OH2 9362   4.587   0.562   2.800 -0.7381  0.1350  0.3197
 3133TIP3    H1 9363   4.559   0.651   2.776 -0.2504 -0.3011 -2.1629
 3133TIP3    H2 9364   4.512   0.507   2.778 -0.3164 -0.2903 -0.0591
 3134TIP3   OH2 9365   5.144   0.727   3.319  0.0998  0.1489  0.0133
 3134TIP3    H1 9366   5.238   0.718   3.333  0.0542 -0.0027  0.2227
 3134TIP3    H2 9367   5.121   0.654   3.263  0.2911  0.7841 -0.9135
 3135TIP3   OH2 9368   5.454   4.043   5.284  0.6639 -0.2400  0.3635
 3135TIP3    H1 9369   5.405   4.094   5.348  0.4970  1.4722 -1.0542
 3135TIP3    H2 9370   5.431   3.952   5.304 -1.0198  0.3601  1.3903
 3136TIP3   OH2 9371   5.929   1.630   3.945  0.1603 -0.3730  0.9022
 3136TIP3    H1 9372   5.841   1.594   3.941  0.0072 -0.0859  1.5739
 3136TIP3    H2 9373   5.986   1.555   3.928 -0.2277 -0.2801 -1.1198
 3137TIP3   OH2 9374   2.972   1.830   5.836 -0.9488 -0.4730 -0.6973
 3137TIP3    H1 9375   2.969   1.852   5.929 -0.3381 -0.0799 -0.7672
 3137TIP3    H2 9376   2.913   1.894   5.795 -1.0398 -0.5009 -0.6107
 3138TIP3   OH2 9377   3.625   2.472   0.394 -0.1510 -0.2451 -0.2408
 3138TIP3    H1 9378   3.584   2.396   0.436  0.6346 -0.0365  0.9492
 3138TIP3    H2 9379   3.587   2.548   0.439  0.9673 -0.0298  0.3846
 3139TIP3   OH2 9380   7.189   6.024   2.885  0.2792 -0.6203 -0.2716
 3139TIP3    H1 9381   7.127   6.096   2.885  0.2914 -0.6059 -0.6578
 3139TIP3    H2 9382   7.207   6.008   2.792  1.9437  0.3236 -0.1504
 3140TIP3   OH2 9383   5.861   3.865   1.483  0.2665  0.0295  0.4165
 3140TIP3    H1 9384   5.941   3.915   1.465  2.0689 -2.5298  0.7326
 3140TIP3    H2 9385   5.798   3.898   1.420  2.3775  0.3720 -1.6737
 3141TIP3   OH2 9386   5.011   3.537   2.781 -0.3918  0.0766  0.3318
 3141TIP3    H1 9387   5.036   3.527   2.689 -2.3068 -0.1322 -0.1981
 3141TIP3    H2 9388   5.024   3.450   2.819 -0.2954 -0.0253  0.0693
 3142TIP3   OH2 9389   0.255   4.952   5.405  1.0354  0.4270 -0.2701
 3142TIP3    H1 9390   0.270   4.860   5.428 -1.0763 -0.4589 -2.1454
 3142TIP3    H2 9391   0.335   4.997   5.433  2.1703 -1.9852  0.5891
 3143TIP3   OH2 9392   3.002   4.205   0.309  0.5019 -0.0186 -0.5697
 3143TIP3    H1 9393   3.079   4.218   0.364 -0.5886  0.5904  0.8998
 3143TIP3    H2 9394   2.959   4.129   0.346 -0.2142  0.3532 -0.6152
 3144TIP3   OH2 9395   0.541   0.841   4.136  0.0874 -0.1168 -0.0802
 3144TIP3    H1 9396   0.599   0.784   4.186  2.0373  0.4835 -1.5482
 3144TIP3    H2 9397   0.503   0.784   4.069 -0.3674 -0.3190  0.3410
 3145TIP3   OH2 9398   7.068   5.683   5.032  0.1974  0.4547 -0.3226
 3145TIP3    H1 9399   7.065   5.777   5.018 -0.7324  0.7974  1.8248
 3145TIP3    H2 9400   6.991   5.649   4.985 -0.5009  1.0155  0.3924
 3146TIP3   OH2 9401   3.764   5.969   5.812 -0.5355  0.1654  0.0755
 3146TIP3    H1 9402   3.685   5.922   5.787  0.2302 -1.0022 -0.2272
 3146TIP3    H2 9403   3.834   5.925   5.765  0.1484  2.0895 -0.8111
 3147TIP3   OH2 9404   2.514   4.046   5.626 -0.1947 -0.5257 -0.0579
 3147TIP3    H1 9405   2.430   4.018   5.589  0.5410 -1.3153 -1.1765
 3147TIP3    H2 9406   2.552   4.103   5.558  0.2383 -0.2711  0.3906
 3148TIP3   OH2 9407   7.141   6.795   4.774 -0.7774  0.0062  0.1314
 3148TIP3    H1 9408   7.127   6.724   4.711 -0.9071 -1.2273  1.4784
 3148TIP3    H2 9409   7.235   6.814   4.768 -0.6175 -0.7179  0.1615
 3149TIP3   OH2 9410   2.178   4.100   4.129  0.2406  0.1052  0.0637
 3149TIP3    H1 9411   2.127   4.048   4.191 -0.8249 -0.6812 -1.4028
 3149TIP3    H2 9412   2.179   4.188   4.166 -2.0857  0.1186  0.2588
 3150TIP3   OH2 9413  -0.022   1.398   3.669  0.5147  0.2354  0.4278
 3150TIP3    H1 9414  -0.005   1.447   3.589 -1.1756  1.1541  0.5911
 3150TIP3    H2 9415   0.046   1.426   3.729  2.0512 -0.7552 -0.7670
 3151TIP3   OH2 9416   0.641   5.217   2.121  0.2052 -0.2574 -0.0551
 3151TIP3    H1 9417   0.611   5.131   2.093  0.0318 -0.0904 -0.3927
 3151TIP3    H2 9418   0.641   5.270   2.041 -0.8754  0.3922  0.3504
 3152TIP3   OH2 9419   2.885   5.149   2.816 -0.2637  0.8041 -0.4501
 3152TIP3    H1 9420   2.815   5.167   2.753 -2.1678  0.9464  1.5761
 3152TIP3    H2 9421   2.936   5.230   2.819  0.0227  0.7079 -1.9528
 3153TIP3   OH2 9422   7.155   4.206   0.779  0.3388 -0.5468  0.6585
 3153TIP3    H1 9423   7.111   4.157   0.710  1.8437 -0.4785 -0.4024
 3153TIP3    H2 9424   7.215   4.264   0.733 -0.3251  1.2678  1.9384
 3154TIP3   OH2 9425   0.204   4.389   1.298  0.0295 -0.0527 -0.5066
 3154TIP3    H1 9426   0.213   4.436   1.381  0.7589  0.6001 -0.9434
 3154TIP3    H2 9427   0.191   4.298   1.324  1.4150 -0.0497  0.3302
 3155TIP3   OH2 9428   3.526   1.505   3.455 -0.3789  0.1090 -0.1393
 3155TIP3    H1 9429   3.464   1.435   3.434  0.1591 -0.5151  0.3568
 3155TIP3    H2 9430   3.588   1.466   3.516  1.0633  0.4482 -1.3270
 3156TIP3   OH2 9431   4.910   3.734   0.041  0.0904 -0.8494  0.0740
 3156TIP3    H1 9432   4.890   3.813  -0.009  0.4070 -0.2664  0.8388
 3156TIP3    H2 9433   4.877   3.662  -0.012 -0.9172 -0.1442 -0.2720
 3157TIP3   OH2 9434   6.676   1.303   3.696 -0.3929 -0.0407  0.0242
 3157TIP3    H1 9435   6.625   1.380   3.722 -0.4500  0.3091 -1.0804
 3157TIP3    H2 9436   6.765   1.323   3.726 -0.6326 -0.0587  0.7644
 3158TIP3   OH2 9437   2.297   4.370   3.118 -0.4193  0.6573 -0.2930
 3158TIP3    H1 9438   2.230   4.354   3.050 -0.5887 -0.5945  0.1374
 3158TIP3    H2 9439   2.256   4.339   3.199  0.2770  0.9089  0.1612
 3159TIP3   OH2 9440   1.352   2.472   4.389 -0.1361  0.4543  0.5654
 3159TIP3    H1 9441   1.403   2.439   4.464  0.6398 -0.2227 -0.2405
 3159TIP3    H2 9442   1.316   2.394   4.348 -0.8923  0.8548  0.4473
 3160TIP3   OH2 9443   5.133   2.518   5.831 -0.3520 -0.4033 -0.4194
 3160TIP3    H1 9444   5.080   2.473   5.766 -1.0791 -0.6902  0.3556
 3160TIP3    H2 9445   5.090   2.499   5.915  1.4587 -1.3764  0.3468
 3161TIP3   OH2 9446   5.074   2.004   4.850  0.3762  0.4729  0.0701
 3161TIP3    H1 9447   5.068   2.029   4.758  1.8358 -0.3433 -0.2752
 3161TIP3    H2 9448   4.983   1.991   4.877 -0.0232 -0.5882 -1.6391
 3162TIP3   OH2 9449   1.238   6.408   2.535  0.0236  0.1925  0.5558
 3162TIP3    H1 9450   1.248   6.483   2.594  1.5043  0.4624 -0.0108
 3162TIP3    H2 9451   1.278   6.335   2.581 -1.9543 -0.4641  1.3741
 3163TIP3   OH2 9452   3.657   0.732   0.727  0.2810 -0.0841 -0.6229
 3163TIP3    H1 9453   3.728   0.699   0.782 -0.3004  0.0755  0.2475
 3163TIP3    H2 9454   3.701   0.779   0.657  1.0202  1.6263  0.9101
 3164TIP3   OH2 9455   1.759   6.201   3.168 -0.2439 -0.4206 -0.8874
 3164TIP3    H1 9456   1.853   6.211   3.183 -0.1488 -0.3632 -1.5107
 3164TIP3    H2 9457   1.720   6.278   3.211 -0.0425 -0.6321 -0.3194
 3165TIP3   OH2 9458   6.197   0.805   3.045 -0.0662  0.1023 -0.2507
 3165TIP3    H1 9459   6.246   0.812   2.963 -0.1555  0.6274 -0.2644
 3165TIP3    H2 9460   6.178   0.896   3.069  1.3537  0.0513  1.2003
 3166TIP3   OH2 9461   6.499   2.717   3.557  0.5355 -0.2648  0.1426
 3166TIP3    H1 9462   6.434   2.785   3.540  1.2303 -0.4036 -3.8599
 3166TIP3    H2 9463   6.451   2.635   3.547  0.9150 -0.3486 -1.1785
 3167TIP3   OH2 9464   6.757   4.132   2.046  0.1984 -0.6319  0.0388
 3167TIP3    H1 9465   6.734   4.118   2.137  3.0886 -0.8258  0.8469
 3167TIP3    H2 9466   6.762   4.044   2.009  1.2952 -0.7259  0.3692
 3168TIP3   OH2 9467   5.219   6.146   0.168  0.2680  0.3807 -0.2748
 3168TIP3    H1 9468   5.262   6.165   0.251  0.2820 -1.0002  0.0589
 3168TIP3    H2 9469   5.174   6.063   0.182 -1.2509  1.0220 -1.0987
 3169TIP3   OH2 9470   6.151   2.568   2.951 -0.2433  0.4069 -0.0372
 3169TIP3    H1 9471   6.160   2.596   3.042 -0.0700 -1.7234  0.6760
 3169TIP3    H2 9472   6.111   2.481   2.957  0.1561  0.0434 -1.9758
 3170TIP3   OH2 9473   3.543   5.886   0.186  0.3194 -0.1067  0.3802
 3170TIP3    H1 9474   3.475   5.826   0.218  0.0230  0.2726  0.4635
 3170TIP3    H2 9475   3.583   5.922   0.265  2.4406 -2.2945  0.4383
 3171TIP3   OH2 9476   0.734   5.086   1.736  0.0718  0.1886  0.2793
 3171TIP3    H1 9477   0.688   5.034   1.669 -0.8982  1.8522 -0.3988
 3171TIP3    H2 9478   0.823   5.097   1.701 -0.2482  0.5189 -0.4617
 3172TIP3   OH2 9479   0.170   5.030   0.725  0.1107  0.3491 -0.0306
 3172TIP3    H1 9480   0.175   5.000   0.816  0.3019 -0.4117 -0.2818
 3172TIP3    H2 9481   0.104   4.973   0.686 -1.1892  1.7510  0.0289
 3173TIP3   OH2 9482   2.627   2.875   0.354 -0.4800  0.1560  0.2048
 3173TIP3    H1 9483   2.694   2.940   0.333 -0.8251  0.1166 -1.0836
 3173TIP3    H2 9484   2.568   2.876   0.279 -2.0841  0.3681  1.3896
 3174TIP3   OH2 9485   2.782   3.246   5.547 -0.2855  0.1304  0.4330
 3174TIP3    H1 9486   2.695   3.227   5.583 -0.3006 -1.6208 -0.4622
 3174TIP3    H2 9487   2.841   3.193   5.599 -0.0652 -0.7534 -0.6943
 3175TIP3   OH2 9488   3.805   2.695   1.995 -0.7370  0.4566 -0.0028
 3175TIP3    H1 9489   3.813   2.750   2.073  1.1952  0.2270  0.0077
 3175TIP3    H2 9490   3.894   2.685   1.963 -1.5798  1.8210 -3.1672
 3176TIP3   OH2 9491   6.860   3.352   5.369  0.5400  0.3082  0.2022
 3176TIP3    H1 9492   6.925   3.286   5.345 -1.3046 -0.8829 -1.9287
 3176TIP3    H2 9493   6.894   3.433   5.331  0.7443 -0.3272 -1.0221
 3177TIP3   OH2 9494   0.321   5.752   1.232 -0.1093  0.4956  0.1448
 3177TIP3    H1 9495   0.234   5.717   1.253 -0.4593  1.0257 -0.3913
 3177TIP3    H2 9496   0.372   5.675   1.206 -1.2220  0.4742 -2.2333
 3178TIP3   OH2 9497   2.641   1.796   3.505  0.0548 -0.3492 -0.0403
 3178TIP3    H1 9498   2.577   1.824   3.571  0.0955  0.0255 -0.1545
 3178TIP3    H2 9499   2.664   1.877   3.459  2.8441  0.0741  1.9205
 3179TIP3   OH2 9500   1.511   3.767   0.454 -0.0565  0.0293 -0.1023
 3179TIP3    H1 9501   1.473   3.687   0.417  1.3639 -0.4317 -0.6284
 3179TIP3    H2 9502   1.551   3.811   0.379  1.0971  0.1091  0.5328
 3180TIP3   OH2 9503   3.907   5.471   0.786  0.0500  0.3401  0.2337
 3180TIP3    H1 9504   3.877   5.543   0.730  0.2854 -0.0908 -0.4574
 3180TIP3    H2 9505   3.977   5.509   0.839 -2.1770  1.6150  2.4882
 3181TIP3   OH2 9506   5.483   4.808   3.495 -0.2873 -0.1095 -1.0199
 3181TIP3    H1 9507   5.461   4.901   3.501 -0.1842 -0.1742  0.9747
 3181TIP3    H2 9508   5.562   4.805   3.442 -0.1287  0.9755 -0.8628
 3182TIP3   OH2 9509   0.223   2.850   3.634  0.1156 -0.5451  0.1998
 3182TIP3    H1 9510   0.185   2.856   3.547  1.1201 -1.4375 -0.3248
 3182TIP3    H2 9511   0.149   2.828   3.691 -0.7091  0.9086 -0.2600
 3183TIP3   OH2 9512   7.151   3.990   3.154  0.3629  0.2920  0.0172
 3183TIP3    H1 9513   7.061   3.971   3.178  0.2896  0.3242 -0.2298
 3183TIP3    H2 9514   7.197   3.999   3.238 -0.0998  1.4404  0.1693
 3184TIP3   OH2 9515   4.372   0.868   0.249  0.3057 -0.0422  0.0625
 3184TIP3    H1 9516   4.395   0.899   0.161 -0.4917 -0.4590 -0.2979
 3184TIP3    H2 9517   4.371   0.947   0.303 -0.0168  0.3281 -0.4808
 3185TIP3   OH2 9518   0.109   2.749   4.554  0.3910  0.5710  0.4441
 3185TIP3    H1 9519   0.059   2.782   4.480 -0.4748  0.8103  1.1219
 3185TIP3    H2 9520   0.199   2.775   4.536  0.2162  0.5044 -0.5830
 3186TIP3   OH2 9521   1.855   4.846   2.308 -0.5585 -0.5069 -0.8188
 3186TIP3    H1 9522   1.830   4.893   2.387  2.1683  0.9571 -0.7018
 3186TIP3    H2 9523   1.917   4.780   2.338 -1.0723 -1.3351 -1.5259
 3187TIP3   OH2 9524   1.562   3.453   1.091  0.3429  0.0232  0.3354
 3187TIP3    H1 9525   1.654   3.431   1.102  0.3837  0.2344  0.4226
 3187TIP3    H2 9526   1.540   3.504   1.170  0.4633  1.0024 -0.2478
 3188TIP3   OH2 9527   5.528   6.383   2.423  0.3220 -0.0478 -0.2218
 3188TIP3    H1 9528   5.571   6.447   2.366  1.2314  0.6322  1.1781
 3188TIP3    H2 9529   5.441   6.371   2.385  0.1034  2.0749 -0.4803
 3189TIP3   OH2 9530   5.676   2.209   4.650  0.0821 -0.6813 -0.3295
 3189TIP3    H1 9531   5.585   2.190   4.671 -0.6090  1.7215 -0.8208
 3189TIP3    H2 9532   5.672   2.290   4.599  2.5615 -0.0019  0.4264
 3190TIP3   OH2 9533   6.358   6.663   0.029  0.8985 -0.6031  0.1440
 3190TIP3    H1 9534   6.419   6.607  -0.018  0.8416 -0.4928 -0.0649
 3190TIP3    H2 9535   6.413   6.710   0.093  0.8959 -1.1147  0.5250
 3191TIP3   OH2 9536   4.557   2.497   3.443  0.5104 -0.6702  0.3089
 3191TIP3    H1 9537   4.641   2.512   3.399  0.7046  1.0222  1.1571
 3191TIP3    H2 9538   4.512   2.433   3.388  2.1515 -1.2504 -0.4273
 3192TIP3   OH2 9539   6.241   6.525   1.529  0.1347  0.3296 -0.3241
 3192TIP3    H1 9540   6.256   6.445   1.579 -0.5583 -0.2322 -0.9900
 3192TIP3    H2 9541   6.305   6.587   1.564  0.4421 -0.3972  0.4493
 3193TIP3   OH2 9542   3.909   3.832   3.894  0.0596 -0.3646  0.3557
 3193TIP3    H1 9543   3.831   3.852   3.946 -0.1661  0.0695 -0.1447
 3193TIP3    H2 9544   3.961   3.775   3.951 -0.6035 -0.6315  0.7069
 3194TIP3   OH2 9545   3.930   4.074   3.469  0.3060  0.2243 -0.8732
 3194TIP3    H1 9546   3.933   4.170   3.465  0.9136  0.1808 -2.2443
 3194TIP3    H2 9547   4.012   4.050   3.511 -0.3774  0.3100  0.5877
 3195TIP3   OH2 9548   1.729   1.694   3.704  0.5397 -0.2943 -0.3255
 3195TIP3    H1 9549   1.712   1.695   3.798  0.6862 -0.1207 -0.3001
 3195TIP3    H2 9550   1.642   1.696   3.664  0.2854 -3.7177 -0.2123
 3196TIP3   OH2 9551   3.987   3.530   5.384  0.4223 -0.6746  0.2910
 3196TIP3    H1 9552   3.980   3.485   5.468  0.5340 -1.7755 -0.2748
 3196TIP3    H2 9553   3.916   3.595   5.386  0.5757 -0.5079  1.3229
 3197TIP3   OH2 9554   7.093   4.311   3.172  0.0572  0.0585 -0.0993
 3197TIP3    H1 9555   7.117   4.403   3.165  0.9339 -0.2463 -1.8111
 3197TIP3    H2 9556   7.161   4.265   3.123  0.5574 -1.6779  2.0758
 3198TIP3   OH2 9557   4.530   4.956   1.643  0.0484  0.0708 -0.0368
 3198TIP3    H1 9558   4.495   5.015   1.710  2.5229  0.3830  1.1019
 3198TIP3    H2 9559   4.623   4.950   1.663  0.1106 -3.4206 -0.7544
 3199TIP3   OH2 9560   4.880   6.672   5.903 -0.6082 -0.3841  0.4565
 3199TIP3    H1 9561   4.857   6.764   5.914 -0.6853 -0.5650  2.0711
 3199TIP3    H2 9562   4.889   6.661   5.809  3.5426  2.3130  0.2352
 3200TIP3   OH2 9563   0.857   5.677   3.374 -0.6477 -0.2030  0.0669
 3200TIP3    H1 9564   0.940   5.652   3.334 -0.8815  1.5597 -1.6517
 3200TIP3    H2 9565   0.828   5.598   3.419  1.0479 -1.4176 -0.8329
 3201TIP3   OH2 9566   6.110   4.621   5.490 -0.0189 -0.0836 -0.1137
 3201TIP3    H1 9567   6.196   4.618   5.532 -0.7849 -0.1813  1.5165
 3201TIP3    H2 9568   6.076   4.532   5.500  0.1658 -0.3836 -1.8542
 3202TIP3   OH2 9569   0.352   2.134   4.960  0.2861 -0.3631  0.7447
 3202TIP3    H1 9570   0.396   2.168   4.882  0.0791 -0.4296  0.5950
 3202TIP3    H2 9571   0.379   2.192   5.031 -0.1365  0.1716  0.4772
 3203TIP3   OH2 9572   0.968   0.288   1.610 -0.2088 -0.6655  0.0353
 3203TIP3    H1 9573   0.921   0.229   1.551  0.8428  0.4867 -2.1046
 3203TIP3    H2 9574   1.060   0.267   1.596  0.1685  1.2085 -0.5349
 3204TIP3   OH2 9575   4.470   2.650   2.590  0.1584 -0.2718  0.4295
 3204TIP3    H1 9576   4.427   2.585   2.535 -1.0946  0.6643  0.2537
 3204TIP3    H2 9577   4.426   2.644   2.675  1.6457 -1.2619  1.1796
 3205TIP3   OH2 9578   1.523   3.273   4.061 -0.0662 -0.3725 -0.0399
 3205TIP3    H1 9579   1.486   3.361   4.053  1.8411  0.3457 -2.1734
 3205TIP3    H2 9580   1.510   3.234   3.974  1.1565 -1.3098  0.1715
 3206TIP3   OH2 9581   3.661   5.326   3.442 -0.2857  0.1036 -0.3527
 3206TIP3    H1 9582   3.591   5.369   3.490 -0.9681  0.4787 -1.6342
 3206TIP3    H2 9583   3.624   5.311   3.355  0.6151 -1.3088 -0.5203
 3207TIP3   OH2 9584   1.358   2.124   3.889  0.1410 -0.0237  0.2612
 3207TIP3    H1 9585   1.320   2.105   3.803 -2.4598 -3.6809  1.9745
 3207TIP3    H2 9586   1.439   2.073   3.891 -0.2652 -0.6770  0.2789
 3208TIP3   OH2 9587   6.096   4.590   4.080  0.3006  0.2935 -0.1024
 3208TIP3    H1 9588   6.010   4.548   4.081  0.4043  0.0739 -0.2460
 3208TIP3    H2 9589   6.110   4.615   3.989  1.7055 -2.4535 -0.7580
 3209TIP3   OH2 9590   0.662   1.605   5.748  0.3573  0.6061  0.0186
 3209TIP3    H1 9591   0.651   1.581   5.656 -1.6774  0.1535  0.3409
 3209TIP3    H2 9592   0.719   1.537   5.784 -0.7108 -0.5515 -0.4029
 3210TIP3   OH2 9593   7.015   4.697   2.558  0.0928 -0.6133  0.2606
 3210TIP3    H1 9594   7.036   4.637   2.630 -0.9253 -0.0145  1.0904
 3210TIP3    H2 9595   6.941   4.655   2.513 -0.8564  0.1402  1.0583
 3211TIP3   OH2 9596   1.212   6.505   5.731 -0.2967  0.1160  0.3661
 3211TIP3    H1 9597   1.193   6.591   5.692 -1.2210  0.8330  2.2495
 3211TIP3    H2 9598   1.127   6.462   5.738  0.4289 -2.2802 -3.2090
 3212TIP3   OH2 9599   1.060   0.680   2.339  0.2755 -0.0941  0.5717
 3212TIP3    H1 9600   1.123   0.752   2.343 -0.0150  0.4582 -2.2142
 3212TIP3    H2 9601   0.974   0.723   2.345  0.0626  0.0645 -2.0804
 3213TIP3   OH2 9602   4.638   3.772   1.328  0.6253  0.3641 -0.2134
 3213TIP3    H1 9603   4.705   3.715   1.365 -0.5791 -1.1698 -0.2975
 3213TIP3    H2 9604   4.662   3.780   1.236  0.8156  0.0032 -0.1960
 3214TIP3   OH2 9605   6.913   0.113   4.313  0.5800 -0.8959 -0.5066
 3214TIP3    H1 9606   6.853   0.095   4.385  0.2929 -0.8743 -0.7396
 3214TIP3    H2 9607   6.863   0.169   4.254  0.8873 -0.7421 -0.6194
 3215TIP3   OH2 9608   2.202   3.728   5.258  0.0048  0.5645 -0.7497
 3215TIP3    H1 9609   2.114   3.699   5.237 -1.2242  3.2742  0.2584
 3215TIP3    H2 9610   2.234   3.664   5.321 -1.5640 -0.0139 -0.4995
 3216TIP3   OH2 9611   2.903   6.006   0.322  0.0893 -0.1003  0.4077
 3216TIP3    H1 9612   2.886   6.026   0.230 -1.7719  0.1455  0.7734
 3216TIP3    H2 9613   2.885   5.912   0.330 -2.2164  0.3338  0.9858
 3217TIP3   OH2 9614   3.079   6.487   5.314  0.3606 -0.1604  0.4969
 3217TIP3    H1 9615   3.081   6.513   5.222 -0.3387 -0.1247  0.4875
 3217TIP3    H2 9616   3.023   6.552   5.356  0.9494  0.0234  1.0197
 3218TIP3   OH2 9617   0.864   3.772   5.603  0.2225 -0.1674  0.0705
 3218TIP3    H1 9618   0.847   3.802   5.693  2.1645 -0.8424  0.6954
 3218TIP3    H2 9619   0.853   3.677   5.607  1.4906 -0.3325 -0.1048
 3219TIP3   OH2 9620   2.146   5.199   3.669 -0.1132 -0.3731  0.5208
 3219TIP3    H1 9621   2.101   5.119   3.694 -0.7048  0.2434  1.4813
 3219TIP3    H2 9622   2.093   5.236   3.598  0.2248 -0.8701 -0.0059
 3220TIP3   OH2 9623   1.264   4.401   2.931 -0.1408  0.0379 -0.1881
 3220TIP3    H1 9624   1.297   4.344   2.863 -0.4090 -0.2452 -0.0827
 3220TIP3    H2 9625   1.300   4.487   2.910  1.0535 -0.3527  0.1969
 3221TIP3   OH2 9626   3.477   3.626   0.600 -0.6038  0.8258 -0.0417
 3221TIP3    H1 9627   3.567   3.628   0.568 -0.9289 -0.2956 -1.0889
 3221TIP3    H2 9628   3.478   3.683   0.676  1.3546 -0.3454  0.9003
 3222TIP3   OH2 9629   6.905   5.661   0.443  0.2660 -0.1696  0.2171
 3222TIP3    H1 9630   6.995   5.684   0.421  0.7594 -0.6960  1.6061
 3222TIP3    H2 9631   6.868   5.741   0.480 -0.0526  0.2246 -0.8976
 3223TIP3   OH2 9632   4.387   3.705   4.471  0.1104  0.3362  0.2005
 3223TIP3    H1 9633   4.467   3.697   4.524  0.3964  0.7422 -0.1585
 3223TIP3    H2 9634   4.403   3.650   4.395  0.0717  0.4545  0.1056
 3224TIP3   OH2 9635   0.396   0.961   1.583 -0.8162  0.2938  0.0024
 3224TIP3    H1 9636   0.410   1.024   1.653 -1.6007  0.0718  0.3746
 3224TIP3    H2 9637   0.314   0.988   1.542 -1.8823 -1.2256  1.0208
 3225TIP3   OH2 9638   6.655   5.004   2.446 -0.3228  0.3305 -0.4505
 3225TIP3    H1 9639   6.739   4.982   2.406  1.0133  1.8043  1.4232
 3225TIP3    H2 9640   6.670   5.086   2.493 -2.4341 -0.0799  1.1174
 3226TIP3   OH2 9641   1.190   0.687   1.895 -0.4400  0.5917 -0.0117
 3226TIP3    H1 9642   1.170   0.627   1.823  0.1521 -1.1304  1.1863
 3226TIP3    H2 9643   1.107   0.694   1.944 -0.1177 -0.5464  0.7304
 3227TIP3   OH2 9644   4.217   0.551   1.095 -0.2306 -0.0244  0.0423
 3227TIP3    H1 9645   4.155   0.541   1.167  0.6514 -1.8401  0.6055
 3227TIP3    H2 9646   4.290   0.492   1.117  1.2931  1.3590 -1.0299
 3228TIP3   OH2 9647   2.599   3.980   4.116 -0.3676 -0.0312 -0.2570
 3228TIP3    H1 9648   2.622   4.008   4.204 -0.1877 -2.8373  0.7159
 3228TIP3    H2 9649   2.681   3.984   4.067 -0.0462 -0.1690  0.2544
 3229TIP3   OH2 9650   5.540   0.982   5.229 -0.5913  0.2376  0.1034
 3229TIP3    H1 9651   5.585   0.967   5.146  0.9882 -1.1295  1.1167
 3229TIP3    H2 9652   5.518   0.894   5.261  0.3902  0.5634  1.8757
 3230TIP3   OH2 9653   3.095   2.234   3.949 -0.6703  0.5132 -0.5083
 3230TIP3    H1 9654   3.174   2.268   3.907 -0.9147 -0.6364 -1.9764
 3230TIP3    H2 9655   3.126   2.194   4.030 -0.0772  2.0476  0.0596
 3231TIP3   OH2 9656   4.767   3.542   5.310  0.9278 -0.0841  0.0033
 3231TIP3    H1 9657   4.765   3.609   5.378 -0.4412 -2.0186  2.0566
 3231TIP3    H2 9658   4.675   3.529   5.287  1.3067 -0.0936 -1.6109
 3232TIP3   OH2 9659   1.309   3.886   3.134 -0.2510 -0.0434  0.4336
 3232TIP3    H1 9660   1.397   3.860   3.162  0.0964  3.0356  2.8159
 3232TIP3    H2 9661   1.324   3.944   3.059 -0.3599 -0.4383  0.1044
 3233TIP3   OH2 9662   6.992   4.818   2.170 -0.3322 -0.2703 -0.5931
 3233TIP3    H1 9663   6.992   4.866   2.253 -0.0348 -0.8428 -0.2524
 3233TIP3    H2 9664   6.899   4.799   2.153 -0.5785  1.4425 -1.3550
 3234TIP3   OH2 9665   0.188   1.093   1.085  0.5326  0.0996  0.1390
 3234TIP3    H1 9666   0.279   1.080   1.114  0.3000 -0.4330  0.6612
 3234TIP3    H2 9667   0.160   1.006   1.056  0.5797  0.5149 -1.2200
 3235TIP3   OH2 9668   2.699   5.751   4.885  0.2274 -0.1900 -0.3466
 3235TIP3    H1 9669   2.754   5.716   4.815 -0.7925 -0.0529 -1.2352
 3235TIP3    H2 9670   2.705   5.846   4.875 -1.5983 -0.1633 -1.6380
 3236TIP3   OH2 9671   6.696   2.848   3.886 -0.4117 -0.8586  0.3412
 3236TIP3    H1 9672   6.711   2.844   3.792 -1.6752  0.5946  0.0330
 3236TIP3    H2 9673   6.755   2.917   3.917 -1.7237  0.4042  0.1615
 3237TIP3   OH2 9674   1.672   3.887   0.271 -0.5236 -0.0930  0.0536
 3237TIP3    H1 9675   1.619   3.942   0.213  2.0736  2.4215 -0.1434
 3237TIP3    H2 9676   1.715   3.824   0.212 -1.0351 -0.2329 -0.1718
 3238TIP3   OH2 9677   4.857   4.013   3.028 -0.3343  0.5076 -0.4582
 3238TIP3    H1 9678   4.950   4.002   3.047 -0.6704  0.1981  1.1766
 3238TIP3    H2 9679   4.837   3.941   2.968 -0.3198 -2.0503  2.3383
 3239TIP3   OH2 9680   0.648   5.707   2.659 -0.0548 -0.1012 -0.1969
 3239TIP3    H1 9681   0.564   5.708   2.705 -0.1117  0.8878 -0.3114
 3239TIP3    H2 9682   0.625   5.700   2.567 -0.0696  1.4952 -0.3298
 3240TIP3   OH2 9683   5.817   2.123   3.094  0.3660  0.8519 -0.6078
 3240TIP3    H1 9684   5.869   2.053   3.133  0.6880  1.5627  0.2674
 3240TIP3    H2 9685   5.749   2.077   3.044 -0.3025 -0.1110  1.1034
 3241TIP3   OH2 9686   5.037   0.200   5.389 -0.8215 -0.3243  0.7671
 3241TIP3    H1 9687   5.110   0.179   5.448  1.2286  0.8640 -1.1685
 3241TIP3    H2 9688   5.040   0.132   5.322 -0.5736  0.5116 -0.0841
 3242TIP3   OH2 9689   0.651   1.768   2.273  0.3353 -0.0402 -0.0490
 3242TIP3    H1 9690   0.586   1.785   2.341  0.9899  3.9616 -0.1275
 3242TIP3    H2 9691   0.710   1.703   2.312 -0.5592  0.4610  2.3407
 3243TIP3   OH2 9692   3.558   4.686   1.754  0.4060  0.3259  0.3977
 3243TIP3    H1 9693   3.589   4.777   1.748 -0.2633  0.5060 -0.5638
 3243TIP3    H2 9694   3.617   4.645   1.816  0.5954  1.4789  1.0151
 3244TIP3   OH2 9695   6.684   1.105   0.151 -0.1388 -0.4960 -0.1279
 3244TIP3    H1 9696   6.759   1.121   0.208 -0.7342 -0.7185  0.7458
 3244TIP3    H2 9697   6.665   1.012   0.160 -0.2195 -0.5454 -0.7304
 3245TIP3   OH2 9698   1.562   4.947   0.126 -0.7512  0.4045  0.3724
 3245TIP3    H1 9699   1.618   4.900   0.188 -1.2831  0.2966  0.7748
 3245TIP3    H2 9700   1.600   5.035   0.123 -0.1193  0.1274  0.0816
 3246TIP3   OH2 9701   0.963   4.267   2.427  0.1774 -0.6018 -0.3008
 3246TIP3    H1 9702   0.968   4.285   2.333  1.4421 -0.6588 -0.2637
 3246TIP3    H2 9703   1.003   4.181   2.437  1.1962 -0.0606  0.4254
 3247TIP3   OH2 9704   0.142   1.281   0.082 -0.3485 -0.7644 -0.2659
 3247TIP3    H1 9705   0.194   1.307   0.005  1.3851 -2.8633  0.1284
 3247TIP3    H2 9706   0.182   1.328   0.155 -0.9748 -0.0265 -0.3835
 3248TIP3   OH2 9707   6.545   2.345   0.850  0.1914  0.1621 -0.0938
 3248TIP3    H1 9708   6.464   2.296   0.866 -1.2476  2.4242 -0.0362
 3248TIP3    H2 9709   6.538   2.374   0.759  0.7348  0.7104  0.0339
 3249TIP3   OH2 9710   1.618   4.454   2.602 -0.0966  0.1151 -0.0254
 3249TIP3    H1 9711   1.544   4.397   2.623  1.1526 -1.4383  0.3448
 3249TIP3    H2 9712   1.590   4.541   2.630 -2.4236 -0.0923 -1.4581
 3250TIP3   OH2 9713   2.444   5.139   0.529 -0.1133 -0.5518 -0.2865
 3250TIP3    H1 9714   2.359   5.095   0.539 -1.0629  1.2506 -0.0107
 3250TIP3    H2 9715   2.462   5.177   0.615  0.3793  0.1016 -0.6683
 3251TIP3   OH2 9716   4.243   2.619   0.733 -0.2316 -0.1926  0.3754
 3251TIP3    H1 9717   4.152   2.594   0.748 -0.6175  1.6676  1.4359
 3251TIP3    H2 9718   4.293   2.538   0.745 -1.6977 -1.1902  0.0126
 3252TIP3   OH2 9719   4.524   4.275   1.675 -0.6055  0.4418 -0.2597
 3252TIP3    H1 9720   4.480   4.193   1.697  0.1240  0.1311  0.0781
 3252TIP3    H2 9721   4.525   4.277   1.579 -0.4298 -0.0449 -0.2659
 3253TIP3   OH2 9722   4.899   0.304   4.255 -0.4544  0.4151 -0.5023
 3253TIP3    H1 9723   4.846   0.267   4.184 -2.0921 -0.3479  1.0362
 3253TIP3    H2 9724   4.868   0.394   4.264 -1.1101  0.1456  0.0136
 3254TIP3   OH2 9725   4.056   2.081   4.437  1.0999 -0.6089  0.1573
 3254TIP3    H1 9726   4.127   2.021   4.415  0.5373 -1.5996  0.9086
 3254TIP3    H2 9727   4.083   2.120   4.520  0.7981 -0.9492  0.4186
 3255TIP3   OH2 9728   6.333   3.792   5.273  0.1026  0.0220  0.3140
 3255TIP3    H1 9729   6.266   3.758   5.214  0.2143 -1.6931  1.1090
 3255TIP3    H2 9730   6.285   3.844   5.337 -0.1251  1.0709 -0.6733
 3256TIP3   OH2 9731   2.864   6.076   1.800  0.3375  0.1637 -0.5550
 3256TIP3    H1 9732   2.778   6.102   1.768  0.3531 -0.8719 -1.4955
 3256TIP3    H2 9733   2.890   6.004   1.742  1.8691  0.5141 -0.3331
 3257TIP3   OH2 9734   5.814   3.513   0.806  0.2161  0.4039 -0.0530
 3257TIP3    H1 9735   5.847   3.446   0.746  1.0634 -0.0494  0.8848
 3257TIP3    H2 9736   5.832   3.478   0.894 -1.0486  1.0150  0.4855
 3258TIP3   OH2 9737   5.006   5.554   4.487  0.4090  0.8347  0.3096
 3258TIP3    H1 9738   5.037   5.516   4.569  1.7750  0.5748 -0.3016
 3258TIP3    H2 9739   5.042   5.643   4.486 -1.4995  1.6731  1.0182
 3259TIP3   OH2 9740   1.841   2.297   3.615  0.5068  0.1529 -0.0818
 3259TIP3    H1 9741   1.885   2.372   3.577 -1.2404  0.0130 -2.6629
 3259TIP3    H2 9742   1.763   2.333   3.658  0.4452 -0.0364 -0.0296
 3260TIP3   OH2 9743   5.136   4.913   4.662 -0.2088  0.0254 -0.1420
 3260TIP3    H1 9744   5.136   5.004   4.691 -1.1023 -0.1826  0.5701
 3260TIP3    H2 9745   5.213   4.905   4.605  1.4114  0.5453  1.8703
 3261TIP3   OH2 9746   6.681   6.307   2.505 -0.0368 -0.7883  0.4045
 3261TIP3    H1 9747   6.703   6.214   2.508  2.6155 -0.3090 -1.2716
 3261TIP3    H2 9748   6.765   6.352   2.513 -1.0051  1.4047 -0.9512
 3262TIP3   OH2 9749   4.082   6.372   2.193 -0.0861 -0.2784  0.4050
 3262TIP3    H1 9750   4.141   6.298   2.179 -1.2776 -1.0394 -0.9427
 3262TIP3    H2 9751   4.139   6.448   2.195  0.9397 -0.9004 -1.6324
 3263TIP3   OH2 9752   0.596   1.831   2.650  0.0220 -0.4609 -0.2919
 3263TIP3    H1 9753   0.644   1.911   2.669  0.1697  0.0146 -2.4261
 3263TIP3    H2 9754   0.622   1.770   2.719  3.7433 -0.2588 -1.3553
 3264TIP3   OH2 9755   6.475   0.287   5.384  0.5883  0.4275 -0.4451
 3264TIP3    H1 9756   6.497   0.220   5.319 -0.4472  0.1541 -0.5306
 3264TIP3    H2 9757   6.536   0.271   5.456 -0.2420 -1.2157 -0.0580
 3265TIP3   OH2 9758   1.121   3.879   4.733  0.3495 -0.3386 -0.4893
 3265TIP3    H1 9759   1.202   3.882   4.784 -0.6064  1.0154  1.0603
 3265TIP3    H2 9760   1.122   3.794   4.691  3.1564  0.1200 -1.5171
 3266TIP3   OH2 9761   3.774   4.404   4.022 -0.3116  0.0292  0.3819
 3266TIP3    H1 9762   3.778   4.435   4.113  0.3563 -1.6868  0.9832
 3266TIP3    H2 9763   3.698   4.346   4.019 -0.1423 -0.1763 -0.0699
 3267TIP3   OH2 9764   6.131   4.552   0.426  0.1662 -0.1674 -0.1068
 3267TIP3    H1 9765   6.133   4.597   0.341 -1.0067  1.4074  0.6558
 3267TIP3    H2 9766   6.059   4.490   0.418  0.8141 -0.8683 -0.6457
 3268TIP3   OH2 9767   3.207   2.362   4.243  0.2968  0.1247 -0.0340
 3268TIP3    H1 9768   3.299   2.368   4.272  0.1621  1.1859  0.2178
 3268TIP3    H2 9769   3.203   2.416   4.164  0.1167 -0.7989 -0.6713
 3269TIP3   OH2 9770   0.234   0.590   4.436  0.0897 -0.3419 -0.9332
 3269TIP3    H1 9771   0.224   0.598   4.530  1.4064  0.1475 -0.8182
 3269TIP3    H2 9772   0.201   0.672   4.400  1.0981  0.1400 -0.7699
 3270TIP3   OH2 9773   5.088   3.957   1.229  0.7710  0.2768 -0.2425
 3270TIP3    H1 9774   5.074   3.865   1.205  2.5586 -0.5625  1.7136
 3270TIP3    H2 9775   5.101   4.002   1.145  2.0889 -1.6671 -1.1437
 3271TIP3   OH2 9776   5.581   3.132   0.232  0.4557  0.6000 -0.3936
 3271TIP3    H1 9777   5.594   3.038   0.232 -0.8340  0.3975  0.0676
 3271TIP3    H2 9778   5.642   3.165   0.165  0.6542 -0.5867 -0.8197
 3272TIP3   OH2 9779   3.257   5.273   0.484 -0.1078 -0.1433 -0.2382
 3272TIP3    H1 9780   3.250   5.195   0.428  1.2985 -1.5824  1.4455
 3272TIP3    H2 9781   3.187   5.263   0.548 -0.0383  0.0882 -0.1246
 3273TIP3   OH2 9782   0.667   3.611   0.742 -0.2574 -0.0643  0.1114
 3273TIP3    H1 9783   0.693   3.541   0.681  0.6174 -1.4318  1.9629
 3273TIP3    H2 9784   0.733   3.679   0.730 -1.6109  0.9645 -2.3542
 3274TIP3   OH2 9785   2.702   4.065   1.812  0.0000 -0.2186  0.6313
 3274TIP3    H1 9786   2.655   3.998   1.861 -0.9213  0.3923  0.6129
 3274TIP3    H2 9787   2.703   4.141   1.870 -0.5238  0.3006 -0.0148
 3275TIP3   OH2 9788   4.137   6.547   1.282 -0.3675 -0.1802 -0.2426
 3275TIP3    H1 9789   4.159   6.501   1.202 -1.5580 -0.5893 -0.3546
 3275TIP3    H2 9790   4.042   6.555   1.280 -0.4571 -0.4632  1.2558
 3276TIP3   OH2 9791   2.917   5.010   2.541 -0.5302  0.4438 -0.3622
 3276TIP3    H1 9792   2.993   4.971   2.585 -0.4261  0.7030 -0.3060
 3276TIP3    H2 9793   2.841   4.978   2.589 -0.4152  0.7353  0.0175
 3277TIP3   OH2 9794   2.971   6.216   5.321 -0.4829 -0.3857  0.5987
 3277TIP3    H1 9795   3.010   6.304   5.314  0.4839 -0.8099  0.4794
 3277TIP3    H2 9796   3.031   6.160   5.272 -1.6406 -0.9619 -0.2110
 3278TIP3   OH2 9797   0.916   1.186   3.201 -0.2340 -0.2347 -0.0725
 3278TIP3    H1 9798   0.939   1.156   3.289 -0.9588 -1.8237 -0.3812
 3278TIP3    H2 9799   0.918   1.107   3.148 -0.8767  0.5165 -1.2624
 3279TIP3   OH2 9800   6.943   2.522   4.777 -0.6036  0.5439 -0.0015
 3279TIP3    H1 9801   6.897   2.538   4.860  0.2664  0.9992  0.4068
 3279TIP3    H2 9802   6.879   2.476   4.723 -0.8904 -0.5975  1.2469
 3280TIP3   OH2 9803   1.964   6.694   2.311  0.8174  0.7389 -0.1139
 3280TIP3    H1 9804   2.006   6.732   2.388  1.0604 -0.4659  0.3758
 3280TIP3    H2 9805   1.870   6.697   2.330  0.8821  0.3764  0.2680
 3281TIP3   OH2 9806   6.461   2.722   2.673  0.1678 -0.0556 -0.5622
 3281TIP3    H1 9807   6.388   2.751   2.728  0.0291 -0.6777 -0.4054
 3281TIP3    H2 9808   6.475   2.631   2.698  0.4256 -0.2024 -1.2152
 3282TIP3   OH2 9809   2.788   0.062   3.328  0.9392 -0.4745  0.0824
 3282TIP3    H1 9810   2.835   0.123   3.272 -0.3666  1.9555  1.4740
 3282TIP3    H2 9811   2.799   0.097   3.416 -1.8669 -0.8413  0.6751
 3283TIP3   OH2 9812   0.336   6.200   3.529  0.0644 -0.0917  0.5524
 3283TIP3    H1 9813   0.358   6.257   3.603 -1.4991  0.1847  0.8317
 3283TIP3    H2 9814   0.387   6.121   3.545  1.8053  0.9612  0.4789
 3284TIP3   OH2 9815   6.254   0.226   1.888 -1.3459  0.2345 -0.6781
 3284TIP3    H1 9816   6.294   0.260   1.808 -1.2586  1.1814 -0.2389
 3284TIP3    H2 9817   6.184   0.168   1.857  0.5776 -1.8035 -1.4715
 3285TIP3   OH2 9818   5.545   2.856   4.039 -0.5599 -0.3537  0.3692
 3285TIP3    H1 9819   5.561   2.783   4.098 -0.5614 -0.6787 -0.0222
 3285TIP3    H2 9820   5.538   2.933   4.096  0.9901 -0.4000  0.6665
 3286TIP3   OH2 9821   6.758   4.819   0.026  0.4390 -0.3317 -0.4201
 3286TIP3    H1 9822   6.843   4.828   0.070  1.3904 -1.9555 -1.7968
 3286TIP3    H2 9823   6.776   4.838  -0.066 -0.8356 -0.0581 -0.6307
 3287TIP3   OH2 9824   0.577   4.526   3.967 -0.1989 -0.7538  0.3172
 3287TIP3    H1 9825   0.495   4.568   3.938 -0.1529 -0.4011  0.6844
 3287TIP3    H2 9826   0.549   4.445   4.009 -0.2981 -1.0502 -0.3010
 3288TIP3   OH2 9827   5.825   6.014   0.266  0.3146  0.4405  0.4605
 3288TIP3    H1 9828   5.888   5.963   0.318  0.5746  0.0892 -0.1842
 3288TIP3    H2 9829   5.739   5.981   0.292  0.4400  0.2929  0.6912
 3289TIP3   OH2 9830   6.312   0.379   2.335 -0.0700  0.3816 -0.4626
 3289TIP3    H1 9831   6.281   0.367   2.245  0.0838  0.5726 -0.5420
 3289TIP3    H2 9832   6.247   0.436   2.375 -0.0022  0.5061 -0.5289
 3290TIP3   OH2 9833   3.758   1.866   2.200  0.6073 -0.0131 -0.6541
 3290TIP3    H1 9834   3.811   1.787   2.206  1.5348  0.5858 -0.7105
 3290TIP3    H2 9835   3.715   1.874   2.285  0.6987 -0.4437 -0.5698
 3291TIP3   OH2 9836   5.060   2.806   5.833  0.1192  0.5298  0.3533
 3291TIP3    H1 9837   4.980   2.779   5.878  0.5310 -0.4185  0.5340
 3291TIP3    H2 9838   5.109   2.725   5.820  1.3247  1.1689  0.7822
 3292TIP3   OH2 9839   1.995   3.211   2.167 -0.3161  0.1923  0.0843
 3292TIP3    H1 9840   2.000   3.238   2.259 -1.6884  1.3732 -0.1525
 3292TIP3    H2 9841   1.977   3.291   2.119  0.7633 -0.3595 -1.2847
 3293TIP3   OH2 9842   0.700   4.790   2.522  0.0234  0.1126  0.0770
 3293TIP3    H1 9843   0.656   4.763   2.602 -1.3751 -2.0441 -1.3157
 3293TIP3    H2 9844   0.788   4.752   2.529  0.3335  0.9787  1.0884
 3294TIP3   OH2 9845   2.524   6.453   5.474 -0.3563 -0.7507  0.4871
 3294TIP3    H1 9846   2.463   6.412   5.535 -0.6205 -0.7955  0.1900
 3294TIP3    H2 9847   2.472   6.471   5.396  0.3348 -2.0335 -0.2898
 3295TIP3   OH2 9848   5.389   0.816   2.252  0.1412  0.3456 -0.5441
 3295TIP3    H1 9849   5.303   0.858   2.252  0.8565  1.9152 -0.2373
 3295TIP3    H2 9850   5.373   0.726   2.279 -1.3958  0.6271 -0.4656
 3296TIP3   OH2 9851   3.952   0.738   0.049  0.7159  0.7895 -0.4377
 3296TIP3    H1 9852   3.988   0.670  -0.008 -1.9739 -0.6980 -0.5608
 3296TIP3    H2 9853   4.001   0.731   0.130  2.1597  0.4479 -1.3068
 3297TIP3   OH2 9854   1.623   3.423   4.686  0.2098 -0.0281 -0.6735
 3297TIP3    H1 9855   1.684   3.447   4.616  0.5287  0.1119 -0.3520
 3297TIP3    H2 9856   1.680   3.403   4.761 -0.1627  0.8266 -0.1473
 3298TIP3   OH2 9857   0.660   3.790   0.238 -0.4526  0.2401 -0.0450
 3298TIP3    H1 9858   0.578   3.793   0.189 -0.9495 -1.5896  0.6296
 3298TIP3    H2 9859   0.656   3.709   0.288  1.7635  0.1080  0.0212
 3299TIP3   OH2 9860   2.576   6.387   1.170 -0.6581  0.1744 -0.3957
 3299TIP3    H1 9861   2.486   6.356   1.174 -0.7647  0.4545 -0.6260
 3299TIP3    H2 9862   2.626   6.313   1.135 -1.0387  0.5296 -1.7238
 3300TIP3   OH2 9863   1.403   4.609   0.412 -0.4170 -0.2808 -0.0355
 3300TIP3    H1 9864   1.482   4.639   0.368 -0.4832 -0.3247 -0.1857
 3300TIP3    H2 9865   1.335   4.671   0.384 -0.8282 -1.2774 -1.3310
 3301TIP3   OH2 9866   6.325   3.174   1.224 -0.4601  0.1288 -0.0598
 3301TIP3    H1 9867   6.312   3.268   1.229  1.1318  0.5349 -2.1681
 3301TIP3    H2 9868   6.387   3.154   1.294  0.5963  0.9638 -0.7360
 3302TIP3   OH2 9869   3.162   5.506   0.305  0.2169 -0.0238  0.1885
 3302TIP3    H1 9870   3.187   5.420   0.339 -0.5394 -0.3625 -0.0912
 3302TIP3    H2 9871   3.087   5.532   0.359  0.1386  0.2425 -0.0484
 3303TIP3   OH2 9872   4.216   6.366   1.082 -0.5976 -0.5719 -0.0983
 3303TIP3    H1 9873   4.204   6.271   1.079  0.9360 -0.7838 -0.3502
 3303TIP3    H2 9874   4.151   6.401   1.021 -1.3845 -1.4278  0.2381
 3304TIP3   OH2 9875   3.950   5.630   4.305 -0.1524  0.0592  0.1541
 3304TIP3    H1 9876   3.931   5.569   4.233 -1.7713  1.0582 -0.3369
 3304TIP3    H2 9877   4.026   5.680   4.275  0.9516 -1.4006  0.3969
 3305TIP3   OH2 9878   0.978   6.093   1.082  0.3727  0.0754 -0.2258
 3305TIP3    H1 9879   0.902   6.150   1.066  0.0401  0.7153  2.9495
 3305TIP3    H2 9880   0.943   6.004   1.076 -0.4261  0.3476  0.2547
 3306TIP3   OH2 9881   5.963   5.459   4.369  0.5129  0.3344 -0.4004
 3306TIP3    H1 9882   5.991   5.522   4.435  2.4210 -0.6307 -0.2397
 3306TIP3    H2 9883   5.924   5.513   4.300 -0.8393  1.4044  1.1358
 3307TIP3   OH2 9884   1.725   4.414   5.504  0.0596  0.7115  0.5874
 3307TIP3    H1 9885   1.682   4.352   5.562  0.9818  0.4019  0.9516
 3307TIP3    H2 9886   1.809   4.373   5.482 -0.6130  0.3861 -1.6926
 3308TIP3   OH2 9887   0.914   0.442   0.263 -0.5005 -0.2640  0.7006
 3308TIP3    H1 9888   0.997   0.407   0.298 -0.9409  0.9770  3.2622
 3308TIP3    H2 9889   0.941   0.503   0.194  0.4108 -3.1365 -1.6807
 3309TIP3   OH2 9890   3.920   2.467   0.572  0.2336  0.2929 -0.2959
 3309TIP3    H1 9891   3.952   2.397   0.516 -1.0540 -1.4035  0.9444
 3309TIP3    H2 9892   3.877   2.421   0.645 -1.4730  2.3686  0.1185
 3310TIP3   OH2 9893   3.947   2.264   5.134  0.6218 -0.1534 -0.4519
 3310TIP3    H1 9894   3.995   2.192   5.173  1.8574  1.9690  2.3362
 3310TIP3    H2 9895   4.009   2.337   5.133 -0.5890  0.9525 -3.0100
 3311TIP3   OH2 9896   0.529   3.039   1.256  0.0744 -0.4346 -0.1892
 3311TIP3    H1 9897   0.484   3.024   1.339 -0.9561  1.8086 -0.2766
 3311TIP3    H2 9898   0.469   3.096   1.207  2.1076  0.9672 -1.1554
 3312TIP3   OH2 9899   2.482   3.765   4.234 -0.7149  0.0005 -0.3764
 3312TIP3    H1 9900   2.498   3.855   4.206 -0.1901 -0.1885 -0.6986
 3312TIP3    H2 9901   2.424   3.728   4.168  0.3947 -0.3961 -1.1760
 3313TIP3   OH2 9902   3.946   6.386   2.467 -0.3265 -0.5705 -0.1814
 3313TIP3    H1 9903   3.950   6.439   2.387 -2.3340  0.7786  0.5622
 3313TIP3    H2 9904   3.995   6.437   2.532 -0.8019 -0.4646  0.0934
 3314TIP3   OH2 9905   2.622   5.655   4.333 -0.4734  0.2662 -0.6777
 3314TIP3    H1 9906   2.655   5.678   4.246  1.5413 -2.0597 -0.6245
 3314TIP3    H2 9907   2.548   5.597   4.316 -0.7782  0.6823 -0.8034
 3315TIP3   OH2 9908   5.014   3.281   1.075 -0.6311 -0.1889 -0.0559
 3315TIP3    H1 9909   4.996   3.188   1.058 -1.2866 -0.7436  3.0152
 3315TIP3    H2 9910   5.073   3.279   1.151  0.7152  1.9140 -0.9851
 3316TIP3   OH2 9911   0.300   2.001   5.693 -0.4211  0.1381 -0.4530
 3316TIP3    H1 9912   0.246   2.022   5.769 -0.8038  0.0836 -0.7026
 3316TIP3    H2 9913   0.279   1.909   5.674 -2.0743  0.7687 -1.9896
 3317TIP3   OH2 9914   2.984   2.359   3.418 -0.1453 -0.3022  0.2063
 3317TIP3    H1 9915   2.951   2.403   3.339 -1.0648 -0.2108  0.6320
 3317TIP3    H2 9916   2.945   2.408   3.491  1.3837  0.1536  0.7500
 3318TIP3   OH2 9917   6.688   4.276   1.475 -0.1863 -0.3751 -0.0088
 3318TIP3    H1 9918   6.695   4.334   1.551  0.4895 -0.2113 -0.1921
 3318TIP3    H2 9919   6.779   4.262   1.448 -0.1935 -2.6420  0.9001
 3319TIP3   OH2 9920   1.306   0.821   4.140  0.2699 -0.0715 -0.1859
 3319TIP3    H1 9921   1.367   0.871   4.087 -0.3636  0.2901 -0.5878
 3319TIP3    H2 9922   1.359   0.754   4.181  0.5079 -1.4587 -2.6049
 3320TIP3   OH2 9923   0.375   2.543   3.278  0.6156  0.1998 -0.1982
 3320TIP3    H1 9924   0.452   2.600   3.267  0.9052 -0.4313 -1.7727
 3320TIP3    H2 9925   0.325   2.556   3.197 -1.9739  2.0182  1.5170
 3321TIP3   OH2 9926   3.763   3.752   2.310  0.2317 -0.4430  0.1846
 3321TIP3    H1 9927   3.774   3.847   2.304  0.5431 -0.5636 -1.8296
 3321TIP3    H2 9928   3.710   3.729   2.234 -0.6351 -1.7947  1.1513
 3322TIP3   OH2 9929   4.534   0.218   2.149  0.7731 -0.0679  0.1698
 3322TIP3    H1 9930   4.466   0.259   2.202 -0.5271 -0.9618 -0.7660
 3322TIP3    H2 9931   4.606   0.201   2.211 -0.8912 -1.6110  1.7954
 3323TIP3   OH2 9932   4.208   3.435   3.555  0.2043 -0.1299 -0.3855
 3323TIP3    H1 9933   4.142   3.493   3.518  0.3553  0.0274 -0.4092
 3323TIP3    H2 9934   4.184   3.427   3.647 -0.5675 -1.0694 -0.6602
 3324TIP3   OH2 9935   1.389   0.927   0.646 -0.4707 -0.3308  0.0877
 3324TIP3    H1 9936   1.388   0.981   0.568  0.8222 -0.8584 -0.3269
 3324TIP3    H2 9937   1.347   0.845   0.620 -0.0776 -0.4909 -0.0508
 3325TIP3   OH2 9938   0.083   4.892   4.281 -0.8434 -0.3755  0.3329
 3325TIP3    H1 9939   0.027   4.831   4.328 -0.3540 -0.4131  0.8850
 3325TIP3    H2 9940   0.168   4.847   4.275 -0.4231  0.3211  0.9216
 3326TIP3   OH2 9941   4.114   3.140   5.674 -0.3023 -0.0606 -0.2210
 3326TIP3    H1 9942   4.048   3.072   5.687  0.3724 -0.5255  0.9489
 3326TIP3    H2 9943   4.150   3.122   5.587 -0.4276 -0.9435 -0.1005
 3327TIP3   OH2 9944   5.509   2.588   0.592  0.5890 -0.1855 -0.0925
 3327TIP3    H1 9945   5.565   2.653   0.634  0.4132 -0.3059  0.3398
 3327TIP3    H2 9946   5.503   2.616   0.501  0.4880  0.4183  0.0973
 3328TIP3   OH2 9947   1.489   0.078   2.934 -0.0784  0.1626 -0.2237
 3328TIP3    H1 9948   1.505   0.155   2.881 -0.4546 -0.0526 -0.6524
 3328TIP3    H2 9949   1.406   0.043   2.902 -0.4645  0.1986  0.7034
 3329TIP3   OH2 9950   4.866   5.932   4.965  0.8428 -0.2953  0.2328
 3329TIP3    H1 9951   4.898   6.011   4.921  0.1077 -0.6943 -1.0565
 3329TIP3    H2 9952   4.946   5.887   4.991  1.3372 -0.2259 -1.0478
 3330TIP3   OH2 9953   3.364   1.424   2.258  0.2704  0.3472 -0.1693
 3330TIP3    H1 9954   3.380   1.517   2.247 -0.8650  0.7988  1.5981
 3330TIP3    H2 9955   3.387   1.385   2.174  2.0673  2.0193 -0.5098
 3331TIP3   OH2 9956   4.179   2.149   3.901 -0.6631  0.2727 -0.2022
 3331TIP3    H1 9957   4.125   2.090   3.848  1.0102 -1.2474 -0.3223
 3331TIP3    H2 9958   4.244   2.184   3.839 -0.5436  0.8640  0.2419
 3332TIP3   OH2 9959   5.250   4.465   0.599 -0.0330 -0.1466 -0.1312
 3332TIP3    H1 9960   5.325   4.486   0.544 -1.1723  0.8740 -1.3423
 3332TIP3    H2 9961   5.185   4.428   0.539 -0.8880 -0.0595  0.7170
 3333TIP3   OH2 9962   3.402   2.564   1.909 -0.3483 -0.3517  0.7359
 3333TIP3    H1 9963   3.390   2.475   1.876 -0.1325  0.1431 -0.7790
 3333TIP3    H2 9964   3.336   2.574   1.978 -1.5744 -1.0967 -0.2973
 3334TIP3   OH2 9965   1.020   5.685   0.325  0.0145 -0.1550  0.5401
 3334TIP3    H1 9966   1.004   5.778   0.335 -0.9773 -0.1838 -0.5482
 3334TIP3    H2 9967   1.114   5.678   0.305  0.5231  0.4142  2.5094
 3335TIP3   OH2 9968   1.162   3.955   1.147 -0.2825  0.2480 -0.0126
 3335TIP3    H1 9969   1.234   4.017   1.151  0.0677 -0.1939  0.8040
 3335TIP3    H2 9970   1.150   3.938   1.053 -0.0176  1.1142 -0.2096
 3336TIP3   OH2 9971   7.203   0.134   5.853  0.5636  0.1899  0.5001
 3336TIP3    H1 9972   7.188   0.228   5.846  0.1416  0.0744 -0.3264
 3336TIP3    H2 9973   7.194   0.102   5.763 -2.3794 -1.0778  1.1366
 3337TIP3   OH2 9974   1.064   3.620   1.017 -0.6704 -0.8167  0.5772
 3337TIP3    H1 9975   1.145   3.638   1.065 -1.3076 -0.7688  1.6727
 3337TIP3    H2 9976   1.093   3.596   0.929  0.6321 -2.2040  1.3365
 3338TIP3   OH2 9977   1.253   5.972   0.987  0.1766 -0.1428 -0.2743
 3338TIP3    H1 9978   1.310   5.944   1.058 -0.4531  0.3606  0.4587
 3338TIP3    H2 9979   1.168   5.934   1.008 -0.5851  1.8523  0.5106
 3339TIP3   OH2 9980   6.906   3.819   3.616  0.2693 -0.0886 -0.3843
 3339TIP3    H1 9981   6.828   3.766   3.599  0.4850  0.0433 -1.9396
 3339TIP3    H2 9982   6.960   3.807   3.537  1.1862  0.9309  0.0699
 3340TIP3   OH2 9983   1.376   6.459   0.955  0.5948 -0.0155  0.4444
 3340TIP3    H1 9984   1.336   6.376   0.928  0.0925  0.0429  0.9843
 3340TIP3    H2 9985   1.311   6.526   0.935  0.5350  0.1152  1.0585
 3341TIP3   OH2 9986   3.552   0.607   2.184  0.6313  0.7547  0.2178
 3341TIP3    H1 9987   3.467   0.640   2.213  1.3839  1.9215  1.1968
 3341TIP3    H2 9988   3.549   0.513   2.201 -0.4784  0.7721  0.1882
 3342TIP3   OH2 9989   4.506   1.484   3.742  0.6757  0.6056 -0.4899
 3342TIP3    H1 9990   4.551   1.563   3.774 -1.3886  1.3846  0.7262
 3342TIP3    H2 9991   4.438   1.518   3.684 -0.1771 -0.2798 -0.0251
 3343TIP3   OH2 9992   1.622   3.369   3.145  0.6366  0.5187  0.5418
 3343TIP3    H1 9993   1.586   3.407   3.065  2.2649 -1.2994 -1.1549
 3343TIP3    H2 9994   1.609   3.275   3.135  0.9740  0.2331  2.3977
 3344TIP3   OH2 9995   1.977   6.416   0.595 -0.4159 -0.7148  0.1707
 3344TIP3    H1 9996   1.900   6.452   0.638 -1.0934 -0.7074 -1.0015
 3344TIP3    H2 9997   1.953   6.327   0.572  0.1229 -0.8923  0.2746
 3345TIP3   OH2 9998   6.016   6.597   0.744  0.6338 -0.1643 -0.2177
 3345TIP3    H1 9999   6.008   6.624   0.653  0.9522 -0.0764 -0.2198
 3345TIP3    H210000   6.109   6.600   0.763  0.4690  1.0737  0.4916
 3346TIP3   OH210001   4.752   3.605   1.558 -0.0432  0.3006 -0.3859
 3346TIP3    H110002   4.806   3.603   1.479 -0.1612 -0.9894 -0.4588
 3346TIP3    H210003   4.689   3.534   1.545 -1.8119  1.7877 -0.3200
 3347TIP3   OH210004   4.861   2.418   0.979 -0.3447  0.3167 -0.1749
 3347TIP3    H110005   4.793   2.353   0.995 -1.4955  0.8541 -2.4178
 3347TIP3    H210006   4.871   2.464   1.062 -0.4132 -1.8439  1.0932
 3348TIP3   OH210007   6.594   6.452   3.145 -0.6819  0.0241  0.3051
 3348TIP3    H110008   6.557   6.364   3.137  0.3548 -0.6319  2.1098
 3348TIP3    H210009   6.519   6.510   3.133 -1.8664 -1.1814  1.4763
 3349TIP3   OH210010   1.313   3.672   4.393 -0.0501  0.1753 -0.1319
 3349TIP3    H110011   1.330   3.602   4.331 -0.2566 -0.3646  0.4074
 3349TIP3    H210012   1.330   3.633   4.479  0.9842  1.1335  0.1161
 3350TIP3   OH210013   5.693   1.050   4.977 -0.0777 -0.1746  0.6111
 3350TIP3    H110014   5.784   1.029   4.956 -0.2639 -1.4012  0.9727
 3350TIP3    H210015   5.686   1.144   4.958  0.8801 -0.3385 -0.7769
 3351TIP3   OH210016   6.403   5.276   2.701  0.0542  0.3681 -0.8953
 3351TIP3    H110017   6.498   5.285   2.693  0.4714  0.9605  2.7420
 3351TIP3    H210018   6.390   5.198   2.754 -1.3073  1.4436  0.4683
 3352TIP3   OH210019   7.196   4.705   1.705  0.2623 -0.2300  0.4722
 3352TIP3    H110020   7.244   4.780   1.741  0.3822 -0.3739  0.6174
 3352TIP3    H210021   7.114   4.703   1.755  0.4585 -0.4716  0.7943
 3353TIP3   OH210022   1.395   5.944   0.748  0.0776 -0.6187  0.0528
 3353TIP3    H110023   1.329   5.932   0.816  0.2588 -1.9984  0.0272
 3353TIP3    H210024   1.355   5.907   0.669 -0.4924  1.7945 -0.8554
 3354TIP3   OH210025   6.983   6.730   1.684  0.6639  0.0438  0.0919
 3354TIP3    H110026   7.075   6.707   1.692  0.7718  0.3072 -0.3572
 3354TIP3    H210027   6.936   6.660   1.730  1.1704  0.9789  2.1528
 3355TIP3   OH210028   2.160   0.685   0.122 -0.1924 -0.2083 -0.2101
 3355TIP3    H110029   2.076   0.649   0.148  0.3342 -0.1719  1.7130
 3355TIP3    H210030   2.139   0.769   0.081 -1.1008 -0.3639 -0.0672
 3356TIP3   OH210031   2.859   4.510   3.210 -0.0239 -0.0062  0.3823
 3356TIP3    H110032   2.858   4.469   3.297  0.0141 -0.0359  0.3684
 3356TIP3    H210033   2.766   4.525   3.191 -0.2679 -2.4165 -0.7101
 3357TIP3   OH210034   3.793   4.752   3.282 -0.1747  0.8312 -0.1435
 3357TIP3    H110035   3.788   4.846   3.299 -1.6753  0.9026 -0.8280
 3357TIP3    H210036   3.758   4.712   3.362 -0.9504  0.9322 -0.4163
 3358TIP3   OH210037   1.554   2.708   4.318 -0.1820 -0.5202 -0.0670
 3358TIP3    H110038   1.487   2.655   4.362  0.7762 -1.7335 -0.0030
 3358TIP3    H210039   1.622   2.645   4.294  1.5956  0.8522  1.0935
 3359TIP3   OH210040   2.762   6.722   3.203  0.6808 -0.1622 -0.5649
 3359TIP3    H110041   2.700   6.651   3.183  0.3628  0.2713 -1.1236
 3359TIP3    H210042   2.735   6.752   3.291 -1.4582  1.5869 -1.7027
 3360TIP3   OH210043   1.682   6.063   1.368  0.1933 -0.2460 -0.4683
 3360TIP3    H110044   1.591   6.080   1.393  0.1272  0.2568 -1.0170
 3360TIP3    H210045   1.681   5.977   1.328 -0.1458 -0.0013 -0.9874
 3361TIP3   OH210046   4.779   2.772   2.079 -0.3436  0.3669 -0.1459
 3361TIP3    H110047   4.785   2.751   2.172 -0.1676  0.6152 -0.0996
 3361TIP3    H210048   4.701   2.827   2.071 -0.6931 -0.1391 -0.2371
 3362TIP3   OH210049   2.814   2.506   2.787  0.0598  0.1238  0.0342
 3362TIP3    H110050   2.820   2.432   2.847  0.1052 -0.6687 -0.9214
 3362TIP3    H210051   2.849   2.580   2.836  1.3782 -0.7918  0.5072
 3363TIP3   OH210052   1.633   4.782   3.247  0.6713 -0.6703  0.1430
 3363TIP3    H110053   1.617   4.734   3.166 -1.7099 -1.9038  1.2259
 3363TIP3    H210054   1.548   4.822   3.268  2.2433  3.1510 -0.0593
 3364TIP3   OH210055   5.018   6.669   0.356  0.2358  0.0423 -0.0036
 3364TIP3    H110056   4.924   6.682   0.370 -0.0197 -2.1581  0.6968
 3364TIP3    H210057   5.059   6.739   0.408 -0.9787  1.5949 -1.0361
 3365TIP3   OH210058   5.725   6.192   1.014  0.1562 -0.3222  0.0826
 3365TIP3    H110059   5.787   6.140   1.064 -0.2768 -1.8412 -0.8622
 3365TIP3    H210060   5.639   6.163   1.045 -0.1321  1.5150  1.1470
 3366TIP3   OH210061   3.902   4.750   1.631  0.7240  0.2310 -0.4339
 3366TIP3    H110062   3.965   4.775   1.697  0.0774  2.2157 -0.5130
 3366TIP3    H210063   3.817   4.757   1.674  0.4343 -1.0019 -0.7441
 3367TIP3   OH210064   4.416   4.749   2.587  0.2481  0.6951 -0.3165
 3367TIP3    H110065   4.429   4.704   2.670 -0.4730  1.7764  0.4076
 3367TIP3    H210066   4.482   4.819   2.587  2.4547 -1.1989 -2.1432
 3368TIP3   OH210067   6.999   5.011   1.711 -0.4135 -0.5413 -0.1081
 3368TIP3    H110068   6.911   5.045   1.696 -0.5910 -0.4896  0.9380
 3368TIP3    H210069   7.050   5.041   1.636 -1.1468 -0.0640 -0.4271
 3369TIP3   OH210070   5.689   3.526   3.335  0.0702 -0.0711  0.2227
 3369TIP3    H110071   5.605   3.479   3.334 -0.2269  0.3770  1.8505
 3369TIP3    H210072   5.685   3.584   3.259  0.3142 -2.3574 -1.6826
 3370TIP3   OH210073   1.568   3.076   1.672 -0.2232 -0.1153  0.0344
 3370TIP3    H110074   1.531   3.005   1.619  1.1528 -0.2103 -0.8256
 3370TIP3    H210075   1.519   3.154   1.646 -1.0533 -0.5469  0.2537
 3371TIP3   OH210076   2.113   2.349   1.467  0.4462 -0.4673  0.8793
 3371TIP3    H110077   2.166   2.309   1.536  1.0393 -0.0572  0.6719
 3371TIP3    H210078   2.094   2.437   1.499 -0.3568 -0.6997  1.0747
 3372TIP3   OH210079   4.540   0.027   3.417 -0.3195  0.2651  0.4714
 3372TIP3    H110080   4.454   0.049   3.380  0.0404 -0.2273 -0.7340
 3372TIP3    H210081   4.562   0.101   3.473 -1.1013  0.8585  0.0263
 3373TIP3   OH210082   3.759   5.119   0.767 -0.0799  0.1766  0.4012
 3373TIP3    H110083   3.783   5.031   0.738  1.2535  0.6316  0.0778
 3373TIP3    H210084   3.767   5.173   0.689 -0.4143  0.6812  0.7118
 3374TIP3   OH210085   4.868   4.890   4.736  0.3656 -0.0055  0.3318
 3374TIP3    H110086   4.961   4.910   4.729  0.1197  1.2614  0.3304
 3374TIP3    H210087   4.841   4.930   4.819  0.0181 -1.2218  0.8324
 3375TIP3   OH210088   0.910   0.674   0.417  0.3727 -0.2031 -0.3085
 3375TIP3    H110089   0.987   0.709   0.372 -0.8536  0.9598 -1.6128
 3375TIP3    H210090   0.885   0.597   0.365  1.3385 -1.3152  0.8302
 3376TIP3   OH210091   2.736   4.992   0.385  0.5034 -0.6159 -0.0126
 3376TIP3    H110092   2.815   4.956   0.425 -0.5339 -2.5340  0.4492
 3376TIP3    H210093   2.741   4.965   0.293  1.8523  1.9780 -0.7974
 3377TIP3   OH210094   1.781   5.761   0.975 -0.0927  0.7259  0.5557
 3377TIP3    H110095   1.746   5.785   0.889 -0.4348  1.1563  0.8053
 3377TIP3    H210096   1.848   5.827   0.993  2.5790 -1.3909 -0.9245
 3378TIP3   OH210097   5.719   2.453   5.043  0.0016  0.2996 -0.1118
 3378TIP3    H110098   5.635   2.499   5.038 -0.1422  0.1030  0.4173
 3378TIP3    H210099   5.784   2.521   5.027 -0.1769  0.8547  1.3629
 3379TIP3   OH210100   2.312   1.216   4.992 -0.1518 -0.4007 -0.3359
 3379TIP3    H110101   2.314   1.203   5.086 -0.1266 -0.8128 -0.3924
 3379TIP3    H210102   2.402   1.238   4.969  0.2381 -2.0800 -0.5081
 3380TIP3   OH210103   3.186   0.329   2.429  0.6234 -0.1240  0.0630
 3380TIP3    H110104   3.147   0.352   2.344 -1.2616 -0.3202  0.8233
 3380TIP3    H210105   3.219   0.412   2.463 -1.1497  0.5245  0.3355
 3381TIP3   OH210106   4.578   6.360   3.411 -1.1890 -0.6493 -0.3637
 3381TIP3    H110107   4.542   6.447   3.429 -0.0259  0.2018 -1.8488
 3381TIP3    H210108   4.644   6.347   3.479 -0.7864  0.0174 -0.6145
 3382TIP3   OH210109   3.763   3.954   0.191  0.3406  0.2675 -0.4235
 3382TIP3    H110110   3.795   3.894   0.123  0.7956 -1.4741  1.2515
 3382TIP3    H210111   3.673   3.973   0.165  0.7223  0.2150 -1.8827
 3383TIP3   OH210112   0.741   4.218   4.021  0.5179  0.2650  0.1907
 3383TIP3    H110113   0.647   4.235   4.030  0.5344  0.7393 -0.4592
 3383TIP3    H210114   0.760   4.234   3.929  0.7320 -2.4543 -0.3236
 3384TIP3   OH210115   4.850   2.122   5.243  0.4527 -0.0566 -0.5031
 3384TIP3    H110116   4.896   2.041   5.223  2.3086  0.3658  1.6153
 3384TIP3    H210117   4.805   2.104   5.326 -1.4080  0.2575 -1.4080
 3385TIP3   OH210118   7.004   5.649   1.315  0.4998 -0.2000 -0.2522
 3385TIP3    H110119   7.094   5.660   1.347  0.5701  1.6515 -0.9727
 3385TIP3    H210120   7.014   5.594   1.237  1.0726  0.3784 -0.5981
 3386TIP3   OH210121   1.826   2.176   0.072  0.0019 -0.6271 -0.5596
 3386TIP3    H110122   1.875   2.210  -0.002 -0.0450 -2.0765 -1.2848
 3386TIP3    H210123   1.884   2.188   0.147  0.7478 -0.7298 -1.1185
 3387TIP3   OH210124   1.719   2.598   0.109 -0.4183 -0.5572 -0.5266
 3387TIP3    H110125   1.753   2.549   0.184 -1.5412 -1.3471 -0.5009
 3387TIP3    H210126   1.704   2.686   0.143 -0.2605 -0.7246 -0.0072
 3388TIP3   OH210127   1.349   3.831   4.138  0.3748 -0.1324  0.2575
 3388TIP3    H110128   1.275   3.887   4.117  0.7971 -0.1031 -1.3220
 3388TIP3    H210129   1.326   3.789   4.220  0.1114  2.4583  1.6089
 3389TIP3   OH210130   2.989   4.389   0.995 -0.1841 -0.1280  0.4046
 3389TIP3    H110131   3.040   4.359   0.920  0.6521  0.4714  0.7191
 3389TIP3    H210132   3.013   4.329   1.066 -1.5839 -1.2013  0.0172
 3390TIP3   OH210133   0.220   4.016   0.699 -0.1645 -0.2604 -0.0583
 3390TIP3    H110134   0.170   3.942   0.664 -2.7932  1.7035 -0.7454
 3390TIP3    H210135   0.244   3.988   0.788 -1.4310 -1.7964 -0.1519
 3391TIP3   OH210136   1.577   3.924   4.329  0.3378 -0.2310  0.3926
 3391TIP3    H110137   1.622   3.854   4.282 -0.2913 -0.0391 -0.5149
 3391TIP3    H210138   1.550   3.883   4.412  3.8079  0.1553  1.9008
 3392TIP3   OH210139   4.760   1.663   4.051  0.4027  0.0664 -0.3624
 3392TIP3    H110140   4.777   1.595   4.115  0.0615  0.9333  0.6867
 3392TIP3    H210141   4.839   1.718   4.052  1.1762 -0.9124 -2.0541
 3393TIP3   OH210142   6.544   3.768   1.420  0.1228 -0.0194 -0.2173
 3393TIP3    H110143   6.632   3.795   1.394  1.0237 -1.2947  1.3167
 3393TIP3    H210144   6.504   3.849   1.452  1.7523  0.1510  1.6337
 3394TIP3   OH210145   6.064   2.035   3.977 -0.0162  0.4967  0.6152
 3394TIP3    H110146   6.001   2.099   3.944 -0.5909 -0.0692  0.5806
 3394TIP3    H210147   6.148   2.064   3.943 -0.5393  0.1387 -1.0907
 3395TIP3   OH210148   1.570   3.640   1.275 -0.4152  0.3368 -0.1853
 3395TIP3    H110149   1.603   3.658   1.362  2.1878 -2.3705 -0.4386
 3395TIP3    H210150   1.602   3.712   1.221  0.7870  0.3814  0.5471
 3396TIP3   OH210151   3.996   4.621   0.594  0.2716 -0.8550  0.2382
 3396TIP3    H110152   4.078   4.632   0.642  0.2262 -1.2153  0.4024
 3396TIP3    H210153   3.941   4.693   0.625  0.0259 -1.4267  1.1968
 3397TIP3   OH210154   5.312   2.041   1.732  0.6123 -0.0037  0.3633
 3397TIP3    H110155   5.231   2.015   1.775  0.6398  0.1829  0.5352
 3397TIP3    H210156   5.377   1.977   1.761  0.1185 -1.3401 -1.3275
 3398TIP3   OH210157   3.431   6.343   2.058 -0.0687  0.1221  1.0405
 3398TIP3    H110158   3.452   6.360   1.966  1.2225 -1.6216  0.9661
 3398TIP3    H210159   3.498   6.392   2.106 -0.6090  0.8513  1.0743
 3399TIP3   OH210160   2.619   2.947   3.823  0.1971 -0.3343  0.0246
 3399TIP3    H110161   2.616   2.911   3.912 -1.6491  0.2987  0.2648
 3399TIP3    H210162   2.672   2.885   3.774  0.9191 -0.9102  1.4755
 3400TIP3   OH210163   5.503   3.018   3.822 -0.0396 -0.6367  0.2210
 3400TIP3    H110164   5.507   2.974   3.907  1.3316  0.7729  0.9355
 3400TIP3    H210165   5.548   3.101   3.836 -1.0956  0.2876 -1.5105
 3401TIP3   OH210166   3.698   3.469   1.712 -0.1563 -0.2321 -0.6541
 3401TIP3    H110167   3.727   3.378   1.701  0.0004 -0.3059  0.3504
 3401TIP3    H210168   3.609   3.463   1.744 -0.7500 -0.0042 -2.1709
 3402TIP3   OH210169   4.952   1.902   4.033  0.5331  0.1419  0.2352
 3402TIP3    H110170   4.965   1.905   4.128  0.6890 -1.0166  0.2612
 3402TIP3    H210171   4.936   1.993   4.008  3.3032  0.9310  0.9907
 3403TIP3   OH210172   4.951   6.683   4.623  0.2976  0.5673 -0.2366
 3403TIP3    H110173   4.903   6.764   4.641  0.8565  1.0235 -0.7663
 3403TIP3    H210174   5.043   6.706   4.636  0.4146 -0.1901  0.3602
 3404TIP3   OH210175   5.727   4.144   1.360  0.5441 -0.0073  0.0978
 3404TIP3    H110176   5.707   4.233   1.332  1.6729  0.6828  1.3563
 3404TIP3    H210177   5.783   4.155   1.437 -1.4464 -1.7771  1.9364
 3405TIP3   OH210178   4.941   0.342   3.597  0.4925 -0.2353  0.4172
 3405TIP3    H110179   4.913   0.257   3.563  0.6357  0.1114 -0.5987
 3405TIP3    H210180   5.036   0.338   3.598  0.6017  0.5424 -1.4333
 3406TIP3   OH210181   5.044   0.573   2.116 -0.0087 -0.1631  0.3021
 3406TIP3    H110182   5.091   0.496   2.082 -1.8595 -1.2742  0.1556
 3406TIP3    H210183   5.018   0.621   2.037  0.2853  0.0982  0.3616
 3407TIP3   OH210184   1.799   0.551   3.773  0.4503  0.5315 -0.1463
 3407TIP3    H110185   1.735   0.482   3.757 -0.6690  1.5116 -0.0640
 3407TIP3    H210186   1.883   0.506   3.778 -0.4311 -1.0448  1.6368
 3408TIP3   OH210187   0.989   5.960   0.376 -0.4768  0.1949  0.2172
 3408TIP3    H110188   1.027   5.982   0.291  0.0647  0.1268  0.4360
 3408TIP3    H210189   0.899   5.995   0.372 -0.2954  0.6345 -0.1930
 3409TIP3   OH210190   6.315   5.526   1.803 -0.4658  0.2085  0.2253
 3409TIP3    H110191   6.232   5.519   1.849  0.3417 -1.8254  1.4714
 3409TIP3    H210192   6.332   5.439   1.768  1.2266  0.5091  0.1761
 3410TIP3   OH210193   5.259   1.633   1.034  0.4787  0.2465  0.0322
 3410TIP3    H110194   5.194   1.611   0.966  0.8482 -2.3018  0.3857
 3410TIP3    H210195   5.208   1.662   1.109 -0.3351 -1.7909  0.3249
 3411TIP3   OH210196   1.336   0.068   0.559 -0.8924 -0.0034  0.0263
 3411TIP3    H110197   1.377   0.061   0.473  0.3180 -1.2708  0.6585
 3411TIP3    H210198   1.278  -0.008   0.565  0.1264 -0.7672  0.8296
 3412TIP3   OH210199   3.570   1.049   4.100 -0.0169  0.2672 -0.1702
 3412TIP3    H110200   3.613   1.020   4.180  0.1570  2.5570  0.6291
 3412TIP3    H210201   3.478   1.024   4.112  0.3079 -0.9478 -0.0675
 3413TIP3   OH210202   6.919   1.917   4.006 -0.4006 -0.1606 -0.2274
 3413TIP3    H110203   6.957   1.939   4.091 -0.8924  2.0931 -0.5368
 3413TIP3    H210204   6.935   1.994   3.951  0.3154 -1.7147 -2.3649
 3414TIP3   OH210205   0.501   5.635   3.538 -0.4469 -0.3605 -0.0152
 3414TIP3    H110206   0.418   5.623   3.585 -0.0702 -0.6787  0.5820
 3414TIP3    H210207   0.565   5.649   3.607 -0.1028  0.5297 -0.5021
 3415TIP3   OH210208   1.174   0.811   3.667  0.2097 -0.2518 -0.2276
 3415TIP3    H110209   1.123   0.753   3.724 -0.1792 -0.8775 -1.1783
 3415TIP3    H210210   1.263   0.804   3.699  0.3672 -2.2358 -0.9527
 3416TIP3   OH210211   6.060   4.026   3.800 -0.3999 -0.3591 -0.6540
 3416TIP3    H110212   6.019   3.986   3.723 -0.6423 -1.5308  0.0447
 3416TIP3    H210213   6.044   3.963   3.871  0.9563  0.0589  0.0644
 3417TIP3   OH210214   5.344   5.294   3.548  0.1820  0.1309 -0.2770
 3417TIP3    H110215   5.291   5.289   3.627  0.0758 -1.3018 -0.4223
 3417TIP3    H210216   5.410   5.361   3.567 -0.2254  0.2421  0.7854
 3418TIP3   OH210217   0.195   1.971   0.873  0.0208 -0.2065 -0.5193
 3418TIP3    H110218   0.241   2.047   0.836  1.4065 -1.2986 -1.1549
 3418TIP3    H210219   0.239   1.955   0.956  0.2922 -0.7917 -0.7688
 3419TIP3   OH210220   4.251   4.764   3.616  0.1166  0.2710 -0.2483
 3419TIP3    H110221   4.280   4.810   3.695 -0.4539  0.5540 -0.2012
 3419TIP3    H210222   4.275   4.672   3.632 -1.1752  0.0946  0.8321
 3420TIP3   OH210223   5.600   0.298   0.010 -0.2259 -0.4248 -0.1915
 3420TIP3    H110224   5.532   0.247  -0.033  0.7184 -2.4795  0.6140
 3420TIP3    H210225   5.632   0.241   0.081  2.5283  0.2973 -0.7334
 3421TIP3   OH210226   4.555   6.660   4.215  0.2195 -0.0447  0.1070
 3421TIP3    H110227   4.552   6.628   4.305 -0.9098 -0.6663 -0.1325
 3421TIP3    H210228   4.529   6.752   4.221  2.1064  0.5043  0.6314
 3422TIP3   OH210229   6.467   6.104   5.817 -0.5473 -0.0468 -0.3159
 3422TIP3    H110230   6.494   6.076   5.904  0.6595 -1.0818 -0.9811
 3422TIP3    H210231   6.377   6.073   5.808 -0.7099  0.1475  0.5878
 3423TIP3   OH210232   2.100   1.093   4.179  0.4417 -0.3570 -0.1095
 3423TIP3    H110233   2.076   1.028   4.246  0.6981  0.5396  0.8846
 3423TIP3    H210234   2.072   1.053   4.096  1.8674 -2.3530  0.2972
 3424TIP3   OH210235   3.589   5.610   0.899  0.1552  0.4923  0.1453
 3424TIP3    H110236   3.676   5.647   0.892  0.2755  0.0130 -1.5038
 3424TIP3    H210237   3.599   5.519   0.870 -0.6379 -0.0029  1.3439
 3425TIP3   OH210238   7.177   2.207   2.972  0.0758 -0.1707  0.4152
 3425TIP3    H110239   7.139   2.222   3.058  0.3751 -1.0974  0.7218
 3425TIP3    H210240   7.227   2.126   2.982  1.0892  0.3377 -0.3077
 3426TIP3   OH210241   3.851   4.387   0.439  0.4578 -0.7715  0.0859
 3426TIP3    H110242   3.837   4.475   0.472  3.8717 -0.0808  0.0467
 3426TIP3    H210243   3.814   4.329   0.505  0.9084  0.6815  1.6648
 3427TIP3   OH210244   1.813   3.125   3.322 -0.6233 -0.4227  0.7103
 3427TIP3    H110245   1.802   3.055   3.258  1.1009  1.2577 -1.5940
 3427TIP3    H210246   1.891   3.171   3.294 -1.2887  2.0255  2.5247
 3428TIP3   OH210247   3.422   3.666   3.084 -0.2672  0.1397  0.2434
 3428TIP3    H110248   3.370   3.742   3.060 -0.1899  0.6251  1.5540
 3428TIP3    H210249   3.372   3.623   3.154  0.1224 -0.5104  0.1361
 3429TIP3   OH210250   1.190   5.934   5.097  0.5033  0.2565  0.1190
 3429TIP3    H110251   1.117   5.904   5.151  0.1260 -0.3526 -0.7189
 3429TIP3    H210252   1.234   5.854   5.069  0.8682  0.5786 -0.2365
 3430TIP3   OH210253   1.646   4.471   4.038 -0.1208  0.0518 -1.2706
 3430TIP3    H110254   1.617   4.561   4.054  0.8436  0.3335 -1.0280
 3430TIP3    H210255   1.693   4.475   3.954 -0.2642 -0.2632 -1.3649
 3431TIP3   OH210256   6.888   0.344   5.730 -0.2830  0.1504 -0.0803
 3431TIP3    H110257   6.902   0.352   5.825 -0.6522 -1.5735  0.1630
 3431TIP3    H210258   6.967   0.301   5.698  1.5820  4.0469 -1.2583
 3432TIP3   OH210259   2.605   5.863   3.590  0.1023  0.1565  0.4200
 3432TIP3    H110260   2.543   5.934   3.606 -0.4570 -0.3030  0.3424
 3432TIP3    H210261   2.614   5.861   3.495  0.6047  0.5289  0.4588
 3433TIP3   OH210262   3.180   1.353   1.397 -0.0970 -0.0237 -0.5484
 3433TIP3    H110263   3.105   1.405   1.428  0.0568 -0.3419  0.3876
 3433TIP3    H210264   3.140   1.274   1.359 -0.2372 -0.4890  0.5151
 3434TIP3   OH210265   6.755   4.006   1.264 -0.8517 -0.8657 -0.1306
 3434TIP3    H110266   6.812   3.939   1.226  1.7726  0.6884  0.8297
 3434TIP3    H210267   6.773   4.003   1.358 -1.8427  0.1517  0.1153
 3435TIP3   OH210268   3.573   1.721   0.739  0.2113 -0.0573  0.2236
 3435TIP3    H110269   3.524   1.680   0.810  0.0791  0.5595  0.4934
 3435TIP3    H210270   3.533   1.686   0.659 -0.0893 -0.2262  0.4456
 3436TIP3   OH210271   1.962   1.621   1.886  0.1754  0.0402  0.1384
 3436TIP3    H110272   1.948   1.687   1.954  0.1975  0.2682 -0.0766
 3436TIP3    H210273   1.970   1.671   1.805 -0.4829 -0.2656 -0.1304
 3437TIP3   OH210274   2.023   6.751   0.682  0.2944  0.4020  0.3732
 3437TIP3    H110275   2.011   6.677   0.741  0.6773  1.1113  1.3654
 3437TIP3    H210276   2.117   6.758   0.672  0.4048  2.0723  2.0562
 3438TIP3   OH210277   0.634   1.233   2.800  0.4607  0.5518 -0.2398
 3438TIP3    H110278   0.582   1.313   2.798 -0.4146 -0.0024 -0.0270
 3438TIP3    H210279   0.579   1.167   2.760  1.5482  0.2402 -1.2896
 3439TIP3   OH210280   5.332   1.611   3.099  0.6389  0.2222  0.1364
 3439TIP3    H110281   5.253   1.574   3.060  0.2731 -1.1158  2.0416
 3439TIP3    H210282   5.333   1.578   3.188  3.1630  0.5383  0.2959
 3440TIP3   OH210283   0.785   4.496   0.413 -0.3715 -0.4465  0.7416
 3440TIP3    H110284   0.793   4.537   0.327 -2.7229 -0.8552  0.2579
 3440TIP3    H210285   0.872   4.505   0.452  0.6840 -0.0033 -1.5515
 3441TIP3   OH210286   0.258   1.241   5.898 -0.2149 -0.2981 -0.5378
 3441TIP3    H110287   0.303   1.325   5.904  0.4347 -0.7295  1.2643
 3441TIP3    H210288   0.323   1.182   5.859  0.6444 -0.7636  1.4610
 3442TIP3   OH210289   2.666   6.108   0.944 -0.0444  0.5805  0.2877
 3442TIP3    H110290   2.730   6.102   1.015 -0.7113  1.0997  0.9452
 3442TIP3    H210291   2.693   6.187   0.895  1.1671 -0.4654 -0.8231
 3443TIP3   OH210292   6.278   2.246   3.115  0.1547 -0.5822 -0.3696
 3443TIP3    H110293   6.258   2.273   3.026  2.0997 -0.9548 -0.9668
 3443TIP3    H210294   6.193   2.246   3.160 -1.1874 -2.1471 -2.6776
 3444TIP3   OH210295   3.652   0.660   4.941 -0.3661  0.2388 -0.2150
 3444TIP3    H110296   3.665   0.753   4.963  0.3333  0.3506 -1.0437
 3444TIP3    H210297   3.738   0.630   4.912 -1.0143 -0.1244 -1.8924
 3445TIP3   OH210298   6.943   6.697   0.256 -0.1581 -0.2835  0.1528
 3445TIP3    H110299   7.014   6.657   0.307 -0.8826  0.3950  1.7535
 3445TIP3    H210300   6.875   6.630   0.252 -1.1859  0.5155  2.4469
 3446TIP3   OH210301   6.110   4.335   4.238 -0.4549 -0.0538 -0.1081
 3446TIP3    H110302   6.160   4.406   4.278 -2.3572  2.1617 -1.3730
 3446TIP3    H210303   6.033   4.326   4.294  0.3998 -2.1907  0.8292
 3447TIP3   OH210304   3.744   2.566   0.154  0.1180  0.4177 -0.6509
 3447TIP3    H110305   3.687   2.565   0.230  1.5496  0.6912  0.4639
 3447TIP3    H210306   3.769   2.475   0.140 -0.5938  0.2925 -1.1642
 3448TIP3   OH210307   5.253   2.677   4.812  0.7589  0.2406  0.0434
 3448TIP3    H110308   5.291   2.755   4.771  2.8818  0.0822  1.5481
 3448TIP3    H210309   5.316   2.652   4.879  0.1064 -2.7457 -0.3333
 3449TIP3   OH210310   1.004   0.013   1.493 -0.1438 -0.0005 -0.1865
 3449TIP3    H110311   0.986   0.032   1.401 -1.5465 -3.8104 -0.8831
 3449TIP3    H210312   1.097  -0.009   1.496 -0.2826 -0.7194 -0.9127
 3450TIP3   OH210313   0.550   5.382   0.388  0.0786  0.2794  0.7020
 3450TIP3    H110314   0.635   5.350   0.359  0.4558 -1.2208  3.1962
 3450TIP3    H210315   0.512   5.424   0.310  2.7418  0.3352 -0.6744
 3451TIP3   OH210316   5.389   6.678   1.391 -0.1229  0.0594 -0.1145
 3451TIP3    H110317   5.470   6.674   1.441  1.1581  0.5492 -2.0668
 3451TIP3    H210318   5.367   6.771   1.388 -0.1978  0.0301 -0.4717
 3452TIP3   OH210319   4.522   1.145   2.571  0.2379 -0.2111  0.1017
 3452TIP3    H110320   4.435   1.183   2.588  0.9698  1.0830  1.1354
 3452TIP3    H210321   4.530   1.075   2.637 -1.5601 -3.1400 -2.4952
 3453TIP3   OH210322   7.000   1.361   3.058  0.0530  0.6984 -0.2108
 3453TIP3    H110323   7.058   1.385   2.986 -1.2440  0.7359 -1.2868
 3453TIP3    H210324   6.938   1.299   3.019 -0.2645  0.2011  1.0477
 3454TIP3   OH210325   1.663   6.252   5.674 -0.4859  0.0475  0.7486
 3454TIP3    H110326   1.627   6.340   5.690 -0.0371  0.5595 -0.8823
 3454TIP3    H210327   1.589   6.193   5.687 -1.6625  0.9711 -1.2175
 3455TIP3   OH210328   5.116   4.991   3.316 -0.2995  0.4287  0.7610
 3455TIP3    H110329   5.203   5.031   3.310 -0.3371  0.5441  0.9601
 3455TIP3    H210330   5.103   4.977   3.410  0.5975 -2.0432  0.5838
 3456TIP3   OH210331   7.131   4.199   4.557  0.1774 -0.0068  0.0756
 3456TIP3    H110332   7.139   4.137   4.630 -2.3858 -1.4282 -0.7170
 3456TIP3    H210333   7.055   4.252   4.580  0.4098  0.7011 -0.7546
 3457TIP3   OH210334   3.036   2.701   5.545 -0.2818  0.2929 -0.1496
 3457TIP3    H110335   2.962   2.747   5.506 -1.1407 -0.3117  0.7049
 3457TIP3    H210336   3.038   2.731   5.636 -0.6644 -1.0847  0.3419
 3458TIP3   OH210337   1.327   1.035   1.715  0.1241 -0.3503  0.4575
 3458TIP3    H110338   1.244   1.070   1.682  0.2498 -0.7071 -0.2677
 3458TIP3    H210339   1.330   0.945   1.681  1.7621  0.3110 -1.3665
 3459TIP3   OH210340   0.110   2.969   0.181 -0.2341  0.5507  0.2368
 3459TIP3    H110341   0.157   3.010   0.108  0.4171 -1.8864 -0.8093
 3459TIP3    H210342   0.173   2.968   0.253  1.9630 -3.5891 -1.4412
 3460TIP3   OH210343   4.186   1.445   0.136  0.0011  0.3390 -0.2033
 3460TIP3    H110344   4.103   1.403   0.114  0.3326  0.2761 -1.3903
 3460TIP3    H210345   4.172   1.483   0.223 -0.7108 -1.1307  0.3495
 3461TIP3   OH210346   2.852   3.587   4.772  0.9237 -0.2374  0.2155
 3461TIP3    H110347   2.802   3.667   4.754  3.3689  1.1856 -0.8441
 3461TIP3    H210348   2.854   3.580   4.867  0.4779  0.8394  0.3173
 3462TIP3   OH210349   2.444   3.311   0.895 -0.6874  0.0838 -0.2636
 3462TIP3    H110350   2.354   3.330   0.922 -0.3499 -0.2546  1.1565
 3462TIP3    H210351   2.450   3.215   0.899  0.0846  0.1617  0.8814
 3463TIP3   OH210352   2.900   1.370   0.391  0.2901 -0.4418 -0.5020
 3463TIP3    H110353   2.948   1.395   0.471  0.6373  0.6585 -1.0360
 3463TIP3    H210354   2.868   1.282   0.410  0.9538 -0.4790  0.5911
 3464TIP3   OH210355   7.071   5.241   0.952 -0.2420 -0.3774  0.3267
 3464TIP3    H110356   7.024   5.258   0.871  0.4452 -1.4565 -0.3289
 3464TIP3    H210357   7.025   5.167   0.992  0.0909 -0.5820  0.3396
 3465TIP3   OH210358   5.471   1.499   5.334 -0.0967 -0.3022  0.2509
 3465TIP3    H110359   5.522   1.561   5.386  0.6840 -2.2726  1.9891
 3465TIP3    H210360   5.500   1.514   5.244  1.3274  0.6744  0.8348
 3466TIP3   OH210361   4.466   1.019   1.916 -0.0115 -0.2867 -0.1449
 3466TIP3    H110362   4.455   0.958   1.843 -1.0040  1.3551 -1.4312
 3466TIP3    H210363   4.534   0.979   1.970  0.0324 -2.0566 -1.4252
 3467TIP3   OH210364   5.573   2.168   0.970 -0.1023 -0.7069  0.6967
 3467TIP3    H110365   5.532   2.140   0.888  0.6088  0.7355 -0.1931
 3467TIP3    H210366   5.530   2.251   0.991  1.2883  0.0672  0.5554
 3468TIP3   OH210367   3.513   5.993   2.702  0.1232  0.1530  0.0381
 3468TIP3    H110368   3.562   6.045   2.765  0.8813 -1.7153  1.0837
 3468TIP3    H210369   3.445   5.951   2.753 -0.6701  0.3411 -0.8395
 3469TIP3   OH210370   5.921   3.608   2.732  0.1254 -0.2689 -0.5379
 3469TIP3    H110371   5.872   3.675   2.684  1.1640  2.0445  1.4291
 3469TIP3    H210372   5.969   3.561   2.664 -0.3952  1.1834 -1.9890
 3470TIP3   OH210373   6.967   0.232   2.768  0.5623  0.2594 -0.1209
 3470TIP3    H110374   7.048   0.262   2.727 -0.0457  0.6986 -1.0227
 3470TIP3    H210375   6.897   0.264   2.710 -0.2741  0.1840  0.8237
 3471TIP3   OH210376   4.520   3.189   2.173 -0.3632  0.4781  0.1749
 3471TIP3    H110377   4.548   3.214   2.261 -1.1765  1.6471  0.1234
 3471TIP3    H210378   4.538   3.095   2.168  0.8894  0.6360  1.1220
 3472TIP3   OH210379   4.960   6.006   2.112 -0.2163 -0.3652 -0.3872
 3472TIP3    H110380   4.984   6.096   2.136  0.2960 -0.6141  0.0587
 3472TIP3    H210381   5.031   5.975   2.056 -0.8530 -0.1818 -1.3209
 3473TIP3   OH210382   2.170   1.894   0.915  0.0603 -0.3560  0.0181
 3473TIP3    H110383   2.103   1.886   0.847  0.8550  0.0593 -0.8373
 3473TIP3    H210384   2.238   1.833   0.889  1.2846  1.2291 -0.6869
 3474TIP3   OH210385   4.450   6.479   0.065 -0.2224 -0.1384 -0.3045
 3474TIP3    H110386   4.511   6.448  -0.002  0.2085 -0.4064  0.2034
 3474TIP3    H210387   4.366   6.440   0.042  0.0566 -0.7262 -0.3476
 3475TIP3   OH210388   0.615   1.807   4.101 -0.2827  0.1207  0.3017
 3475TIP3    H110389   0.557   1.877   4.130 -0.8774 -1.1855  2.4747
 3475TIP3    H210390   0.563   1.759   4.036 -2.0123 -1.3669  2.6069
 3476TIP3   OH210391   5.207   0.046   2.952  0.0803  0.5889  0.1404
 3476TIP3    H110392   5.189   0.013   3.040  0.3070  0.7613  0.2537
 3476TIP3    H210393   5.207  -0.032   2.896 -0.5378  0.5361  0.2130
 3477TIP3   OH210394   3.552   2.719   3.635 -0.2709  0.5581 -0.2149
 3477TIP3    H110395   3.568   2.811   3.614  0.5114  0.2232 -1.1969
 3477TIP3    H210396   3.468   2.699   3.595  0.3653  0.4115 -1.5461
 3478TIP3   OH210397   6.438   5.943   0.245 -0.1940 -0.0367  0.5439
 3478TIP3    H110398   6.428   5.951   0.340  0.4956 -0.4474  0.6578
 3478TIP3    H210399   6.473   5.855   0.232  0.7512  0.4112 -0.0064
 3479TIP3   OH210400   5.222   2.136   3.456  0.3593  0.4517  0.2319
 3479TIP3    H110401   5.197   2.189   3.380  0.6742  1.9007  1.0959
 3479TIP3    H210402   5.317   2.127   3.449  0.1855 -0.9599 -0.4939
 3480TIP3   OH210403   5.968   6.246   1.478  0.0184 -0.5373  0.1749
 3480TIP3    H110404   5.964   6.213   1.568 -2.6389  1.4167  0.8840
 3480TIP3    H210405   5.888   6.214   1.438  1.1976 -1.4334 -1.6077
 3481TIP3   OH210406   6.883   5.685   2.752 -0.5521 -0.1956 -0.3904
 3481TIP3    H110407   6.819   5.744   2.792 -1.2685 -1.1913 -0.0281
 3481TIP3    H210408   6.832   5.632   2.691 -1.1016 -4.0227  2.9753
 3482TIP3   OH210409   4.482   4.526   0.804 -0.4409 -0.3429 -0.0493
 3482TIP3    H110410   4.553   4.561   0.858 -1.6075 -0.5987  1.7278
 3482TIP3    H210411   4.526   4.490   0.727  1.1865  1.0482  0.1732
 3483TIP3   OH210412   4.146   6.165   1.707 -0.0433  0.1411  0.1254
 3483TIP3    H110413   4.109   6.100   1.648 -0.3321  0.8211 -0.4529
 3483TIP3    H210414   4.177   6.114   1.782 -0.4543 -0.6355 -0.2201
 3484TIP3   OH210415   0.131   4.649   3.799  0.4454  0.5962  0.0265
 3484TIP3    H110416   0.077   4.722   3.769  2.8166  1.9467 -1.2389
 3484TIP3    H210417   0.070   4.593   3.848 -2.0230  2.0565 -1.1636
 3485TIP3   OH210418   6.527   0.275   2.583 -0.4645  0.0529 -0.5061
 3485TIP3    H110419   6.562   0.198   2.538 -0.3537  0.5474 -1.2935
 3485TIP3    H210420   6.432   0.261   2.584 -0.4613 -0.0012 -0.8375
 3486TIP3   OH210421   5.059   0.325   1.706 -0.4082 -0.0196 -0.3457
 3486TIP3    H110422   4.971   0.364   1.701 -0.8167 -0.7274  0.8818
 3486TIP3    H210423   5.117   0.399   1.720 -1.0519  0.2963  0.8257
 3487TIP3   OH210424   1.061   2.841   0.666  0.0928 -0.1348  0.5231
 3487TIP3    H110425   1.024   2.871   0.583  0.4238 -1.6492 -0.2155
 3487TIP3    H210426   1.131   2.781   0.640 -0.9881 -2.0736  1.8671
 3488TIP3   OH210427   2.235   6.385   4.067  0.1433  0.3368  0.5198
 3488TIP3    H110428   2.215   6.477   4.045 -0.4371  0.2900  0.8205
 3488TIP3    H210429   2.149   6.345   4.080  0.4174 -0.0975  1.0222
 3489TIP3   OH210430   2.359   0.820   4.596 -0.0694  0.3061 -0.5487
 3489TIP3    H110431   2.366   0.845   4.688  0.8774 -1.0385 -0.2247
 3489TIP3    H210432   2.296   0.748   4.595  1.3269 -0.9650 -0.6446
 3490TIP3   OH210433   5.106   3.767   2.376 -0.5172 -0.6812 -0.1612
 3490TIP3    H110434   5.186   3.818   2.392 -0.1698 -1.6506  1.4589
 3490TIP3    H210435   5.055   3.820   2.316  0.0334  1.3735  1.0839
 3491TIP3   OH210436   7.136   0.308   4.739 -0.3103 -0.3480 -0.4800
 3491TIP3    H110437   7.139   0.383   4.798 -0.3850 -0.5298 -0.2454
 3491TIP3    H210438   7.078   0.336   4.668  0.0121 -0.0215 -0.6208
 3492TIP3   OH210439   1.461   1.703   0.608 -0.0969  0.4586 -0.3774
 3492TIP3    H110440   1.507   1.734   0.686 -0.0345  0.2823 -0.3449
 3492TIP3    H210441   1.476   1.772   0.543 -0.1000  0.5777 -0.2534
 3493TIP3   OH210442   1.360   2.260   0.110 -0.1162  0.1044 -0.4401
 3493TIP3    H110443   1.428   2.211   0.157  1.1076  1.8336 -0.3363
 3493TIP3    H210444   1.395   2.348   0.102 -2.7158  1.2964  0.3554
 3494TIP3   OH210445   4.887   6.509   1.628  0.0492  0.1810  0.0400
 3494TIP3    H110446   4.817   6.444   1.639  0.7369 -0.5036  0.3985
 3494TIP3    H210447   4.881   6.535   1.536 -0.4062 -0.1765 -0.0378
 3495TIP3   OH210448   1.695   4.653   2.917  0.1367 -0.2334 -0.4066
 3495TIP3    H110449   1.768   4.678   2.974 -0.9368  3.2218 -0.3541
 3495TIP3    H210450   1.731   4.661   2.828  0.4456 -0.9157 -0.3550
 3496TIP3   OH210451   1.882   3.473   3.169  0.7316 -0.2699  1.1555
 3496TIP3    H110452   1.795   3.434   3.164  0.4456  0.2894  1.7426
 3496TIP3    H210453   1.866   3.565   3.192  1.4110  0.1414  0.0891
 3497TIP3   OH210454   2.491   4.004   3.442  0.4541  0.1622 -0.0983
 3497TIP3    H110455   2.451   3.979   3.359  1.8996 -0.2827 -0.6959
 3497TIP3    H210456   2.505   3.922   3.489 -0.1580  0.3920  0.5106
 3498TIP3   OH210457   3.419   1.819   1.845  0.6099  0.7387 -0.4477
 3498TIP3    H110458   3.507   1.854   1.858  0.7172  0.1774  0.3752
 3498TIP3    H210459   3.366   1.861   1.914  0.4699  0.2386 -0.2481
 3499TIP3   OH210460   6.637   3.721   3.577  0.2449  0.0296 -0.4525
 3499TIP3    H110461   6.634   3.796   3.518  1.2749  1.4551  1.2012
 3499TIP3    H210462   6.557   3.728   3.629  0.3222 -0.0326 -0.3243
 3500TIP3   OH210463   4.396   5.165   4.790 -0.0831  0.3547  0.5775
 3500TIP3    H110464   4.454   5.131   4.722  0.1304  1.2573  0.3011
 3500TIP3    H210465   4.353   5.087   4.826 -0.6776 -0.0868 -1.0199
 3501TIP3   OH210466   5.237   4.531   2.699  0.2628 -0.4363 -0.5581
 3501TIP3    H110467   5.157   4.481   2.684 -0.2329  0.7474 -1.9836
 3501TIP3    H210468   5.289   4.475   2.757 -0.8030 -2.0377 -1.0828
 3502TIP3   OH210469   6.988   3.041   0.279 -0.0018 -0.1500  0.1797
 3502TIP3    H110470   6.902   2.999   0.282  0.3236 -0.7901  1.2002
 3502TIP3    H210471   7.041   2.984   0.223  0.3301 -0.9427  1.2521
 3503TIP3   OH210472   5.099   5.267   3.133 -0.2732  0.3984 -0.1108
 3503TIP3    H110473   5.185   5.268   3.090 -0.4108 -1.2394 -0.4893
 3503TIP3    H210474   5.036   5.277   3.062 -0.4278  0.2813  0.0086
 3504TIP3   OH210475   5.837   0.768   1.535  0.0966 -0.8489 -0.1719
 3504TIP3    H110476   5.844   0.785   1.441  1.0796 -1.1604 -0.1677
 3504TIP3    H210477   5.925   0.739   1.561  0.1019  0.1490  1.0345
 3505TIP3   OH210478   3.450   4.700   4.509 -0.1359 -0.1363 -0.5927
 3505TIP3    H110479   3.499   4.625   4.476  1.9872  0.8654  0.1506
 3505TIP3    H210480   3.386   4.661   4.569  0.6358 -1.4019 -0.5435
 3506TIP3   OH210481   2.600   4.471   2.127  0.1123 -0.5117  0.3965
 3506TIP3    H110482   2.539   4.545   2.135 -0.4571 -0.9441  0.1153
 3506TIP3    H210483   2.629   4.454   2.216 -1.1218 -1.0842  0.7000
 3507TIP3   OH210484   6.078   2.331   4.828 -0.0259  0.1007 -0.0357
 3507TIP3    H110485   6.063   2.373   4.743  1.4308 -0.4542 -0.5853
 3507TIP3    H210486   6.000   2.276   4.841  0.1647 -0.5792 -1.4931
 3508TIP3   OH210487   1.089   4.725   3.928  0.1557 -0.6325  0.3445
 3508TIP3    H110488   1.102   4.794   3.863  3.7425 -1.2069  0.2320
 3508TIP3    H210489   1.070   4.646   3.876  1.3000 -0.7372  0.0550
 3509TIP3   OH210490   1.716   1.535   3.017  0.3573  0.7469 -0.2472
 3509TIP3    H110491   1.796   1.489   2.992 -0.5280 -0.8415 -0.3061
 3509TIP3    H210492   1.680   1.567   2.935 -0.3792 -0.8023 -0.5559
 3510TIP3   OH210493   1.716   5.189   5.076 -0.1984  0.0829 -0.5253
 3510TIP3    H110494   1.688   5.106   5.037  1.3829 -0.7096 -0.0620
 3510TIP3    H210495   1.642   5.216   5.130 -1.2785 -0.2942 -1.7539
 3511TIP3   OH210496   3.748   3.622   0.510  0.1984 -0.5138  0.0731
 3511TIP3    H110497   3.841   3.635   0.528  0.0717 -1.9787  2.2645
 3511TIP3    H210498   3.736   3.527   0.513 -1.1900 -0.4324 -1.3728
 3512TIP3   OH210499   0.992   3.621   0.488  0.0047 -0.3580  0.4810
 3512TIP3    H110500   0.950   3.540   0.518 -1.3762 -0.0700 -0.5844
 3512TIP3    H210501   0.933   3.691   0.516 -0.2406  0.0620 -1.0191
 3513TIP3   OH210502   5.822  -0.024   4.232 -0.1271 -0.3955 -0.2458
 3513TIP3    H110503   5.898   0.034   4.238 -1.0745  1.0277 -1.3310
 3513TIP3    H210504   5.766   0.016   4.166 -1.9828 -1.2351  0.7345
 3514TIP3   OH210505   5.248   5.184   2.242  0.1774 -0.4630  0.2733
 3514TIP3    H110506   5.334   5.222   2.256  0.1299  0.3477 -1.3985
 3514TIP3    H210507   5.195   5.256   2.209 -0.8459 -1.2036  0.2465
 3515TIP3   OH210508   3.891   0.361   0.517  0.0123  0.1433  0.3046
 3515TIP3    H110509   3.943   0.381   0.595  1.5940 -2.3058 -0.0175
 3515TIP3    H210510   3.819   0.307   0.549 -0.7569  1.1512  0.3444
 3516TIP3   OH210511   6.821   5.213   5.458 -0.3698  0.0688  0.2937
 3516TIP3    H110512   6.847   5.137   5.406 -1.6241 -0.4721  0.4188
 3516TIP3    H210513   6.858   5.288   5.412 -0.4845 -0.4935 -0.7405
 3517TIP3   OH210514   0.606   5.971   2.909 -0.0871  0.4242 -0.3514
 3517TIP3    H110515   0.625   5.882   2.940 -0.6998 -0.1008 -1.4052
 3517TIP3    H210516   0.680   6.023   2.938  0.5144 -0.5329 -0.1262
 3518TIP3   OH210517   6.638   2.882   0.649 -0.1594 -0.5029 -0.2332
 3518TIP3    H110518   6.631   2.967   0.693 -2.9809 -0.8817  0.2200
 3518TIP3    H210519   6.728   2.880   0.616  0.3952  2.0955  0.8387
 3519TIP3   OH210520   1.509   1.732   1.531  0.3890  0.1990  0.1717
 3519TIP3    H110521   1.501   1.827   1.527 -0.2816  0.3134  2.6379
 3519TIP3    H210522   1.435   1.704   1.585  1.3134 -1.5866  0.5814
 3520TIP3   OH210523   1.378   2.846   5.219 -0.1332  0.1402  0.2407
 3520TIP3    H110524   1.431   2.838   5.139 -0.5589  0.5862 -0.0950
 3520TIP3    H210525   1.308   2.907   5.195 -0.9789 -0.6666  0.5787
 3521TIP3   OH210526   4.811   6.230   3.920 -0.2608 -0.2120 -0.7163
 3521TIP3    H110527   4.805   6.145   3.963 -1.3921 -0.6337 -1.6435
 3521TIP3    H210528   4.792   6.294   3.989  1.9013 -0.5782  0.3075
 3522TIP3   OH210529   7.046   5.880   0.808 -0.0920  0.3990 -0.1797
 3522TIP3    H110530   7.073   5.932   0.732 -0.4205  0.0034 -0.5755
 3522TIP3    H210531   7.125   5.873   0.862 -0.3160  2.2586  0.4618
 3523TIP3   OH210532   6.130   6.513   0.061 -0.3988  0.8020 -0.3578
 3523TIP3    H110533   6.075   6.573   0.009 -0.7092 -0.9373 -2.1389
 3523TIP3    H210534   6.211   6.563   0.077 -1.3227  2.3317 -0.2039
 3524TIP3   OH210535   1.429   2.360   4.085 -0.2217  0.2352 -0.1528
 3524TIP3    H110536   1.509   2.332   4.040  0.6289  2.0203  0.1553
 3524TIP3    H210537   1.398   2.281   4.130  1.7189 -0.3734  0.2155
 3525TIP3   OH210538   6.401   5.035   3.214  0.2514  0.9128 -0.5002
 3525TIP3    H110539   6.467   4.993   3.270 -1.1163  0.2522  0.6546
 3525TIP3    H210540   6.416   5.128   3.226  1.0587  0.7809 -0.3692
 3526TIP3   OH210541   2.447   6.400   0.905  0.1439  0.1715  0.0184
 3526TIP3    H110542   2.427   6.386   0.998  0.9343 -0.4711  0.1073
 3526TIP3    H210543   2.438   6.314   0.865 -0.2165  0.4545 -0.5065
 3527TIP3   OH210544   5.467   0.624   4.729 -0.4128  0.1349 -0.1300
 3527TIP3    H110545   5.474   0.601   4.822  0.7031  1.1473  0.0468
 3527TIP3    H210546   5.556   0.619   4.696 -0.7397  0.2398 -1.0520
 3528TIP3   OH210547   7.173   0.422   5.013  0.2615  0.1507 -0.1579
 3528TIP3    H110548   7.260   0.412   4.975  0.4154  0.1617  0.1846
 3528TIP3    H210549   7.161   0.516   5.023 -0.0674  0.1856 -0.8309
 3529TIP3   OH210550   4.125   2.085   1.208  0.2632 -0.1955 -0.0639
 3529TIP3    H110551   4.111   2.116   1.297  0.2153  1.7630 -0.6973
 3529TIP3    H210552   4.037   2.068   1.174  0.3079 -1.3935  0.3949
 3530TIP3   OH210553   3.379   0.600   0.120 -0.3946 -0.9372  0.4858
 3530TIP3    H110554   3.424   0.622   0.038 -0.4110 -1.9610  0.1845
 3530TIP3    H210555   3.447   0.567   0.178 -0.1942  0.8379  1.3137
 3531TIP3   OH210556   2.559   6.477   3.917 -0.1315 -0.5457 -0.1024
 3531TIP3    H110557   2.556   6.556   3.971  1.4444  0.6078 -1.5903
 3531TIP3    H210558   2.559   6.509   3.827  2.1379 -2.0913 -0.7623
 3532TIP3   OH210559   6.294   0.088   2.236  0.2713 -0.0079 -0.2648
 3532TIP3    H110560   6.274   0.067   2.145  1.5422 -0.5525 -0.4355
 3532TIP3    H210561   6.340   0.171   2.232  0.1866  0.0469 -0.1037
 3533TIP3   OH210562   5.550   4.863   3.060 -0.5960  0.0956  0.7478
 3533TIP3    H110563   5.593   4.808   3.125 -1.6983  0.3831  1.7513
 3533TIP3    H210564   5.620   4.918   3.025  0.4817 -1.6531 -0.0370
 3534TIP3   OH210565   0.631   5.973   4.845  0.3141  0.5340  0.7529
 3534TIP3    H110566   0.537   5.985   4.860  0.5937  1.4515  1.9390
 3534TIP3    H210567   0.649   5.885   4.877 -0.5017 -0.4895 -1.4515
 3535TIP3   OH210568   1.183   1.179   3.828  0.0317 -0.2340  0.0724
 3535TIP3    H110569   1.112   1.241   3.847 -0.1322 -0.9014  1.8375
 3535TIP3    H210570   1.162   1.103   3.882  1.2472 -1.0694 -0.6185
 3536TIP3   OH210571   1.877   6.562   0.893 -0.1429  0.5311  0.1373
 3536TIP3    H110572   1.887   6.469   0.911 -0.2529  0.9649  2.7062
 3536TIP3    H210573   1.788   6.570   0.858 -0.1231 -0.3170 -0.1214
 3537TIP3   OH210574   5.974   3.821   2.907  0.0069 -0.2564 -0.2225
 3537TIP3    H110575   5.968   3.763   2.983 -0.6040  0.2443  0.1227
 3537TIP3    H210576   5.968   3.762   2.832  0.5724 -0.7505  0.1169
 3538TIP3   OH210577   0.945   4.907   2.217 -0.3105 -0.1644  0.1492
 3538TIP3    H110578   0.890   4.898   2.140  0.0032  0.3252 -0.1434
 3538TIP3    H210579   1.034   4.891   2.185 -0.2982 -1.1324  0.6522
 3539TIP3   OH210580   0.213   6.397   5.261  0.1948  0.0966  0.0203
 3539TIP3    H110581   0.291   6.451   5.271 -0.4632  1.2250 -0.7036
 3539TIP3    H210582   0.172   6.399   5.348  0.9782 -0.5331  0.4124
 3540TIP3   OH210583   2.260   2.948   2.210 -0.1745  0.8603  0.0648
 3540TIP3    H110584   2.257   2.958   2.115  0.0546  0.2646 -0.0083
 3540TIP3    H210585   2.200   2.876   2.229 -1.6648  2.1828  0.5659
 3541TIP3   OH210586   3.020   4.512   3.677  0.3519  0.3939 -0.1529
 3541TIP3    H110587   3.014   4.458   3.756 -0.4221 -0.2003 -0.6059
 3541TIP3    H210588   2.965   4.467   3.613  1.1039  0.7768 -1.0929
 3542TIP3   OH210589   3.138   3.328   0.965  0.6091 -0.0171 -0.6585
 3542TIP3    H110590   3.096   3.412   0.948 -0.6810 -0.4852  0.0766
 3542TIP3    H210591   3.219   3.350   1.011  1.2846  0.9102 -2.2210
 3543TIP3   OH210592   5.381   3.625   3.119 -0.2755 -0.0243  0.2741
 3543TIP3    H110593   5.320   3.656   3.051 -0.1658 -0.6573 -0.1245
 3543TIP3    H210594   5.449   3.579   3.071 -0.2078 -0.5068  0.8152
 3544TIP3   OH210595   6.249   4.994   5.409  0.1284 -0.4396  0.3709
 3544TIP3    H110596   6.238   5.057   5.480  2.4749  1.3034 -0.6801
 3544TIP3    H210597   6.331   4.949   5.430  0.8667  0.1224 -1.2341
 3545TIP3   OH210598   2.307   1.498   3.986  0.1144  0.1151  0.1593
 3545TIP3    H110599   2.294   1.431   4.054  2.0333  0.8517  1.3578
 3545TIP3    H210600   2.394   1.534   4.006  1.0478 -0.0571 -3.0796
 3546TIP3   OH210601   0.501   6.630   2.887  0.0890 -0.1464  0.2357
 3546TIP3    H110602   0.425   6.680   2.916  1.0677  1.3501  0.3187
 3546TIP3    H210603   0.548   6.689   2.828  1.3152 -0.9444  0.3713
 3547TIP3   OH210604   3.810   0.532   5.591 -0.0944 -0.3475 -0.4655
 3547TIP3    H110605   3.756   0.469   5.544 -0.0263 -0.7791  0.0246
 3547TIP3    H210606   3.900   0.508   5.570 -0.0788  0.0971 -0.9282
 3548TIP3   OH210607   6.881   5.822   5.549  0.1717  0.0890  0.5006
 3548TIP3    H110608   6.907   5.855   5.463 -3.1760  0.6462 -0.4144
 3548TIP3    H210609   6.802   5.870   5.571 -0.6119 -1.9774  2.6711
 3549TIP3   OH210610   6.253   3.436   1.160  0.2364  0.3248  0.7234
 3549TIP3    H110611   6.254   3.515   1.215  1.3950  0.4241  0.5801
 3549TIP3    H210612   6.237   3.468   1.072  0.0456  0.3295  0.7588
 3550TIP3   OH210613   2.019   6.199   3.210 -0.2285 -0.0247 -0.6538
 3550TIP3    H110614   2.078   6.231   3.279 -0.4819 -0.7684 -0.0749
 3550TIP3    H210615   2.072   6.137   3.160  0.7327  2.3236 -2.7152
 3551TIP3   OH210616   5.390   3.551   3.377 -0.5910  0.0249 -0.0047
 3551TIP3    H110617   5.367   3.569   3.286 -4.4507  1.2305  1.0432
 3551TIP3    H210618   5.411   3.637   3.413 -0.1519 -0.2992  0.5155
 3552TIP3   OH210619   6.120   4.550   1.944 -0.3077 -0.5225  0.2556
 3552TIP3    H110620   6.165   4.490   2.004 -1.6646 -1.3173  0.5034
 3552TIP3    H210621   6.186   4.570   1.877  0.4054 -1.7053  0.5697
 3553TIP3   OH210622   2.947   5.316   0.626  0.1368  0.1657 -0.6260
 3553TIP3    H110623   3.000   5.395   0.619 -0.0011  0.4930  1.5383
 3553TIP3    H210624   2.952   5.290   0.718 -1.0877 -1.4600 -0.9575
 3554TIP3   OH210625   3.963   6.705   4.529 -0.1221  0.6101  0.2395
 3554TIP3    H110626   3.948   6.621   4.486 -0.1715  0.9944 -0.5075
 3554TIP3    H210627   4.013   6.683   4.607  0.3304 -0.0596 -0.2287
 3555TIP3   OH210628   2.070   4.797   5.767 -0.1183 -0.1723 -0.4362
 3555TIP3    H110629   2.036   4.708   5.777  0.4886 -0.2025  1.8352
 3555TIP3    H210630   2.021   4.848   5.832  2.1314  0.3322  0.9719
 3556TIP3   OH210631   3.311   2.306   1.791  0.3417  0.0968  0.2575
 3556TIP3    H110632   3.399   2.270   1.787  0.5771  0.6775 -0.0754
 3556TIP3    H210633   3.264   2.262   1.721  0.5135  0.1519  0.1067
 3557TIP3   OH210634   3.614   0.479   4.617  0.9353 -0.2030 -0.1890
 3557TIP3    H110635   3.633   0.454   4.526  3.2376 -0.8453  0.3962
 3557TIP3    H210636   3.684   0.539   4.640  0.0822  0.3473  1.0288
 3558TIP3   OH210637   2.834   0.933   0.051 -0.2846  0.3662 -0.0348
 3558TIP3    H110638   2.740   0.914   0.057 -0.5934  0.7356 -2.7269
 3558TIP3    H210639   2.874   0.849   0.031 -0.0092  0.2347  0.9880
 3559TIP3   OH210640   4.984   5.648   0.571 -0.0111  0.3509  0.0355
 3559TIP3    H110641   4.930   5.727   0.565  0.7074  0.7913 -1.2038
 3559TIP3    H210642   5.007   5.629   0.480 -0.4233 -1.4865  0.2900
 3560TIP3   OH210643   3.252   1.138   5.688 -0.6003  0.2619  0.5025
 3560TIP3    H110644   3.255   1.232   5.706 -2.7625  0.5266 -0.2971
 3560TIP3    H210645   3.219   1.132   5.598  0.0540 -1.2740  0.3344
 3561TIP3   OH210646   0.598   0.892   0.218  0.2654  0.1832 -0.0251
 3561TIP3    H110647   0.556   0.967   0.175 -1.7615 -1.1635 -0.5820
 3561TIP3    H210648   0.548   0.816   0.187  0.8430 -1.1985  2.1686
 3562TIP3   OH210649   0.466   3.796   0.758  0.2487 -0.1569 -0.4029
 3562TIP3    H110650   0.482   3.863   0.824 -0.8679 -0.9100  0.6786
 3562TIP3    H210651   0.539   3.735   0.766  0.5232  0.1698 -0.4108
 3563TIP3   OH210652   0.069   3.391   3.263  0.3305 -0.2386  0.7602
 3563TIP3    H110653   0.016   3.470   3.275  0.9811  0.5443 -1.1110
 3563TIP3    H210654   0.141   3.401   3.326 -1.0035 -0.7101  2.4384
 3564TIP3   OH210655   5.941   3.411   3.750 -0.4695  0.0768  0.5060
 3564TIP3    H110656   6.024   3.457   3.756  0.2351 -0.9104 -0.9705
 3564TIP3    H210657   5.882   3.474   3.708  0.6014 -0.3891 -1.9042
 3565TIP3   OH210658   4.873   4.110   2.104  0.0574  0.3495  0.3026
 3565TIP3    H110659   4.948   4.153   2.145  1.3768  0.6652 -2.2436
 3565TIP3    H210660   4.867   4.025   2.147  1.5779  0.5063  0.8800
 3566TIP3   OH210661   0.510   4.778   3.650  0.0272  0.2842  0.0808
 3566TIP3    H110662   0.560   4.860   3.655 -0.6262  0.8474 -1.7721
 3566TIP3    H210663   0.568   4.717   3.607  0.0191  0.1842  0.2111
 3567TIP3   OH210664   2.221   3.080   1.614 -0.3860  0.2469 -0.0803
 3567TIP3    H110665   2.161   3.030   1.558  0.0253  0.5104 -0.7604
 3567TIP3    H210666   2.289   3.111   1.555 -0.9611  2.1544  0.2048
 3568TIP3   OH210667   1.538   2.408   3.354  0.2461  0.3742  0.0934
 3568TIP3    H110668   1.593   2.443   3.284  0.0383 -0.4170 -0.4749
 3568TIP3    H210669   1.464   2.368   3.308  0.0524 -0.0478  0.7678
 3569TIP3   OH210670   5.982   3.671   2.237  0.6004  0.7223  0.4131
 3569TIP3    H110671   5.945   3.637   2.318 -3.0703 -1.0726 -1.7824
 3569TIP3    H210672   5.947   3.760   2.230 -1.4700 -0.1029 -0.4450
 3570TIP3   OH210673   5.174   5.485   4.679  0.5581  0.2739 -0.3354
 3570TIP3    H110674   5.163   5.576   4.707  1.7669  0.4087 -0.2394
 3570TIP3    H210675   5.145   5.433   4.754 -1.0914  0.5401 -0.7496
 3571TIP3   OH210676   2.378   5.991   2.802  0.0510  0.0587 -0.3763
 3571TIP3    H110677   2.463   5.952   2.819 -0.3935 -0.8203 -0.1006
 3571TIP3    H210678   2.328   5.922   2.757 -0.7592  0.2798  0.1450
 3572TIP3   OH210679   5.236   6.689   3.745 -0.1501 -0.3061 -0.2229
 3572TIP3    H110680   5.317   6.639   3.752 -1.9092 -3.2357  0.4887
 3572TIP3    H210681   5.217   6.718   3.834 -1.6805 -2.7824  0.3328
 3573TIP3   OH210682   5.022   6.169   1.543 -0.5586 -0.1187 -0.2663
 3573TIP3    H110683   5.109   6.166   1.583  0.3064  0.1924 -2.0317
 3573TIP3    H210684   4.965   6.203   1.611  1.0704  1.5475  0.3283
 3574TIP3   OH210685   4.819   1.191   2.627 -0.1732 -0.4224 -0.1068
 3574TIP3    H110686   4.865   1.164   2.548  1.5346  1.1805  0.2645
 3574TIP3    H210687   4.771   1.113   2.655  2.2864 -2.2158 -0.5625
 3575TIP3   OH210688   5.957   0.878   5.605 -0.0360 -0.4658  0.2285
 3575TIP3    H110689   5.992   0.846   5.688  0.6670  1.3928  0.6892
 3575TIP3    H210690   6.023   0.856   5.540  0.5580  0.2421  0.5824
 3576TIP3   OH210691   4.368   4.959   2.325  0.1450  0.2817  0.1424
 3576TIP3    H110692   4.364   5.037   2.380  1.8460  0.6697 -0.2184
 3576TIP3    H210693   4.403   4.891   2.383  0.1268  0.1942  0.0506
 3577TIP3   OH210694   4.313   3.650   3.241  0.2085 -0.2237 -0.5853
 3577TIP3    H110695   4.335   3.637   3.333 -0.3327 -0.0968 -0.4349
 3577TIP3    H210696   4.218   3.642   3.238  0.3269 -1.8022 -1.3792
 3578TIP3   OH210697   2.445   6.624   5.231 -0.2796  0.0502  0.0799
 3578TIP3    H110698   2.405   6.556   5.177  1.8617 -0.2929 -1.1608
 3578TIP3    H210699   2.539   6.616   5.216  0.1694  2.1143  1.3238
 3579TIP3   OH210700   5.941   3.780   0.420  0.1295 -0.1289 -0.6687
 3579TIP3    H110701   5.872   3.835   0.385 -1.1526 -0.8239  0.6299
 3579TIP3    H210702   6.018   3.799   0.367 -0.7666  1.5054 -1.4232
 3580TIP3   OH210703   6.467   1.005   1.551  0.4230  0.1122 -0.3486
 3580TIP3    H110704   6.490   0.922   1.591 -0.1024  0.0249 -0.2200
 3580TIP3    H210705   6.378   1.023   1.581  1.3190  1.8766  1.5199
 3581TIP3   OH210706   2.618   3.444   3.493  0.3176  0.2315 -0.6163
 3581TIP3    H110707   2.707   3.414   3.507 -0.0784 -0.5109  0.4424
 3581TIP3    H210708   2.625   3.510   3.425  1.7107  0.4079 -0.3220
 3582TIP3   OH210709   5.429   5.061   3.827  0.4364  0.0614  0.1772
 3582TIP3    H110710   5.469   5.143   3.796 -1.2193  0.5241 -0.8655
 3582TIP3    H210711   5.343   5.087   3.858  0.2388 -1.1781  0.6997
 3583TIP3   OH210712   3.181   4.259   2.690 -0.0847 -0.4629  0.8200
 3583TIP3    H110713   3.161   4.259   2.596 -1.3558 -0.3798  1.0687
 3583TIP3    H210714   3.202   4.350   2.710 -0.9726 -0.2472  0.8278
 3584TIP3   OH210715   0.822   6.338   1.302  0.5467 -0.0519 -0.0454
 3584TIP3    H110716   0.803   6.317   1.211 -0.4677 -1.2177  0.4105
 3584TIP3    H210717   0.745   6.307   1.350  0.3432  1.9704  1.0516
 3585TIP3   OH210718   0.956   5.019   5.604 -0.0503  0.3844 -0.1327
 3585TIP3    H110719   0.920   4.933   5.583 -0.3560  0.4018  0.3091
 3585TIP3    H210720   0.902   5.080   5.554 -1.0727  0.4606  1.0104
 3586TIP3   OH210721   5.058   6.587   2.963 -0.3539 -0.4704  0.3612
 3586TIP3    H110722   4.978   6.546   2.931 -0.0082 -2.1819  1.5852
 3586TIP3    H210723   5.028   6.662   3.014 -0.9444  2.0067 -3.1934
 3587TIP3   OH210724   0.761   5.609   3.688  0.2178  0.5488  0.1152
 3587TIP3    H110725   0.779   5.555   3.612 -1.1983  0.1637  0.0304
 3587TIP3    H210726   0.809   5.567   3.759  0.4593  0.1395 -0.2849
 3588TIP3   OH210727   2.048   3.874   3.412 -0.4589  0.5489 -0.3089
 3588TIP3    H110728   2.087   3.958   3.437 -0.3832  0.1810  0.8619
 3588TIP3    H210729   2.116   3.810   3.429 -0.7904  0.1612 -0.4404
 3589TIP3   OH210730   3.605   2.278   5.580 -0.1196  0.2754 -0.1606
 3589TIP3    H110731   3.664   2.260   5.507 -1.0191 -1.3001 -0.5568
 3589TIP3    H210732   3.585   2.191   5.615 -2.5657  0.7148 -0.3380
 3590TIP3   OH210733   7.214   3.036   3.895 -0.4340 -0.0580 -0.2065
 3590TIP3    H110734   7.244   3.094   3.966  0.2858  1.5902 -1.7873
 3590TIP3    H210735   7.145   3.086   3.851 -0.1884 -0.6230 -1.2554
 3591TIP3   OH210736   5.108   5.657   0.322  0.3688 -0.5196  0.5971
 3591TIP3    H110737   5.195   5.640   0.288  0.1409 -0.0337 -0.2486
 3591TIP3    H210738   5.049   5.633   0.251 -0.2760 -1.9624  1.5617
 3592TIP3   OH210739   3.720   0.229   2.944  0.5074  0.0849  0.1253
 3592TIP3    H110740   3.795   0.172   2.934 -0.9424 -1.6255 -2.0365
 3592TIP3    H210741   3.740   0.305   2.889  1.3900  0.4980  1.0033
 3593TIP3   OH210742   5.087   6.330   4.113  0.2350  0.0085 -0.3894
 3593TIP3    H110743   5.069   6.236   4.125  2.5242 -0.8449 -2.6450
 3593TIP3    H210744   5.001   6.371   4.118 -0.8092 -2.1255  1.0905
 3594TIP3   OH210745   0.201   4.449   5.435 -0.2427 -0.2325 -0.1958
 3594TIP3    H110746   0.248   4.380   5.389 -1.2447 -0.4586 -0.9331
 3594TIP3    H210747   0.114   4.411   5.452 -0.0356  0.0119  1.5075
 3595TIP3   OH210748   6.340   6.221   4.257 -0.0402  0.0327  0.2366
 3595TIP3    H110749   6.352   6.298   4.311  1.0381  0.2592 -0.2950
 3595TIP3    H210750   6.377   6.149   4.309 -1.1370 -0.1783  0.7764
 3596TIP3   OH210751   6.076   6.724   1.429 -0.5524  0.3547 -0.0784
 3596TIP3    H110752   6.102   6.735   1.338 -0.6673  0.9593 -0.0432
 3596TIP3    H210753   6.133   6.655   1.462 -2.5148 -2.0769 -1.4170
 3597TIP3   OH210754   2.999   3.906   3.620 -0.1092 -0.0342 -0.1627
 3597TIP3    H110755   2.921   3.922   3.673  0.2138 -0.1929  0.3713
 3597TIP3    H210756   3.042   3.991   3.615  0.9368 -0.4181  1.5894
 3598TIP3   OH210757   6.269   2.595   0.149 -0.2055  0.7051  0.9557
 3598TIP3    H110758   6.223   2.655   0.090  0.0493  1.1002  1.1562
 3598TIP3    H210759   6.276   2.642   0.231  1.8220  1.2638  0.5345
 3599TIP3   OH210760   4.378   1.849   3.465  0.7537 -0.0607  0.0698
 3599TIP3    H110761   4.402   1.884   3.551  3.8247 -0.4199 -0.5348
 3599TIP3    H210762   4.283   1.855   3.463  0.6525  1.0949  2.9983
 3600TIP3   OH210763   4.355   1.837   5.748  0.0571 -0.0049  0.4126
 3600TIP3    H110764   4.419   1.908   5.761  1.0308 -0.8737  0.5240
 3600TIP3    H210765   4.409   1.759   5.735 -0.9903 -0.5569 -0.7580
 3601TIP3   OH210766   6.967   6.325   0.935 -0.0530  0.4480  0.0958
 3601TIP3    H110767   6.913   6.246   0.937  0.2144  0.2274 -0.7730
 3601TIP3    H210768   6.910   6.394   0.968 -1.8329  0.7578 -3.1915
 3602TIP3   OH210769   5.668   3.241   2.390 -0.1014 -1.0126 -0.2146
 3602TIP3    H110770   5.647   3.170   2.450  0.4409 -1.2249 -0.2650
 3602TIP3    H210771   5.715   3.198   2.318  0.4473 -0.5699 -0.1260
 3603TIP3   OH210772   3.225   2.600   3.302 -0.7068 -0.1233 -0.1364
 3603TIP3    H110773   3.137   2.568   3.281  0.0990 -1.8876 -1.0934
 3603TIP3    H210774   3.281   2.560   3.235  1.1523 -1.0645  1.8524
 3604TIP3   OH210775   6.507   1.471   0.871  0.2695 -0.2376  0.4203
 3604TIP3    H110776   6.487   1.384   0.904 -0.4399 -0.3728 -0.3268
 3604TIP3    H210777   6.554   1.514   0.942  0.9949 -1.3651  0.6499
 3605TIP3   OH210778   3.975   6.754   1.592 -0.2269 -0.0427  0.5072
 3605TIP3    H110779   3.951   6.664   1.572  1.3533 -0.2470 -0.6560
 3605TIP3    H210780   3.892   6.798   1.611 -1.4195 -0.9332 -2.2471
 3606TIP3   OH210781   6.215   1.271   2.408  0.5853  0.1198  0.3976
 3606TIP3    H110782   6.193   1.343   2.349  0.3264 -0.0839  0.2425
 3606TIP3    H210783   6.131   1.239   2.440  0.7502  0.5193  1.2376
 3607TIP3   OH210784   4.662   3.086   3.286  0.4408  0.1677 -0.2439
 3607TIP3    H110785   4.617   3.169   3.300  1.0611  0.5500 -0.5043
 3607TIP3    H210786   4.738   3.108   3.233  0.1357 -0.6947 -1.0733
 3608TIP3   OH210787   1.482   0.354   2.840  0.6130 -0.3719  0.1890
 3608TIP3    H110788   1.548   0.316   2.782  0.8075  1.2048 -0.6897
 3608TIP3    H210789   1.530   0.380   2.918  1.4009  2.0890 -1.0242
 3609TIP3   OH210790   0.666   4.597   1.710 -0.1421 -0.1366 -0.4827
 3609TIP3    H110791   0.645   4.554   1.793 -0.6157  0.2871 -0.3731
 3609TIP3    H210792   0.762   4.600   1.707 -0.1225 -0.3447 -0.0489
 3610TIP3   OH210793   5.332   2.898   4.450 -0.2289 -0.1612  0.0671
 3610TIP3    H110794   5.327   2.940   4.364 -1.4450  0.0425  0.2059
 3610TIP3    H210795   5.314   2.805   4.433  0.8912 -0.3677 -0.0502
 3611TIP3   OH210796   5.291   2.147   4.920  0.0102  0.7286  0.0930
 3611TIP3    H110797   5.300   2.201   4.841 -0.4945 -0.0187 -0.4930
 3611TIP3    H210798   5.209   2.100   4.907 -0.7852  1.6042  1.6999
 3612TIP3   OH210799   4.622   2.985   4.165  0.3995 -0.0518 -0.0798
 3612TIP3    H110800   4.577   3.011   4.084 -0.4307 -0.1815  0.3373
 3612TIP3    H210801   4.649   3.068   4.205  0.1351  0.0460 -0.1050
 3613TIP3   OH210802   2.205   5.543   0.426  0.1996 -0.3652 -0.5463
 3613TIP3    H110803   2.180   5.635   0.428 -0.2446 -0.4869 -0.3851
 3613TIP3    H210804   2.228   5.526   0.335 -0.5798 -0.3207 -0.7558
 3614TIP3   OH210805   0.157   3.252   4.010  0.3846  0.5902  0.6139
 3614TIP3    H110806   0.200   3.337   4.020  1.0359  0.3975 -0.4089
 3614TIP3    H210807   0.209   3.193   4.064 -0.0761  0.8354  1.3370
 3615TIP3   OH210808   2.501   4.233   4.177  0.0344  0.0375 -0.5391
 3615TIP3    H110809   2.512   4.146   4.138  1.4822 -0.3614  0.6727
 3615TIP3    H210810   2.553   4.291   4.121 -0.1748 -0.0427 -0.8152
 3616TIP3   OH210811   1.853   1.230   1.650  0.1680  0.0096 -0.2019
 3616TIP3    H110812   1.797   1.287   1.704  0.0021 -0.6033  0.2779
 3616TIP3    H210813   1.813   1.232   1.563 -0.4264 -0.1854  0.0673
 3617TIP3   OH210814   1.566   0.858   1.069 -0.0559 -0.3882  0.5251
 3617TIP3    H110815   1.526   0.944   1.081  0.5743 -0.1214  0.7206
 3617TIP3    H210816   1.589   0.855   0.976  2.9902  1.0213  1.1359
 3618TIP3   OH210817   4.441   3.461   2.308 -0.1364 -0.4688 -0.4877
 3618TIP3    H110818   4.376   3.422   2.250  0.1712 -0.2918 -0.9543
 3618TIP3    H210819   4.390   3.514   2.369 -0.4617 -0.6626 -0.5867
 3619TIP3   OH210820   5.876   1.184   2.124  0.3311  0.6594 -0.6820
 3619TIP3    H110821   5.880   1.237   2.044 -0.2444 -0.3491 -1.4035
 3619TIP3    H210822   5.788   1.198   2.158  1.2434  2.7996  1.0351
 3620TIP3   OH210823   0.478   4.566   0.086  0.4976 -0.2636  0.6175
 3620TIP3    H110824   0.507   4.652   0.119  1.0187 -0.7325  1.4156
 3620TIP3    H210825   0.487   4.508   0.161  0.5285 -1.1104 -0.0347
 3621TIP3   OH210826   2.072   1.836   3.365 -0.0806  0.2044 -0.3781
 3621TIP3    H110827   2.065   1.741   3.377  1.5015 -0.1826 -2.0010
 3621TIP3    H210828   2.095   1.870   3.451 -2.4792 -0.6100  0.6636
 3622TIP3   OH210829   2.107   6.732   0.042  0.4727 -0.1967  0.0146
 3622TIP3    H110830   2.032   6.788   0.022 -0.2844 -0.8140  0.9931
 3622TIP3    H210831   2.101   6.661  -0.022 -1.6355 -1.8861  1.9051
 3623TIP3   OH210832   5.453   6.783   3.017  0.6164  0.4636  0.0427
 3623TIP3    H110833   5.546   6.777   3.042  0.7492 -1.2248 -0.7010
 3623TIP3    H210834   5.453   6.767   2.922 -0.5094 -0.4162  0.1759
 3624TIP3   OH210835   0.119   0.052   3.332 -0.3503  0.0974  0.3495
 3624TIP3    H110836   0.138   0.139   3.297  0.2404 -0.2269 -0.1635
 3624TIP3    H210837   0.136   0.059   3.426  0.9601  0.2002  0.1251
 3625TIP3   OH210838   2.476   4.296   2.762  0.0806 -0.6736  0.2639
 3625TIP3    H110839   2.477   4.289   2.667 -0.9954  0.3109  0.1526
 3625TIP3    H210840   2.436   4.215   2.792 -1.4570 -0.1386 -0.2579
 3626TIP3   OH210841   2.342   1.164   0.372 -0.0263 -1.0576 -0.6968
 3626TIP3    H110842   2.404   1.113   0.425 -1.5654 -2.1460  0.1299
 3626TIP3    H210843   2.290   1.212   0.436 -0.7689 -1.0369 -1.3068
 3627TIP3   OH210844   5.763   1.947   1.443 -0.0601 -0.0927  0.4155
 3627TIP3    H110845   5.692   1.903   1.396  0.5459 -0.2837 -0.3559
 3627TIP3    H210846   5.842   1.925   1.393  0.4841  0.4660  1.0047
 3628TIP3   OH210847   4.200   4.278   1.327  0.2033 -0.5838  0.3120
 3628TIP3    H110848   4.121   4.289   1.380  1.0015  0.1858  1.3874
 3628TIP3    H210849   4.177   4.209   1.264 -2.0023  0.9695 -0.7459
 3629TIP3   OH210850   0.016   0.051   4.879  0.2837 -0.1612  0.4036
 3629TIP3    H110851  -0.025   0.128   4.839  0.1902 -0.4241 -0.0099
 3629TIP3    H210852   0.104   0.080   4.902  1.0428 -0.5386 -1.7708
 3630TIP3   OH210853   4.066   5.310   2.514 -0.1505 -0.2070  0.9038
 3630TIP3    H110854   4.139   5.372   2.522 -0.1422 -0.2628  1.2415
 3630TIP3    H210855   3.990   5.357   2.548 -0.5318  0.2953 -0.5660
 3631TIP3   OH210856   7.100   3.097   0.549  0.5061  0.4174 -0.3266
 3631TIP3    H110857   7.068   3.139   0.469  0.5411 -1.4051 -1.3407
 3631TIP3    H210858   7.055   3.144   0.620  1.0047  2.5341 -1.3395
 3632TIP3   OH210859   1.019   2.742   3.667 -0.1123  0.2835  0.1257
 3632TIP3    H110860   1.036   2.831   3.636  0.6176  0.6687  1.5414
 3632TIP3    H210861   0.965   2.753   3.745  0.0983 -0.4901  0.3941
 3633TIP3   OH210862   6.840   4.228   1.103  0.4648 -0.1609 -0.0641
 3633TIP3    H110863   6.819   4.177   1.181  1.7023 -0.0657  0.3586
 3633TIP3    H210864   6.833   4.166   1.030 -0.3512 -0.3364  0.1534
 3634TIP3   OH210865   1.138   5.520   0.614 -0.1172 -0.3491 -0.1274
 3634TIP3    H110866   1.219   5.478   0.585 -0.5511 -0.8882 -0.6041
 3634TIP3    H210867   1.122   5.484   0.701  0.6532  0.4919  0.3786
 3635TIP3   OH210868   1.434   6.523   1.750  0.3280  0.6997  0.3662
 3635TIP3    H110869   1.421   6.494   1.659  2.4508 -0.4996  0.3858
 3635TIP3    H210870   1.419   6.444   1.802  0.3825  1.0728  0.9558
 3636TIP3   OH210871   3.458   5.477   3.561 -1.0347 -0.3015  0.2734
 3636TIP3    H110872   3.497   5.559   3.592 -0.1337  0.1696 -1.9077
 3636TIP3    H210873   3.435   5.430   3.641 -0.1462  1.3931  1.6060
 3637TIP3   OH210874   2.531   4.572   0.266 -0.0767  0.1490  0.3986
 3637TIP3    H110875   2.577   4.555   0.184  0.6563  1.8030  0.4210
 3637TIP3    H210876   2.590   4.631   0.314 -1.0931  0.2645  1.5362
 3638TIP3   OH210877   3.235   1.128   3.847  0.2308  0.1687  0.1052
 3638TIP3    H110878   3.274   1.213   3.867  0.8413 -0.1903  0.4878
 3638TIP3    H210879   3.231   1.083   3.932  0.7051 -0.4986 -0.2176
 3639TIP3   OH210880   6.067   3.524   0.535 -0.1366 -0.1713 -0.4145
 3639TIP3    H110881   6.026   3.536   0.449 -1.2039  0.1635  0.1296
 3639TIP3    H210882   6.085   3.430   0.540 -1.5942 -0.4677 -0.3416
 3640TIP3   OH210883   0.127   5.579   3.921  0.3483  0.6913 -0.4817
 3640TIP3    H110884   0.067   5.653   3.930 -1.3322 -0.5407 -1.0946
 3640TIP3    H210885   0.125   5.536   4.006  2.5991  2.1791  0.4304
 3641TIP3   OH210886   2.880   0.258   2.675 -0.1840  0.1239 -0.1019
 3641TIP3    H110887   2.865   0.351   2.688  1.0072  0.4782 -1.0645
 3641TIP3    H210888   2.908   0.250   2.583 -2.8543 -1.5270 -0.9056
 3642TIP3   OH210889   2.472   1.023   2.394  0.0754 -0.2579 -0.0097
 3642TIP3    H110890   2.425   1.075   2.329 -0.0322  0.4423  0.6034
 3642TIP3    H210891   2.441   0.934   2.382 -0.0896 -0.0992 -0.7781
 3643TIP3   OH210892   4.263   0.233   0.117 -0.6412 -0.4588 -0.0028
 3643TIP3    H110893   4.178   0.212   0.079 -0.7882  3.0083 -1.9636
 3643TIP3    H210894   4.327   0.204   0.052 -0.4722 -0.8432  0.3338
 3644TIP3   OH210895   5.755   5.023   0.646 -0.2231 -0.0284  0.3809
 3644TIP3    H110896   5.730   4.932   0.664 -1.6053 -0.2764 -2.2852
 3644TIP3    H210897   5.693   5.075   0.697 -0.5269 -0.6016  0.6074
 3645TIP3   OH210898   4.720   5.794   4.308 -0.5611 -0.2535 -0.4386
 3645TIP3    H110899   4.768   5.877   4.303 -0.7778 -0.1999 -2.1191
 3645TIP3    H210900   4.747   5.756   4.391  1.9956  0.0331 -1.0494
 3646TIP3   OH210901   1.703   0.222   2.730  0.1458 -0.3598 -0.0606
 3646TIP3    H110902   1.751   0.304   2.725  0.5305 -0.5869 -0.0805
 3646TIP3    H210903   1.700   0.190   2.639 -0.3555 -0.1655 -0.1152
 3647TIP3   OH210904   2.833   0.671   3.828  0.4739  0.1862  0.0763
 3647TIP3    H110905   2.911   0.674   3.884 -0.4100 -0.4114  1.4006
 3647TIP3    H210906   2.813   0.763   3.810  0.3159  0.4373  1.4373
 3648TIP3   OH210907   2.327   3.700   3.935 -0.6659 -0.5622 -0.2963
 3648TIP3    H110908   2.276   3.765   3.886  0.1390  1.0416  0.9061
 3648TIP3    H210909   2.359   3.640   3.868 -1.5764  0.1711 -1.4387
 3649TIP3   OH210910   0.715   4.766   0.483 -0.2304  0.8402  0.3008
 3649TIP3    H110911   0.757   4.682   0.503 -1.3021  0.5115  1.2339
 3649TIP3    H210912   0.783   4.831   0.502 -0.4427  0.3896  2.8977
 3650TIP3   OH210913   3.094   3.155   0.114 -0.0270  0.1631 -0.2921
 3650TIP3    H110914   3.149   3.136   0.038 -0.7182 -0.0107 -0.7616
 3650TIP3    H210915   3.037   3.226   0.084  1.3272  1.8234  0.8611
 3651TIP3   OH210916   2.127   4.831   3.185  0.4942  0.4118  0.5323
 3651TIP3    H110917   2.202   4.831   3.125  1.1188  0.4812  1.3080
 3651TIP3    H210918   2.066   4.767   3.146  0.4467  1.1696 -0.7038
 3652TIP3   OH210919   1.729   2.440   0.948  0.2595  0.1534 -0.2800
 3652TIP3    H110920   1.793   2.507   0.970  0.7622 -0.4014 -0.0182
 3652TIP3    H210921   1.782   2.369   0.911 -0.1930 -0.3430  0.0219
 3653TIP3   OH210922   6.668   0.071   0.622  0.2152 -0.6876  0.3309
 3653TIP3    H110923   6.721   0.036   0.695 -0.9635 -0.0578  1.5314
 3653TIP3    H210924   6.688   0.165   0.621  1.8779 -0.9940 -1.6156
 3654TIP3   OH210925   3.072   3.360   4.101 -0.2134  0.2561 -0.4911
 3654TIP3    H110926   3.022   3.278   4.103  1.2707 -0.7287 -1.2564
 3654TIP3    H210927   3.124   3.354   4.021  1.2265  1.1421  0.3312
 3655TIP3   OH210928   1.628   0.899   2.078  0.1438  0.0636 -0.2272
 3655TIP3    H110929   1.543   0.904   2.036  0.8703  0.1714 -1.7262
 3655TIP3    H210930   1.617   0.834   2.147 -1.2222  0.2997 -0.1974
 3656TIP3   OH210931   4.021   0.200   3.368 -0.2720 -0.3428 -0.1202
 3656TIP3    H110932   4.002   0.281   3.322  0.3047 -0.0410  0.1666
 3656TIP3    H210933   4.013   0.222   3.461 -1.9402 -1.0737 -0.0556
 3657TIP3   OH210934   5.988   0.128   2.212 -0.1634 -0.1532 -0.0770
 3657TIP3    H110935   5.971   0.174   2.129  0.7429  1.3741  0.5496
 3657TIP3    H210936   6.083   0.115   2.213 -0.1186  0.1843  0.8855
 3658TIP3   OH210937   1.355   4.157   3.962  0.0832 -0.4934 -0.1734
 3658TIP3    H110938   1.422   4.089   3.956 -0.0631 -1.0151  2.6351
 3658TIP3    H210939   1.277   4.111   3.995 -0.6738  0.6610 -0.3009
 3659TIP3   OH210940   4.011   2.875   4.451 -0.3764 -0.6569  0.7127
 3659TIP3    H110941   4.015   2.790   4.407 -1.5895 -0.5218  0.3189
 3659TIP3    H210942   4.043   2.938   4.385  1.8053 -0.9099  1.4276
 3660TIP3   OH210943   0.475   4.359   1.698  0.1272 -0.4640 -0.1006
 3660TIP3    H110944   0.549   4.299   1.707 -0.4214 -1.5471 -2.2529
 3660TIP3    H210945   0.506   4.426   1.636  0.8311  1.7542  2.4631
 3661TIP3   OH210946   2.709   5.244   3.039  0.1941 -0.6272  0.2382
 3661TIP3    H110947   2.640   5.183   3.012 -1.0583  1.1737 -0.8901
 3661TIP3    H210948   2.775   5.237   2.969 -0.8091  0.5755 -0.8792
 3662TIP3   OH210949   1.190   0.715   1.150 -0.0779  0.0672  0.4567
 3662TIP3    H110950   1.175   0.620   1.155 -0.5542  0.1698  1.2487
 3662TIP3    H210951   1.192   0.734   1.057  0.3456 -0.7754  0.2843
 3663TIP3   OH210952   0.456   3.848   0.494 -0.5891 -0.3186  0.8949
 3663TIP3    H110953   0.430   3.841   0.586  0.9713  0.7094  1.4653
 3663TIP3    H210954   0.535   3.795   0.488 -0.0102  0.5700  0.4606
 3664TIP3   OH210955   2.710   3.220   5.258  0.0367 -0.1803  0.5046
 3664TIP3    H110956   2.675   3.139   5.220  1.2083 -1.7197  2.4687
 3664TIP3    H210957   2.733   3.196   5.348  1.0386  2.1861  0.9564
 3665TIP3   OH210958   6.222   0.431   0.274 -0.3307 -0.1144 -0.4693
 3665TIP3    H110959   6.137   0.422   0.316 -0.9179 -0.7384 -1.7642
 3665TIP3    H210960   6.285   0.421   0.346 -1.3094  3.3094  1.0959
 3666TIP3   OH210961   6.389   4.085   3.615 -0.5525  0.4754  0.1738
 3666TIP3    H110962   6.411   4.136   3.693  0.2504 -0.6993  0.7503
 3666TIP3    H210963   6.298   4.107   3.596 -0.6166  1.1258  1.1680
 3667TIP3   OH210964   0.778   1.353   1.500  0.6954  0.3029 -0.1047
 3667TIP3    H110965   0.693   1.344   1.458 -0.5709  1.8407  1.9132
 3667TIP3    H210966   0.766   1.315   1.588  2.0417  0.6627  0.2607
 3668TIP3   OH210967   1.824   3.296   1.236 -0.3233  0.2138 -0.2737
 3668TIP3    H110968   1.864   3.380   1.256  0.0704 -0.0951  0.2886
 3668TIP3    H210969   1.855   3.238   1.306 -0.4725 -0.4306 -0.7359
 3669TIP3   OH210970   6.409   5.216   2.429  0.2152  0.6988 -0.3011
 3669TIP3    H110971   6.402   5.255   2.515  0.6783  0.8896 -0.3482
 3669TIP3    H210972   6.400   5.122   2.444 -0.2458  0.7704 -0.1132
 3670TIP3   OH210973   1.672   5.870   4.024  0.6163 -0.1431 -0.0004
 3670TIP3    H110974   1.688   5.920   3.944  0.7433 -0.1303  0.0341
 3670TIP3    H210975   1.613   5.800   3.996 -0.5287  0.7143  0.1771
 3671TIP3   OH210976   2.090   1.649   4.202 -0.6547  0.3384 -0.2816
 3671TIP3    H110977   2.180   1.645   4.233 -0.5508 -0.5561 -0.6660
 3671TIP3    H210978   2.091   1.602   4.119 -1.4800  0.2863 -0.2705
 3672TIP3   OH210979   1.697   4.222   1.992  1.0011  0.0372 -0.3721
 3672TIP3    H110980   1.752   4.241   2.069  0.5931  1.9232 -0.4884
 3672TIP3    H210981   1.760   4.206   1.921  1.3751 -0.7473  0.1193
 3673TIP3   OH210982   0.090   0.448   0.964 -0.1970  0.1480 -0.1174
 3673TIP3    H110983   0.114   0.522   0.907  1.8630 -0.1665  0.2777
 3673TIP3    H210984   0.148   0.377   0.937  1.3134  0.1662  2.7569
 3674TIP3   OH210985   7.051   6.427   3.095 -0.4776  0.5157 -0.6200
 3674TIP3    H110986   6.994   6.450   3.168  1.3343 -0.7912  1.3143
 3674TIP3    H210987   7.126   6.487   3.104 -0.1989  0.2927 -1.3783
 3675TIP3   OH210988   6.615   5.057   5.611  0.1394 -0.1944 -0.2497
 3675TIP3    H110989   6.659   5.104   5.541  0.3056 -2.0778 -1.4944
 3675TIP3    H210990   6.589   4.974   5.571 -0.1962 -1.1333  1.7914
 3676TIP3   OH210991   1.013   5.740   1.403 -0.1255 -0.6408 -0.8646
 3676TIP3    H110992   1.080   5.704   1.462 -1.2495  2.2558  2.4920
 3676TIP3    H210993   0.930   5.723   1.448 -1.0609  1.5926 -1.6416
 3677TIP3   OH210994   4.608   4.408   0.242  0.1770 -0.1833 -0.5157
 3677TIP3    H110995   4.690   4.456   0.237 -0.0992  0.3226 -0.2493
 3677TIP3    H210996   4.545   4.464   0.197 -0.0302 -0.5528 -0.6881
 3678TIP3   OH210997   2.496   6.759   2.777 -0.4651 -0.6148 -0.0642
 3678TIP3    H110998   2.544   6.677   2.781  0.0207 -0.2973  1.0394
 3678TIP3    H210999   2.541   6.810   2.710  0.2087 -0.6436  0.3660
 3679TIP3   OH211000   3.389   3.288   3.270 -0.0083  0.0459 -0.4240
 3679TIP3    H111001   3.324   3.265   3.336  0.4966 -1.1891 -0.3395
 3679TIP3    H211002   3.341   3.341   3.206 -0.9911 -0.4809 -0.1369
 3680TIP3   OH211003   6.348   2.956   2.501 -0.2501  0.3415  0.1163
 3680TIP3    H111004   6.259   2.968   2.533  0.0294  0.5303  0.8486
 3680TIP3    H211005   6.388   2.895   2.563  0.7656  1.8849  1.0801
 3681TIP3   OH211006   0.534   3.126   5.497  0.3840 -0.3819 -0.1936
 3681TIP3    H111007   0.538   3.086   5.410 -0.7611 -0.0224 -0.4338
 3681TIP3    H211008   0.441   3.121   5.522  0.4734  0.6631  0.4441
 3682TIP3   OH211009   1.377   0.029   0.836  0.2793 -1.0596  0.1273
 3682TIP3    H111010   1.393   0.036   0.742  0.2142 -0.9711  0.1220
 3682TIP3    H211011   1.420  -0.052   0.862  0.6674 -0.8666  0.0971
 3683TIP3   OH211012   2.754   6.431   3.371 -0.4016  0.0749 -0.2234
 3683TIP3    H111013   2.670   6.472   3.390 -0.1663  1.4301 -1.8047
 3683TIP3    H211014   2.737   6.373   3.297  0.0021  0.2819 -0.4888
 3684TIP3   OH211015   6.234   0.463   1.710 -0.1761  0.0731  0.0592
 3684TIP3    H111016   6.156   0.410   1.692 -0.0960  0.2922 -1.0433
 3684TIP3    H211017   6.238   0.525   1.637  0.2910  0.9518  0.8036
 3685TIP3   OH211018   4.037   4.213   2.502  0.4538 -0.5888  0.5071
 3685TIP3    H111019   3.994   4.227   2.586 -1.0278  0.3397 -0.3721
 3685TIP3    H211020   4.073   4.299   2.478 -1.5131 -0.1151 -1.0437
 3686TIP3   OH211021  -0.007   3.783   1.427 -0.3066 -0.4315 -0.6428
 3686TIP3    H111022   0.005   3.871   1.392  0.5421 -0.2933 -0.0410
 3686TIP3    H211023   0.056   3.729   1.380  0.3198 -0.3878  0.1207
 3687TIP3   OH211024   4.741   1.181   5.687 -0.6093 -0.3637  0.0723
 3687TIP3    H111025   4.821   1.130   5.678 -0.8330 -0.7323  0.1825
 3687TIP3    H211026   4.687   1.132   5.748 -1.2397 -0.5117 -0.5878
 3688TIP3   OH211027   3.115   4.408   3.077 -0.3472 -0.2467 -0.2591
 3688TIP3    H111028   3.023   4.435   3.073  0.5528  3.2514  0.2394
 3688TIP3    H211029   3.151   4.453   3.154  2.0499 -0.6470 -1.0569
 3689TIP3   OH211030   4.930   5.346   0.757  0.3470 -0.4073 -0.1820
 3689TIP3    H111031   4.940   5.260   0.798  3.1081 -0.8035 -1.5034
 3689TIP3    H211032   4.985   5.404   0.810  0.9530 -0.1254 -1.1050
 3690TIP3   OH211033   6.456   4.299   5.104 -0.1288  0.5884  0.1856
 3690TIP3    H111034   6.413   4.215   5.087 -0.8701  0.9101  0.4252
 3690TIP3    H211035   6.454   4.345   5.020  2.3881 -0.5211 -0.5982
 3691TIP3   OH211036   2.948   2.833   0.056 -0.3627  0.1732 -0.0063
 3691TIP3    H111037   2.954   2.861   0.148 -2.5726  0.6395  0.0551
 3691TIP3    H211038   2.897   2.902   0.014 -1.6316 -1.3139 -0.9869
 3692TIP3   OH211039   3.048   0.697   4.005  0.5193  0.5854  0.2284
 3692TIP3    H111040   3.122   0.644   4.035  0.0881 -0.2412 -0.1376
 3692TIP3    H211041   3.033   0.759   4.077  2.0622  1.3064 -0.0329
 3693TIP3   OH211042   4.179   0.221   4.007 -0.5796 -0.4062  0.1005
 3693TIP3    H111043   4.087   0.206   3.984 -0.6114 -1.2678  0.7368
 3693TIP3    H211044   4.202   0.303   3.964 -1.7902  0.0620  0.3225
 3694TIP3   OH211045   2.268   2.372   3.391 -0.3927 -0.4839  0.7438
 3694TIP3    H111046   2.271   2.395   3.298  1.2195  0.6509  1.0437
 3694TIP3    H211047   2.359   2.376   3.420 -0.7419 -1.7816  2.1681
 3695TIP3   OH211048   2.643   4.820   3.119  0.4622  0.1393 -0.5294
 3695TIP3    H111049   2.726   4.863   3.140  0.0635  1.3820 -1.3896
 3695TIP3    H211050   2.598   4.811   3.203  1.6501 -0.9742  0.0091
 3696TIP3   OH211051   0.937   4.494   2.066 -0.3638  0.5517  0.5512
 3696TIP3    H111052   0.857   4.488   2.014 -0.3395  1.3904  0.4048
 3696TIP3    H211053   0.989   4.561   2.022  0.7909 -0.5710  0.1546
 3697TIP3   OH211054   3.826   5.071   1.395 -0.1869 -0.5765  0.5674
 3697TIP3    H111055   3.837   5.125   1.473 -0.8909 -1.4610  1.3014
 3697TIP3    H211056   3.754   5.111   1.347 -0.1101 -0.3475  0.6424
 3698TIP3   OH211057   2.670   3.565   2.465  0.2694 -0.0795 -0.0196
 3698TIP3    H111058   2.714   3.530   2.543  1.2269  0.1958 -0.4330
 3698TIP3    H211059   2.595   3.614   2.500  0.1342 -0.7610  0.6723
 3699TIP3   OH211060   1.084   6.730   2.337  0.7353  0.1907  0.1978
 3699TIP3    H111061   1.011   6.671   2.356 -2.5202  4.1277  1.3635
 3699TIP3    H211062   1.132   6.735   2.420 -1.3031  1.9530  1.3596
 3700TIP3   OH211063   5.501   6.600   5.423 -0.1800 -0.3206  0.6321
 3700TIP3    H111064   5.486   6.674   5.483  1.3290  0.4410  0.1102
 3700TIP3    H211065   5.549   6.536   5.475  2.2513  0.8639 -0.0340
 3701TIP3   OH211066   1.556   3.793   3.171 -0.4340  0.0640 -0.3919
 3701TIP3    H111067   1.637   3.804   3.121 -0.8452  0.3525 -0.9977
 3701TIP3    H211068   1.586   3.759   3.256  0.2067 -1.1910 -1.0932
 3702TIP3   OH211069   1.901   0.831   2.307  0.7425  0.2188  0.0202
 3702TIP3    H111070   1.865   0.901   2.252  0.4205  1.3596  1.6205
 3702TIP3    H211071   1.993   0.825   2.282  1.3263  2.7375  1.3090
 3703TIP3   OH211072   5.579   4.531   4.804  0.0220 -0.2171  0.2938
 3703TIP3    H111073   5.615   4.443   4.808  1.2004  0.2816  0.9778
 3703TIP3    H211074   5.632   4.582   4.864 -0.9911  0.8519  0.3283
 3704TIP3   OH211075   4.600   4.465   3.144 -0.2000  0.4980  0.5274
 3704TIP3    H111076   4.629   4.529   3.079  1.0663  0.5570  1.1281
 3704TIP3    H211077   4.568   4.391   3.092  1.0693  0.4172 -0.1660
 3705TIP3   OH211078   7.188   6.403   4.230  0.3931 -0.0983 -0.2577
 3705TIP3    H111079   7.222   6.365   4.310 -0.3965  0.2074  0.2358
 3705TIP3    H211080   7.184   6.330   4.168  1.1967 -0.2922 -0.0971
 3706TIP3   OH211081   4.461   1.995   0.659 -0.1847 -0.4025  0.1239
 3706TIP3    H111082   4.469   1.964   0.569  1.4761 -0.0390  0.1108
 3706TIP3    H211083   4.530   2.061   0.668  0.1818 -0.9618  1.8678
 3707TIP3   OH211084   3.841   1.168   1.581  0.2091 -0.1591 -0.7565
 3707TIP3    H111085   3.790   1.183   1.661 -0.5221 -1.6805 -0.8993
 3707TIP3    H211086   3.793   1.215   1.514  0.2855  0.3301 -0.4723
 3708TIP3   OH211087   2.751   1.766   4.194  0.0717 -0.0380 -0.1002
 3708TIP3    H111088   2.815   1.759   4.265 -0.5719  0.8064  0.5688
 3708TIP3    H211089   2.795   1.818   4.127 -0.3023  1.5504  0.8395
 3709TIP3   OH211090   6.041   6.734   4.906  0.1807  0.5895  0.0400
 3709TIP3    H111091   5.951   6.714   4.932  0.2974  0.4497  0.3313
 3709TIP3    H211092   6.039   6.828   4.886 -0.3087  0.3538 -1.1109
 3710TIP3   OH211093   1.431   0.612   4.256 -0.3858  0.3659  0.7460
 3710TIP3    H111094   1.404   0.521   4.247  0.2311  0.2752 -0.2111
 3710TIP3    H211095   1.525   0.608   4.274 -0.2282  0.8342  0.0463
 3711TIP3   OH211096   0.877   4.999   2.786 -0.8304 -0.0939  0.0921
 3711TIP3    H111097   0.814   5.067   2.761  0.2707  0.7654 -0.3977
 3711TIP3    H211098   0.849   4.972   2.874 -2.4046 -0.3730 -0.4504
 3712TIP3   OH211099   1.488   3.480   3.706 -0.4132  0.3063 -0.2764
 3712TIP3    H111100   1.449   3.540   3.643 -0.7989  0.3291 -0.0192
 3712TIP3    H211101   1.574   3.518   3.726 -0.7471  0.8833  0.0488
 3713TIP3   OH211102   6.008   5.042   2.191 -0.0565 -0.3665  0.0376
 3713TIP3    H111103   5.973   5.117   2.143  0.1044 -0.7315 -0.6484
 3713TIP3    H211104   6.100   5.064   2.206 -0.0959 -0.2739  0.1529
 3714TIP3   OH211105   3.409   1.801   5.438 -0.0969 -0.3549  0.1579
 3714TIP3    H111106   3.400   1.793   5.533 -0.2920 -0.0444  0.1673
 3714TIP3    H211107   3.412   1.896   5.422 -0.2903 -0.4029 -0.1646
 3715TIP3   OH211108   5.003   0.614   5.570 -0.0436  0.2369  0.0499
 3715TIP3    H111109   5.022   0.556   5.497 -1.7020  1.0832 -1.1143
 3715TIP3    H211110   5.073   0.598   5.633  1.3891 -0.5716 -1.6844
 3716TIP3   OH211111   5.092   2.637   2.120  0.5584  0.0743 -0.1452
 3716TIP3    H111112   5.004   2.666   2.142  0.3559 -0.5233 -0.1343
 3716TIP3    H211113   5.149   2.679   2.184  0.3827  1.1074 -0.6463
 3717TIP3   OH211114   1.120   3.380   1.856  0.2495  0.4221  0.2509
 3717TIP3    H111115   1.203   3.410   1.819 -0.7386  1.8709 -0.9229
 3717TIP3    H211116   1.060   3.376   1.781 -0.8238 -0.3006  1.1139
 3718TIP3   OH211117   1.721   3.704   4.242 -0.0365 -0.5173 -0.2534
 3718TIP3    H111118   1.759   3.702   4.155 -0.9764 -0.6468 -0.6687
 3718TIP3    H211119   1.666   3.626   4.247 -0.9828  0.1414 -0.0131
 3719TIP3   OH211120   6.808   4.742   3.144  0.0526  0.5665 -0.2010
 3719TIP3    H111121   6.853   4.811   3.094  0.0616 -0.1547 -1.2255
 3719TIP3    H211122   6.721   4.736   3.104 -0.0427  0.1661  0.0541
 3720TIP3   OH211123   5.145   3.734   4.373 -0.0623  0.0762  0.3042
 3720TIP3    H111124   5.110   3.652   4.408  0.1507 -0.1918 -0.1036
 3720TIP3    H211125   5.203   3.767   4.442  1.2438 -1.0264 -0.2065
 3721TIP3   OH211126   0.939   6.631   5.454  0.5465  0.4825  0.1486
 3721TIP3    H111127   0.921   6.590   5.369  2.0858 -1.6897  0.7823
 3721TIP3    H211128   0.854   6.659   5.487 -0.3319 -0.5492 -1.1662
 3722TIP3   OH211129   2.892   3.040   2.125 -0.1460 -0.5780 -0.1923
 3722TIP3    H111130   2.840   3.065   2.201  0.9573  0.2346  0.3152
 3722TIP3    H211131   2.967   2.992   2.161  0.5394  0.0613 -0.7160
 3723TIP3   OH211132   5.717   5.014   5.478  0.7349 -0.5671 -0.0564
 3723TIP3    H111133   5.639   5.058   5.512  0.1010 -2.2426  0.7805
 3723TIP3    H211134   5.783   5.027   5.547  0.5983 -0.7727  0.1155
 3724TIP3   OH211135   3.693   5.400   1.492 -0.5294 -0.0158  0.1929
 3724TIP3    H111136   3.717   5.383   1.401  2.0488  2.0331  0.3898
 3724TIP3    H211137   3.632   5.474   1.487  2.2657  2.4468  0.1685
 3725TIP3   OH211138   2.796   5.058   1.344 -0.3436  0.5620  0.4086
 3725TIP3    H111139   2.754   5.096   1.267 -1.0235  0.6613  0.8233
 3725TIP3    H211140   2.884   5.035   1.314 -1.2477 -1.3208 -0.9942
 3726TIP3   OH211141   2.748   2.968   5.042 -0.2065  0.4459  0.1689
 3726TIP3    H111142   2.777   2.892   5.092 -1.5548 -1.1870 -1.3954
 3726TIP3    H211143   2.656   2.979   5.065 -0.4056  0.6855 -0.6984
 3727TIP3   OH211144   6.929   0.305   1.639 -0.8199 -0.2375  0.3617
 3727TIP3    H111145   7.008   0.269   1.680 -0.5441  0.0875  0.1241
 3727TIP3    H211146   6.879   0.342   1.712 -0.7966 -0.5227  0.5244
 3728TIP3   OH211147   2.969   3.906   5.689 -0.2459  0.0535 -0.2780
 3728TIP3    H111148   2.974   3.886   5.595  0.5375 -0.7173 -0.0767
 3728TIP3    H211149   2.886   3.953   5.698 -0.5892 -0.3245 -1.2731
 3729TIP3   OH211150   1.186   4.913   2.410 -0.2238 -0.2140  0.2202
 3729TIP3    H111151   1.167   4.914   2.504 -0.6283 -1.4073  0.1664
 3729TIP3    H211152   1.129   4.979   2.373 -0.4986 -0.1538  0.7398
 3730TIP3   OH211153   3.759   1.691   3.390 -0.1544 -0.2347 -0.4339
 3730TIP3    H111154   3.843   1.659   3.359 -0.2853 -0.4361 -0.5836
 3730TIP3    H211155   3.704   1.612   3.397 -0.3606 -0.0935 -0.4366
 3731TIP3   OH211156   0.761   3.756   2.513  0.2951  0.8733  0.3128
 3731TIP3    H111157   0.673   3.788   2.496 -0.1164 -1.0251 -1.5576
 3731TIP3    H211158   0.747   3.667   2.547  1.4669  0.1463 -1.0057
 3732TIP3   OH211159   1.019   0.247   3.364  0.5674  0.6325 -0.1400
 3732TIP3    H111160   1.103   0.276   3.399  0.1749  0.9538  0.5420
 3732TIP3    H211161   1.012   0.155   3.390  0.6318  0.6531 -0.0497
 3733TIP3   OH211162   1.282   4.047   3.361  0.4207 -0.2927 -0.1834
 3733TIP3    H111163   1.316   3.974   3.307  3.0762  1.1583 -0.6563
 3733TIP3    H211164   1.265   4.117   3.298  2.7936  1.1574  0.6470
 3734TIP3   OH211165   1.581   5.495   1.501  0.3659  0.3607 -0.2347
 3734TIP3    H111166   1.574   5.532   1.589  0.5884  1.6550 -0.7281
 3734TIP3    H211167   1.581   5.401   1.514 -1.6871  0.4791  0.9991
 3735TIP3   OH211168   0.588   1.837   0.659 -0.4054  0.2761 -0.0925
 3735TIP3    H111169   0.566   1.925   0.629 -0.4725  0.0258 -0.8119
 3735TIP3    H211170   0.667   1.849   0.712 -0.2007  0.7284 -0.4877
 3736TIP3   OH211171   5.210   6.382   3.869  0.1111 -0.0720 -0.1147
 3736TIP3    H111172   5.140   6.406   3.809 -0.6415  1.8979  1.4276
 3736TIP3    H211173   5.166   6.340   3.943  0.6077  0.6559  0.6081
 3737TIP3   OH211174   4.920   4.842   5.669 -0.1386  0.4678  0.1894
 3737TIP3    H111175   4.858   4.771   5.656  0.9141 -0.6235  0.9694
 3737TIP3    H211176   4.897   4.880   5.754  1.2918 -1.0596  1.3084
 3738TIP3   OH211177   1.965   4.968   0.995 -0.0066  0.0408 -0.2392
 3738TIP3    H111178   1.879   4.935   1.023  0.4003 -0.9593 -0.1648
 3738TIP3    H211179   2.028   4.917   1.045  0.6513  0.4395 -0.6508
 3739TIP3   OH211180   0.707   2.625   0.892  0.2444  0.3149  0.0836
 3739TIP3    H111181   0.704   2.691   0.823 -1.2487 -0.2395 -0.4319
 3739TIP3    H211182   0.786   2.575   0.874 -0.1314  0.1711 -1.2650
 3740TIP3   OH211183   3.783   2.291   0.205 -0.1047  0.1367  0.4760
 3740TIP3    H111184   3.702   2.302   0.254 -1.3887  0.2900 -1.5644
 3740TIP3    H211185   3.849   2.336   0.258 -1.3277  0.0340  2.1793
 3741TIP3   OH211186   5.697   5.542   1.948  0.0520 -0.0800 -0.3275
 3741TIP3    H111187   5.679   5.605   2.018 -2.1958  0.2064 -1.0793
 3741TIP3    H211188   5.744   5.593   1.882 -1.5847  0.8190 -0.8468
 3742TIP3   OH211189   0.763   1.248   5.430  0.3443 -0.9604  0.6169
 3742TIP3    H111190   0.760   1.153   5.444 -0.4016 -0.6975  2.5477
 3742TIP3    H211191   0.832   1.279   5.489  0.6290 -0.3003 -0.0465
 3743TIP3   OH211192   1.901   5.351   3.773 -0.3107  0.0820  0.3948
 3743TIP3    H111193   1.829   5.297   3.738  1.4274 -3.1762  1.4145
 3743TIP3    H211194   1.965   5.354   3.702 -0.3067  0.6489  0.4212
 3744TIP3   OH211195   1.631   2.397   5.794 -1.0734  0.2676 -0.3653
 3744TIP3    H111196   1.583   2.445   5.726 -0.4111  0.9999 -0.3223
 3744TIP3    H211197   1.565   2.380   5.861 -1.6049  0.0183 -0.9334
 3745TIP3   OH211198   4.636   3.653   2.802 -0.3324 -0.0821 -0.7535
 3745TIP3    H111199   4.583   3.693   2.872 -0.7208  0.1197 -1.1601
 3745TIP3    H211200   4.624   3.559   2.813  0.6535 -0.1105  0.2652
 3746TIP3   OH211201   5.519   4.184   1.920  0.6477 -0.5283 -0.3573
 3746TIP3    H111202   5.438   4.234   1.929  1.3653  0.6612 -0.1807
 3746TIP3    H211203   5.500   4.119   1.853 -0.9500 -1.3493  0.8291
 3747TIP3   OH211204   2.642   5.002   1.840  0.4150  0.6790  0.0408
 3747TIP3    H111205   2.602   4.925   1.799  1.4699  0.9064 -1.4867
 3747TIP3    H211206   2.675   5.054   1.767  1.4585  1.6230  1.1473
 3748TIP3   OH211207   4.983   2.540   1.654  0.3430  0.4781  0.3509
 3748TIP3    H111208   5.048   2.484   1.697 -0.3135 -0.3877  0.2338
 3748TIP3    H211209   4.959   2.604   1.720  0.2134 -0.1161  0.8879
 3749TIP3   OH211210   0.670   5.226   5.825 -0.5954  0.8410  0.2033
 3749TIP3    H111211   0.663   5.143   5.777  0.9479  1.6282 -1.5098
 3749TIP3    H211212   0.761   5.254   5.811 -0.4830  1.8350  2.4710
 3750TIP3   OH211213   0.034   4.578   2.370  0.3911 -0.1269 -0.0030
 3750TIP3    H111214   0.070   4.531   2.446  1.1871 -0.5073 -0.5956
 3750TIP3    H211215  -0.032   4.636   2.407 -0.4787 -1.5408  0.7877
 3751TIP3   OH211216   3.246   4.301   1.423  0.0686 -0.6756 -0.2981
 3751TIP3    H111217   3.248   4.302   1.519  1.3706 -2.2462 -0.2660
 3751TIP3    H211218   3.164   4.346   1.400 -0.4200 -0.5492  1.5457
 3752TIP3   OH211219   0.840   4.101   5.201 -0.4082 -0.0657 -0.4026
 3752TIP3    H111220   0.895   4.067   5.271 -1.7461 -1.5773 -0.0247
 3752TIP3    H211221   0.768   4.146   5.246 -0.4211  0.3582 -0.8357
 3753TIP3   OH211222   1.626   0.294   3.935  0.0538 -0.0089  0.0989
 3753TIP3    H111223   1.592   0.205   3.935  0.5376 -0.2283 -1.5374
 3753TIP3    H211224   1.672   0.303   4.018 -0.4916 -1.0809  0.5295
 3754TIP3   OH211225   2.504   2.674   0.499  0.8147  0.0665 -0.2536
 3754TIP3    H111226   2.561   2.749   0.483  2.8689 -1.3740 -0.0576
 3754TIP3    H211227   2.523   2.614   0.426 -0.4943 -0.4397 -0.2028
 3755TIP3   OH211228   3.954   0.822   5.046 -0.7168 -0.0134  0.1477
 3755TIP3    H111229   3.989   0.911   5.038  0.1056  0.0438  3.0149
 3755TIP3    H211230   3.859   0.833   5.051 -0.5595  1.0266  2.3577
 3756TIP3   OH211231   6.382   1.858   2.414  0.4834  0.0946  0.1306
 3756TIP3    H111232   6.308   1.880   2.358  0.2535 -1.1393 -0.0793
 3756TIP3    H211233   6.458   1.895   2.368  0.1308  0.3936 -0.2227
 3757TIP3   OH211234   2.759   5.965   3.282 -0.5034  0.0051 -0.2860
 3757TIP3    H111235   2.720   6.031   3.338 -2.3006 -0.2776 -1.1216
 3757TIP3    H211236   2.850   5.960   3.309 -1.2077  0.1383  2.3189
 3758TIP3   OH211237   1.295   5.472   0.164  0.0016  0.0960 -0.2513
 3758TIP3    H111238   1.266   5.478   0.255 -1.4509 -3.0848 -0.3779
 3758TIP3    H211239   1.391   5.476   0.169 -0.0124 -0.6881  1.5379
 3759TIP3   OH211240   6.229   5.980   0.472  0.0087  0.0945 -0.3435
 3759TIP3    H111241   6.182   5.906   0.435 -1.1056 -0.2032  1.5616
 3759TIP3    H211242   6.161   6.044   0.493  0.5574  0.2538  1.0975
 3760TIP3   OH211243   1.541   0.903   4.403 -0.1221  0.2083 -0.6158
 3760TIP3    H111244   1.602   0.900   4.330 -0.0826 -0.6241 -0.5582
 3760TIP3    H211245   1.594   0.933   4.477  0.6835 -2.2092 -0.1465
 3761TIP3   OH211246   0.590   5.218   3.503 -0.2237  0.5157  0.2875
 3761TIP3    H111247   0.516   5.270   3.472 -0.8195 -1.0817 -1.0979
 3761TIP3    H211248   0.557   5.174   3.582  0.3441  2.2833  1.5809
 3762TIP3   OH211249   3.361   3.191   5.773 -0.0792 -0.6214  0.1202
 3762TIP3    H111250   3.444   3.237   5.765 -0.1274 -0.4104  0.7823
 3762TIP3    H211251   3.386   3.099   5.781  0.0206 -0.7163 -1.0748
 3763TIP3   OH211252   1.867   2.215   4.231 -0.4060 -0.2203  0.3557
 3763TIP3    H111253   1.952   2.189   4.197  0.1088  0.7586  0.8703
 3763TIP3    H211254   1.884   2.290   4.287 -1.3930 -1.0550  1.8680
 3764TIP3   OH211255   6.524   6.078   1.643  0.0836  0.4776 -0.1160
 3764TIP3    H111256   6.591   6.108   1.582  0.3417  0.0534 -0.0499
 3764TIP3    H211257   6.548   5.986   1.661 -0.8337  0.1515 -0.5203
 3765TIP3   OH211258   2.285   1.310   4.183 -0.6024 -0.2123  0.0415
 3765TIP3    H111259   2.212   1.248   4.178 -0.5431 -0.2893  0.1356
 3765TIP3    H211260   2.334   1.283   4.260 -0.0219 -0.6416 -0.4713
 3766TIP3   OH211261   4.286   5.369   4.666 -0.1149  0.9150  0.0620
 3766TIP3    H111262   4.328   5.287   4.692  0.1032  0.8936 -0.3543
 3766TIP3    H211263   4.225   5.387   4.737 -1.5926 -0.6202 -0.7494
 3767TIP3   OH211264   1.816   5.230   0.875  0.2166  0.1547 -0.1610
 3767TIP3    H111265   1.829   5.136   0.886  1.6658  0.2037 -1.1936
 3767TIP3    H211266   1.788   5.261   0.961  1.4470 -0.9306  0.6630
 3768TIP3   OH211267   0.756   5.214   4.542 -0.2256  0.1928 -0.4843
 3768TIP3    H111268   0.695   5.157   4.495 -1.7008 -1.1610  2.7563
 3768TIP3    H211269   0.842   5.176   4.526 -0.9452 -1.6355 -0.2466
 3769TIP3   OH211270   6.559   2.564   1.370 -0.1342 -0.2502  0.1218
 3769TIP3    H111271   6.516   2.546   1.453 -0.8939 -1.6982 -0.5659
 3769TIP3    H211272   6.514   2.510   1.306  1.2616 -0.1330 -1.0247
 3770TIP3   OH211273   0.898   0.551   1.760 -0.4708  0.2566  0.2019
 3770TIP3    H111274   0.908   0.493   1.836 -3.1518  1.4303  1.6148
 3770TIP3    H211275   0.945   0.507   1.690 -0.4338 -2.4709  1.7847
 3771TIP3   OH211276   3.902   4.279   4.832  0.3894  0.5212  0.4746
 3771TIP3    H111277   3.900   4.188   4.862  2.3499  0.4050  0.4149
 3771TIP3    H211278   3.968   4.280   4.763 -1.4973  1.4917 -1.4426
 3772TIP3   OH211279   5.652   1.105   4.019 -0.1975 -0.5781 -0.0788
 3772TIP3    H111280   5.573   1.108   3.965 -0.6244 -0.9480  0.5222
 3772TIP3    H211281   5.684   1.195   4.021  0.1573 -0.6527 -1.4379
 3773TIP3   OH211282   1.097   3.180   4.486 -0.0230 -0.0734 -0.1825
 3773TIP3    H111283   1.090   3.261   4.437 -1.3236 -0.4139 -0.6253
 3773TIP3    H211284   1.144   3.120   4.428 -0.5839 -0.1445 -0.5688
 3774TIP3   OH211285   3.842   2.857   4.845  0.4962  0.2916 -0.5246
 3774TIP3    H111286   3.857   2.770   4.882 -0.5937  0.5954  0.6780
 3774TIP3    H211287   3.755   2.853   4.806  0.5671  0.7679 -0.7468
 3775TIP3   OH211288   0.775   5.037   4.178 -0.0905 -0.1492  0.7065
 3775TIP3    H111289   0.693   5.036   4.228 -0.6756  0.9049 -0.1714
 3775TIP3    H211290   0.771   4.957   4.125 -2.3563  1.5531 -1.9841
 3776TIP3   OH211291   3.742   2.456   1.729 -0.1898  0.0825 -0.6165
 3776TIP3    H111292   3.753   2.364   1.706 -1.3669 -0.3946  0.6349
 3776TIP3    H211293   3.669   2.486   1.676 -0.0284  0.2073 -0.7699
 3777TIP3   OH211294   5.251   0.439   0.380 -0.1376 -0.2956  0.1330
 3777TIP3    H111295   5.283   0.355   0.348  1.0303  0.9929 -2.4376
 3777TIP3    H211296   5.305   0.458   0.456  0.5411 -1.2588 -0.0891
 3778TIP3   OH211297   2.658   1.223   0.229 -0.4285  0.0172  0.6816
 3778TIP3    H111298   2.563   1.219   0.234 -0.4782  1.2459  1.1419
 3778TIP3    H211299   2.688   1.188   0.313 -0.4837  0.0708  0.7233
 3779TIP3   OH211300   5.163   6.173   3.222 -0.0506  0.8126  0.3286
 3779TIP3    H111301   5.211   6.227   3.285 -1.5301  0.4581  1.8239
 3779TIP3    H211302   5.088   6.227   3.196  1.0250  1.3468 -1.9602
 3780TIP3   OH211303   2.291   4.021   1.002 -0.2193 -0.1634 -0.2432
 3780TIP3    H111304   2.330   4.089   0.948  0.1942 -0.6884 -0.6074
 3780TIP3    H211305   2.271   4.065   1.085 -0.8054  0.6341 -0.7831
 3781TIP3   OH211306   4.343   5.154   4.325 -0.7755  0.5820 -0.0070
 3781TIP3    H111307   4.313   5.115   4.407 -0.9828 -0.9033 -0.7478
 3781TIP3    H211308   4.436   5.131   4.321 -0.7948  0.5458 -0.2463
 3782TIP3   OH211309   3.787   2.179   5.369  0.6101  0.9890 -0.3215
 3782TIP3    H111310   3.849   2.187   5.296  1.4429  1.3969  0.4035
 3782TIP3    H211311   3.817   2.244   5.433 -0.2736  0.8419  0.2585
 3783TIP3   OH211312   6.516   5.610   4.435 -0.2601 -0.1742 -0.0683
 3783TIP3    H111313   6.559   5.644   4.514 -0.7165 -1.6398  0.8655
 3783TIP3    H211314   6.422   5.620   4.452 -0.3767 -1.0179 -0.1486
 3784TIP3   OH211315   4.884   5.505   4.141  0.1045  0.5302 -0.1389
 3784TIP3    H111316   4.854   5.471   4.225 -2.2007 -0.4047 -1.2580
 3784TIP3    H211317   4.900   5.426   4.088  2.6971  1.0619 -0.2703
 3785TIP3   OH211318   1.390   2.726   3.968 -0.3679  0.2549 -0.2859
 3785TIP3    H111319   1.477   2.707   3.934 -0.0973  0.4641  0.2813
 3785TIP3    H211320   1.380   2.821   3.959  0.6581  0.6978  2.3555
 3786TIP3   OH211321   4.097   3.973   2.701  0.1588  0.2715  0.0287
 3786TIP3    H111322   4.009   4.012   2.700 -0.3715 -0.7377 -2.5189
 3786TIP3    H211323   4.115   3.955   2.608  1.9974 -1.8926  0.7321
 3787TIP3   OH211324   1.291   3.731   2.565 -0.2048 -0.8108 -0.1103
 3787TIP3    H111325   1.201   3.742   2.596  0.2617  0.9864  0.6951
 3787TIP3    H211326   1.315   3.817   2.530  1.6625 -0.8631  0.9590
 3788TIP3   OH211327   6.441   2.473   0.619  0.1659  0.4613  0.1305
 3788TIP3    H111328   6.385   2.506   0.689 -0.0991  1.9453 -0.7423
 3788TIP3    H211329   6.418   2.526   0.543  0.1937 -1.3439 -1.1946
 3789TIP3   OH211330   7.172   4.580   5.782 -0.7987  0.5345 -0.4013
 3789TIP3    H111331   7.181   4.666   5.823 -1.3581 -0.1861  1.3377
 3789TIP3    H211332   7.232   4.582   5.708  0.9594  1.6384  0.9622
 3790TIP3   OH211333   0.846   4.773   5.547 -0.1546  0.3596 -0.0001
 3790TIP3    H111334   0.915   4.714   5.514 -1.5160 -0.1590 -2.0905
 3790TIP3    H211335   0.821   4.736   5.631  1.5387  0.0956  0.4211
 3791TIP3   OH211336   3.877   3.763   5.661 -0.7735 -0.2575 -0.2715
 3791TIP3    H111337   3.861   3.678   5.702  0.0633 -0.7261 -0.8794
 3791TIP3    H211338   3.824   3.761   5.582 -3.2606  1.0820  1.2204
 3792TIP3   OH211339   6.055   5.072   4.940 -0.3510 -0.3062  0.0784
 3792TIP3    H111340   6.071   5.130   5.014 -2.8549 -0.0753  0.5400
 3792TIP3    H211341   6.055   5.130   4.864  1.6342 -0.4535 -0.0783
 3793TIP3   OH211342   3.832   0.990   2.942 -0.2983  0.7544 -0.1926
 3793TIP3    H111343   3.851   0.974   3.035 -0.1233  3.0985  0.2404
 3793TIP3    H211344   3.917   1.006   2.902 -0.0463 -2.8019 -1.4350
 3794TIP3   OH211345   0.769   2.716   5.696 -0.1282 -0.2234 -0.2475
 3794TIP3    H111346   0.834   2.650   5.675  0.5693  0.4143 -0.1351
 3794TIP3    H211347   0.817   2.799   5.695 -1.0651  0.3343 -0.7808
 3795TIP3   OH211348   0.019   1.977   2.417 -0.8665 -0.3106  0.3312
 3795TIP3    H111349   0.049   2.066   2.396 -1.0645 -0.4029 -0.3714
 3795TIP3    H211350   0.091   1.921   2.389 -0.8160 -0.3835  0.6105
 3796TIP3   OH211351   3.258   2.336   0.873  0.4209  0.1598 -0.2645
 3796TIP3    H111352   3.185   2.337   0.810  0.6485  0.9914 -0.5253
 3796TIP3    H211353   3.275   2.428   0.892  0.1132 -0.0930  1.3278
 3797TIP3   OH211354   6.117   2.169   0.122  0.3880  0.1776  0.1484
 3797TIP3    H111355   6.123   2.217   0.205  0.4395 -0.4384  0.5082
 3797TIP3    H211356   6.205   2.133   0.109 -0.0044 -0.9920  0.6089
 3798TIP3   OH211357   6.425   6.107   0.638 -0.7636 -0.5314 -0.0042
 3798TIP3    H111358   6.359   6.059   0.589 -0.2945 -1.7452  0.5010
 3798TIP3    H211359   6.451   6.047   0.708 -0.7468  0.7910  1.1761
 3799TIP3   OH211360   1.181   5.367   3.060  0.0406 -0.7144 -0.4111
 3799TIP3    H111361   1.228   5.428   3.003 -0.9312 -0.2763 -0.7670
 3799TIP3    H211362   1.196   5.281   3.021  1.2739 -0.6982 -0.0068
 3800TIP3   OH211363   6.683   2.277   1.123 -0.1252 -0.0902  0.1535
 3800TIP3    H111364   6.654   2.353   1.072 -0.8228  0.4538  1.3191
 3800TIP3    H211365   6.621   2.208   1.102  0.8912 -0.5788 -1.4180
 3801TIP3   OH211366   5.132   2.730   4.075  0.1649 -0.1138  0.3282
 3801TIP3    H111367   5.206   2.784   4.047  0.0541 -0.1355 -0.0118
 3801TIP3    H211368   5.124   2.662   4.008  0.6023 -0.8499  1.0077
 3802TIP3   OH211369   6.758   4.930   4.824 -0.4562 -0.1220 -0.2072
 3802TIP3    H111370   6.775   4.898   4.913  0.7627 -0.2625 -0.4756
 3802TIP3    H211371   6.751   5.025   4.834  0.0484 -0.1019 -0.0080
 3803TIP3   OH211372   6.183   3.520   3.797 -0.4313 -0.3591  0.1577
 3803TIP3    H111373   6.272   3.488   3.779  0.0176  0.6330  0.5414
 3803TIP3    H211374   6.190   3.557   3.885 -0.8895  0.9479 -0.3477
 3804TIP3   OH211375   3.076   5.786   0.798 -0.0770 -0.9136  0.2252
 3804TIP3    H111376   2.990   5.826   0.785  0.7458  0.7061 -0.6179
 3804TIP3    H211377   3.121   5.799   0.714  1.8719  0.6358  1.4129
 3805TIP3   OH211378   4.804   6.228   5.412  0.2908 -0.0465  0.0254
 3805TIP3    H111379   4.878   6.231   5.353 -0.7486  0.5303 -1.2926
 3805TIP3    H211380   4.781   6.319   5.429  1.7784 -0.0985  2.9780
 3806TIP3   OH211381   3.126   0.245   3.711  0.1328 -0.8246 -0.5707
 3806TIP3    H111382   3.213   0.284   3.718  0.1871 -0.8690 -0.9523
 3806TIP3    H211383   3.133   0.184   3.638  0.1406 -1.8249  0.2407
 3807TIP3   OH211384   3.638   1.243   1.753 -0.3645 -0.0586 -0.0739
 3807TIP3    H111385   3.561   1.285   1.715 -1.2066 -1.8708 -0.4594
 3807TIP3    H211386   3.612   1.218   1.841 -0.4801 -1.2712 -0.4316
 3808TIP3   OH211387   4.345   4.442   5.695 -0.5618  0.1667 -0.1094
 3808TIP3    H111388   4.282   4.485   5.637 -0.3964  1.7893  0.8663
 3808TIP3    H211389   4.388   4.513   5.742 -1.4330 -1.0758  2.7915
 3809TIP3   OH211390   6.517   0.114   4.402 -0.1672  0.7296  0.2521
 3809TIP3    H111391   6.547   0.194   4.446  0.8821  0.7292 -0.4472
 3809TIP3    H211392   6.443   0.084   4.456  0.0553  1.6215  1.0835
 3810TIP3   OH211393   6.474   6.138   5.365  0.2983 -0.2614  0.9582
 3810TIP3    H111394   6.554   6.182   5.393  0.1050  0.0525  1.0147
 3810TIP3    H211395   6.403   6.195   5.394  0.1084  0.8594 -1.4116
 3811TIP3   OH211396   0.007   1.407   4.022 -0.5469 -0.5648 -0.1357
 3811TIP3    H111397   0.077   1.399   3.958  0.5327 -0.6189  1.0151
 3811TIP3    H211398   0.028   1.486   4.071  0.2433 -1.9783  1.9574
 3812TIP3   OH211399   1.212   3.445   2.724  0.3198  0.0247  0.3434
 3812TIP3    H111400   1.208   3.415   2.815  0.9705  0.1786  0.4288
 3812TIP3    H211401   1.248   3.533   2.729  0.0240  0.1719 -0.0418
 3813TIP3   OH211402   6.244   2.826   2.831  0.1493  0.3228  0.4702
 3813TIP3    H111403   6.166   2.882   2.839  0.6194  0.7581  3.0980
 3813TIP3    H211404   6.210   2.737   2.839 -0.1059  0.5217  1.9037
 3814TIP3   OH211405   6.368   1.895   3.666 -0.4415  0.5235  0.1964
 3814TIP3    H111406   6.335   1.863   3.749  0.2441  1.8414  1.0078
 3814TIP3    H211407   6.438   1.833   3.642  0.0323  0.6954  1.1026
 3815TIP3   OH211408   2.957   1.367   3.179 -0.1802  0.3330  0.0390
 3815TIP3    H111409   2.977   1.274   3.192  1.1026  0.9438  3.5459
 3815TIP3    H211410   2.862   1.370   3.173 -0.2392 -1.2146 -0.2349
 3816TIP3   OH211411   0.142   1.535   5.729  0.5738 -0.8450 -0.1305
 3816TIP3    H111412   0.072   1.514   5.667 -0.0067 -0.4138  0.3617
 3816TIP3    H211413   0.168   1.624   5.707 -0.0546 -0.4627  0.6141
 3817TIP3   OH211414   4.672   1.447   2.183 -0.3738  0.3876 -0.3947
 3817TIP3    H111415   4.660   1.519   2.245  1.6452 -0.1455  0.7257
 3817TIP3    H211416   4.642   1.370   2.231  3.4945 -0.4303  1.1190
 3818TIP3   OH211417   5.173   2.957   0.320 -0.1637  0.1080 -0.1139
 3818TIP3    H111418   5.120   2.886   0.357  0.9492 -0.9798 -0.5150
 3818TIP3    H211419   5.133   2.976   0.235 -0.2144 -0.3600 -0.1983
 3819TIP3   OH211420   2.773   3.752   5.883 -0.0710 -1.0639 -0.5732
 3819TIP3    H111421   2.828   3.730   5.808  1.0271 -0.4951  0.0392
 3819TIP3    H211422   2.730   3.833   5.858 -1.4385 -2.0084 -1.4454
 3820TIP3   OH211423   0.488   3.045   5.240 -0.4479  0.1431 -0.3640
 3820TIP3    H111424   0.441   3.128   5.230 -0.7745 -0.1823 -1.7708
 3820TIP3    H211425   0.421   2.978   5.236 -0.2049 -0.2148  0.9583
 3821TIP3   OH211426   1.320   3.115   1.876 -0.1314  0.6177 -0.1619
 3821TIP3    H111427   1.248   3.080   1.928  0.5942 -1.0249 -0.2025
 3821TIP3    H211428   1.280   3.135   1.791 -0.7921  0.9571  0.2150
 3822TIP3   OH211429   0.702   4.142   1.722 -0.1242 -0.1565  0.1582
 3822TIP3    H111430   0.680   4.129   1.630 -0.2861 -0.6107  0.2590
 3822TIP3    H211431   0.651   4.075   1.769 -0.3204  0.3034  0.6096
 3823TIP3   OH211432   2.803   3.776   1.760  0.3291  0.1042 -0.1596
 3823TIP3    H111433   2.772   3.721   1.688  1.2411  0.6098 -0.9618
 3823TIP3    H211434   2.725   3.822   1.790 -0.3197 -1.1314  0.0875
 3824TIP3   OH211435   1.341   4.181   1.057 -0.0904  0.1725  0.7598
 3824TIP3    H111436   1.343   4.276   1.066  0.8295  0.1718  0.6895
 3824TIP3    H211437   1.327   4.166   0.963  2.8461  0.2987  0.2068
 3825TIP3   OH211438   1.113   1.130   1.908  0.0298  0.3690  0.4166
 3825TIP3    H111439   1.108   1.081   1.990  0.4019 -0.4920 -0.0602
 3825TIP3    H211440   1.052   1.085   1.850  0.6347  0.2570 -0.1371
 3826TIP3   OH211441   3.847   5.625   0.260  0.1244  0.1215  0.3955
 3826TIP3    H111442   3.859   5.574   0.340  0.4391 -1.0305 -0.3677
 3826TIP3    H211443   3.933   5.627   0.219 -0.6919 -2.3143 -1.6544
 3827TIP3   OH211444   2.494   5.769   1.639 -0.2424  0.8361 -0.4186
 3827TIP3    H111445   2.463   5.693   1.689 -1.0250  0.6313 -1.1970
 3827TIP3    H211446   2.589   5.769   1.654 -0.3959  0.5365  0.7168
 3828TIP3   OH211447   7.141   5.155   1.318 -0.0616 -0.1345 -0.2203
 3828TIP3    H111448   7.045   5.155   1.320 -0.0745  0.7026  1.5180
 3828TIP3    H211449   7.166   5.070   1.353 -0.1489 -0.6749 -1.4411
 3829TIP3   OH211450   1.326   2.077   1.327  0.6516  0.3907 -0.3967
 3829TIP3    H111451   1.258   2.024   1.285  1.4541  0.3038 -1.6220
 3829TIP3    H211452   1.289   2.165   1.329 -0.0871  0.0866  0.3126
 3830TIP3   OH211453   1.577   5.982   3.611  0.0709  0.8914 -0.3161
 3830TIP3    H111454   1.610   6.003   3.524 -1.2584 -1.0880 -1.3561
 3830TIP3    H211455   1.502   6.039   3.624 -1.4843 -0.7465 -1.7197
 3831TIP3   OH211456   6.926   0.529   2.029 -0.4281 -0.2276 -0.1334
 3831TIP3    H111457   6.971   0.449   2.056 -1.1905 -0.6980 -0.2080
 3831TIP3    H211458   6.864   0.499   1.962 -1.2884  0.2943  0.4148
 3832TIP3   OH211459   5.263   4.721   3.643 -0.3814 -0.5350  0.2292
 3832TIP3    H111460   5.340   4.713   3.587  0.1664  1.4008  0.6601
 3832TIP3    H211461   5.298   4.727   3.732 -1.1705 -1.9450  0.6705
 3833TIP3   OH211462   0.405   2.229   2.928  0.1176  0.0574  0.1124
 3833TIP3    H111463   0.397   2.135   2.946  0.2197  0.2532  1.2215
 3833TIP3    H211464   0.401   2.270   3.014  0.0177  1.0805 -0.3742
 3834TIP3   OH211465   1.589   2.121   0.219  0.2033  0.6704 -0.1623
 3834TIP3    H111466   1.671   2.103   0.173  0.6627  3.9141 -0.8525
 3834TIP3    H211467   1.604   2.203   0.265 -1.9346  0.1392  1.6540
 3835TIP3   OH211468   4.176   1.525   0.419 -0.7568  0.1589  0.2069
 3835TIP3    H111469   4.265   1.557   0.432 -1.2130  0.7366  2.3773
 3835TIP3    H211470   4.182   1.430   0.432 -0.2036 -0.0580 -1.4245
 3836TIP3   OH211471   6.464   4.193   2.775 -0.8934 -0.1266  0.0880
 3836TIP3    H111472   6.397   4.217   2.711 -0.6521  2.7236  0.7704
 3836TIP3    H211473   6.472   4.270   2.832  1.9009 -0.9212  0.9424
 3837TIP3   OH211474   0.753   5.544   5.266 -0.1247  0.3266  0.3263
 3837TIP3    H111475   0.684   5.570   5.328  0.2478  0.2899  0.7630
 3837TIP3    H211476   0.706   5.505   5.193 -0.4658 -2.5270  1.9239
 3838TIP3   OH211477   0.543   4.974   2.049  0.0325  0.3896  0.3128
 3838TIP3    H111478   0.499   4.921   1.982  0.5401  0.3422  0.0103
 3838TIP3    H211479   0.538   4.921   2.129 -0.4772  0.3986  0.2939
 3839TIP3   OH211480   5.307   3.212   5.612  0.1212 -0.3901 -0.3001
 3839TIP3    H111481   5.310   3.297   5.567 -0.5437  0.3485  0.9884
 3839TIP3    H211482   5.290   3.234   5.703  2.1541 -1.7962  0.4914
 3840TIP3   OH211483   4.567   3.910   1.654 -0.5519  0.5323  0.1452
 3840TIP3    H111484   4.592   3.971   1.723  1.5984  0.5303 -0.5384
 3840TIP3    H211485   4.647   3.860   1.637 -1.5504 -0.7291 -1.0712
 3841TIP3   OH211486   3.332   3.690   1.046  0.4017 -0.0131 -0.0956
 3841TIP3    H111487   3.409   3.637   1.027 -0.1037 -0.8399  0.0854
 3841TIP3    H211488   3.339   3.710   1.140 -0.7757 -2.1172  0.5087
 3842TIP3   OH211489   6.714   5.860   2.912 -0.0760 -0.3335  0.1622
 3842TIP3    H111490   6.737   5.808   2.989  0.5157 -0.6690 -0.2333
 3842TIP3    H211491   6.662   5.932   2.947  2.3402  1.0042  1.2658
 3843TIP3   OH211492   5.360   0.195   1.038  0.6042  0.6013  0.1443
 3843TIP3    H111493   5.280   0.217   1.086  0.7848 -0.8025  1.1615
 3843TIP3    H211494   5.430   0.241   1.085  0.6583 -0.0006  0.6729
 3844TIP3   OH211495   4.677   1.430   5.801  0.7388 -0.2523  0.2721
 3844TIP3    H111496   4.697   1.348   5.755  2.3475 -0.3374  1.0636
 3844TIP3    H211497   4.690   1.409   5.894  1.2807  0.9168  0.4745
 3845TIP3   OH211498   1.081   4.501   0.564  0.2229  0.5446  0.6169
 3845TIP3    H111499   1.065   4.577   0.508 -1.2236  1.2872  1.9713
 3845TIP3    H211500   1.122   4.537   0.643  1.3185 -0.3572  0.4904
 3846TIP3   OH211501   1.946   1.547   3.550  0.0154 -0.3792  0.2940
 3846TIP3    H111502   1.872   1.599   3.580  0.8665  0.7748  0.4873
 3846TIP3    H211503   1.990   1.520   3.631  0.1788 -0.4765  0.1744
 3847TIP3   OH211504   5.685   3.377   5.769 -0.7047 -0.3146 -0.3750
 3847TIP3    H111505   5.731   3.308   5.722 -2.4510 -0.9400 -1.2584
 3847TIP3    H211506   5.655   3.437   5.701 -0.0464  0.8144  0.3044
 3848TIP3   OH211507   2.808   1.091   0.445 -0.1638 -0.3075 -0.8293
 3848TIP3    H111508   2.870   1.046   0.501  0.9227  2.1709  0.1252
 3848TIP3    H211509   2.722   1.073   0.485  0.4029 -0.1540  0.5198
 3849TIP3   OH211510   5.799   2.870   2.345  0.3557  0.2633  0.0195
 3849TIP3    H111511   5.764   2.795   2.297  0.4023 -1.0609  1.9137
 3849TIP3    H211512   5.865   2.832   2.404  1.8761  2.0905 -0.3780
 3850TIP3   OH211513   5.616   1.154   1.864 -0.1792  0.2805  0.0788
 3850TIP3    H111514   5.526   1.133   1.891  0.8704 -1.4676  2.5940
 3850TIP3    H211515   5.645   1.077   1.815  0.8829 -0.5296  1.9038
 3851TIP3   OH211516   1.870   4.589   2.694 -0.1080 -0.3819 -0.1074
 3851TIP3    H111517   1.867   4.520   2.628  0.4391 -0.9049  0.3981
 3851TIP3    H211518   1.899   4.667   2.647 -0.5240 -0.5490 -0.6407
 3852TIP3   OH211519   3.282   3.212   2.390  0.1277 -0.3149  0.5859
 3852TIP3    H111520   3.276   3.133   2.444  3.2951 -1.2476 -0.1882
 3852TIP3    H211521   3.297   3.283   2.453  1.3459 -1.0124  1.1226
 3853TIP3   OH211522   0.305   0.073   5.839 -0.4279 -0.2195 -0.2275
 3853TIP3    H111523   0.259   0.049   5.759  0.7395 -1.5067 -0.5516
 3853TIP3    H211524   0.250   0.140   5.879 -0.1808  1.8360 -3.0041
 3854TIP3   OH211525   1.512   4.792   2.199 -0.2224 -0.3926  0.7517
 3854TIP3    H111526   1.511   4.828   2.288  2.9261  1.7057  0.1022
 3854TIP3    H211527   1.573   4.718   2.204 -0.0413 -0.2713  0.3267
 3855TIP3   OH211528   7.060   1.910   5.392 -0.3187 -0.1644 -0.4265
 3855TIP3    H111529   7.134   1.859   5.359  0.0350  0.2350 -0.2651
 3855TIP3    H211530   6.983   1.861   5.365  0.0025 -0.5200 -0.7114
 3856TIP3   OH211531   4.789   3.604   0.245  0.0315  0.5770 -0.1744
 3856TIP3    H111532   4.824   3.656   0.173  0.4626  0.3876 -0.1018
 3856TIP3    H211533   4.708   3.649   0.269 -0.6932  0.0359 -1.4968
 3857TIP3   OH211534   3.108   1.096   3.090  0.4564  0.6622 -0.3073
 3857TIP3    H111535   3.146   1.044   3.161 -1.6181  2.9606  2.7591
 3857TIP3    H211536   3.171   1.167   3.077  0.8486  0.2276 -0.8355
 3858TIP3   OH211537   2.357   5.479   1.973  0.5110  0.4656 -0.0237
 3858TIP3    H111538   2.268   5.446   1.958  0.5207  0.8046 -0.8755
 3858TIP3    H211539   2.353   5.519   2.060 -0.6083  1.8412 -0.6619
 3859TIP3   OH211540   3.601   0.935   4.666 -0.0538 -0.7354  0.0631
 3859TIP3    H111541   3.530   0.946   4.729 -0.5045 -0.6893 -0.4537
 3859TIP3    H211542   3.621   0.841   4.667 -1.1537 -0.9980 -0.9041
 3860TIP3   OH211543   4.838   2.249   1.778 -0.5343 -0.0823 -0.7278
 3860TIP3    H111544   4.863   2.314   1.843 -1.3115  0.9354 -1.4090
 3860TIP3    H211545   4.753   2.217   1.808 -1.6989  1.5818 -2.0155
 3861TIP3   OH211546   3.160   0.336   5.351  0.3899  0.6158  0.3503
 3861TIP3    H111547   3.232   0.276   5.372  0.3392 -0.3509 -1.9266
 3861TIP3    H211548   3.204   0.419   5.329  0.6405  0.6769  1.0697
 3862TIP3   OH211549   3.228   2.882   3.269 -0.2472  1.0566 -0.3204
 3862TIP3    H111550   3.140   2.917   3.262  0.0081  1.6476 -0.6406
 3862TIP3    H211551   3.216   2.789   3.289 -0.9426  1.0303 -0.8362
 3863TIP3   OH211552   3.294   3.051   3.057 -0.2925 -0.4416 -0.4324
 3863TIP3    H111553   3.240   3.127   3.078  2.3278  1.5069 -0.2842
 3863TIP3    H211554   3.280   2.990   3.130  0.2127  1.4471  1.3225
 3864TIP3   OH211555   7.220   0.499   1.233  0.2103 -0.6874  0.1495
 3864TIP3    H111556   7.126   0.507   1.214  0.3311  0.1139 -0.1457
 3864TIP3    H211557   7.256   0.456   1.155  0.3112  0.3483 -0.3939
 3865TIP3   OH211558   6.380   5.962   4.438 -0.0479 -0.1925 -0.3806
 3865TIP3    H111559   6.419   5.889   4.486  1.7265  1.2606  0.5172
 3865TIP3    H211560   6.364   5.927   4.350 -2.3446 -2.5954  0.8428
 3866TIP3   OH211561   4.274   4.447   1.554  0.1351  0.2418  0.2065
 3866TIP3    H111562   4.267   4.389   1.478  1.6722  0.3462 -0.0524
 3866TIP3    H211563   4.339   4.405   1.610 -0.4853  0.5189  1.1530
 3867TIP3   OH211564   4.555   6.074   1.369  0.1553 -0.0083  0.1549
 3867TIP3    H111565   4.467   6.046   1.395  0.3818 -0.4716  0.4291
 3867TIP3    H211566   4.541   6.155   1.320 -0.3459  0.5059  1.1026
 3868TIP3   OH211567   0.277   5.108   3.389  0.4606 -0.4555 -0.1469
 3868TIP3    H111568   0.242   5.041   3.331 -4.1532  1.3021  0.2399
 3868TIP3    H211569   0.264   5.073   3.477  0.2046  0.0264  0.0070
 3869TIP3   OH211570   2.186   0.888   0.535  0.2199  0.4611 -0.5576
 3869TIP3    H111571   2.246   0.903   0.462  0.7756 -1.0589 -0.4422
 3869TIP3    H211572   2.099   0.896   0.496  0.5135 -0.3957 -1.4204
 3870TIP3   OH211573   5.089   6.296   1.927 -0.1945 -0.3338  0.0463
 3870TIP3    H111574   5.036   6.302   2.007 -0.2425 -0.5301  0.0295
 3870TIP3    H211575   5.030   6.258   1.862 -0.2188  0.0196 -0.1405
 3871TIP3   OH211576   5.622   5.342   0.998  0.3437  0.1144 -0.0027
 3871TIP3    H111577   5.643   5.258   0.958  1.6476  1.6748 -2.9034
 3871TIP3    H211578   5.528   5.338   1.014  0.4307 -1.9698  0.2935
 3872TIP3   OH211579   1.017   6.180   4.938  0.5175  0.5112  0.0549
 3872TIP3    H111580   1.067   6.109   4.897  2.2275  1.0933  1.0124
 3872TIP3    H211581   0.966   6.137   5.007 -0.1385 -0.0683 -0.7836
 3873TIP3   OH211582   4.394   1.886   1.785 -0.0930 -0.0761  0.1985
 3873TIP3    H111583   4.322   1.902   1.847  0.2729  0.2569  0.5447
 3873TIP3    H211584   4.399   1.791   1.778 -0.7396 -0.0973 -0.0339
 3874TIP3   OH211585   5.284   5.586   5.622  0.1925  0.3768 -0.1427
 3874TIP3    H111586   5.287   5.569   5.528  1.6022  1.8178 -0.3946
 3874TIP3    H211587   5.306   5.678   5.631  1.6517 -0.0804  1.7041
 3875TIP3   OH211588   0.200   3.142   2.735 -0.2999  0.2047  0.2350
 3875TIP3    H111589   0.137   3.169   2.668 -0.0068 -0.6802 -0.4197
 3875TIP3    H211590   0.150   3.145   2.817 -1.3252 -0.8495 -0.3215
 3876TIP3   OH211591   7.097   1.696   0.465  0.0493 -0.1268  0.1131
 3876TIP3    H111592   7.128   1.616   0.421 -1.3079 -0.1250 -0.9307
 3876TIP3    H211593   7.129   1.688   0.555 -0.8694 -2.3545  0.3213
 3877TIP3   OH211594   3.200   3.408   5.143  0.0633 -0.3204  0.3704
 3877TIP3    H111595   3.167   3.406   5.232  0.1600 -0.7729  0.4031
 3877TIP3    H211596   3.278   3.464   5.146  0.6503 -1.1390  0.7865
 3878TIP3   OH211597   5.068   2.449   4.778 -0.0813  0.5490 -0.4226
 3878TIP3    H111598   4.974   2.465   4.779 -0.2207 -0.1979  0.3728
 3878TIP3    H211599   5.102   2.499   4.852 -0.1681 -0.7646  0.5484
 3879TIP3   OH211600   3.163   6.712   1.352 -0.2142 -0.4457  0.7615
 3879TIP3    H111601   3.118   6.692   1.270  1.2851 -0.9754  0.0215
 3879TIP3    H211602   3.242   6.758   1.325  0.1323 -0.3051  1.9483
 3880TIP3   OH211603   0.498   4.768   4.125  0.4577 -0.5471  0.1225
 3880TIP3    H111604   0.568   4.829   4.100 -1.1525  1.9481  1.2094
 3880TIP3    H211605   0.444   4.760   4.046 -0.8085  1.7556  0.6516
 3881TIP3   OH211606   3.166   1.782   0.262 -0.1747 -0.3185 -0.9486
 3881TIP3    H111607   3.189   1.875   0.253  0.7934 -0.4215  0.1557
 3881TIP3    H211608   3.222   1.737   0.199  1.7044 -0.4129  0.6696
 3882TIP3   OH211609   3.545   3.939   2.792 -0.1024 -0.2949  0.1508
 3882TIP3    H111610   3.502   3.997   2.729 -1.3444 -1.4946 -0.1562
 3882TIP3    H211611   3.472   3.896   2.837  0.7825 -0.2571  1.6629
 3883TIP3   OH211612   1.394   2.791   3.221  0.7515  0.6611  0.0248
 3883TIP3    H111613   1.366   2.881   3.234  3.8638  1.5980  1.2156
 3883TIP3    H211614   1.456   2.795   3.149 -0.4011 -0.9021 -1.1229
 3884TIP3   OH211615   1.021   3.729   4.393 -0.1946 -0.5143  0.5588
 3884TIP3    H111616   1.114   3.746   4.380 -0.1526 -0.8008  0.4830
 3884TIP3    H211617   1.018   3.645   4.439 -0.4247 -0.6368  0.3230
 3885TIP3   OH211618   0.749   2.258   1.049 -0.2101  0.2780  0.3093
 3885TIP3    H111619   0.788   2.330   0.999  2.0920  0.3912  2.0582
 3885TIP3    H211620   0.800   2.256   1.131 -2.0651 -1.5475  1.5143
 3886TIP3   OH211621   3.147   2.345   1.502 -0.0677 -0.0175 -0.7181
 3886TIP3    H111622   3.222   2.286   1.513 -1.1577 -1.0543  2.6070
 3886TIP3    H211623   3.174   2.426   1.545 -0.1070  0.3898 -1.4481
 3887TIP3   OH211624   1.705   4.079   3.344 -0.1116  0.0039 -0.7385
 3887TIP3    H111625   1.720   4.082   3.438  0.2147 -1.5884 -0.7105
 3887TIP3    H211626   1.698   3.985   3.324  1.6531  0.1846 -2.5476
 3888TIP3   OH211627   0.032   1.221   3.248 -0.5219 -0.1849 -0.4009
 3888TIP3    H111628  -0.062   1.237   3.257 -0.3264  2.5081 -2.1298
 3888TIP3    H211629   0.044   1.200   3.156  0.4938 -1.5473  0.0093
 3889TIP3   OH211630   4.356   0.233   0.539  0.3668 -0.0594  0.2426
 3889TIP3    H111631   4.397   0.151   0.567  0.6248  0.3825  1.2110
 3889TIP3    H211632   4.278   0.206   0.491 -0.4256 -0.8749  1.8994
 3890TIP3   OH211633   0.940   1.786   5.018  0.4561  0.3800  0.2757
 3890TIP3    H111634   1.027   1.747   5.014  0.5222  0.3777  1.3302
 3890TIP3    H211635   0.941   1.857   4.954  1.4848  0.8648  0.8118
 3891TIP3   OH211636   0.275   3.428   3.070  0.0636 -0.1512 -0.0933
 3891TIP3    H111637   0.200   3.389   3.115  0.1375 -0.3904 -0.1806
 3891TIP3    H211638   0.307   3.494   3.131 -0.9412  0.7892 -0.5280
 3892TIP3   OH211639   3.474   0.962   5.764 -0.0685  0.4749  0.4256
 3892TIP3    H111640   3.496   0.932   5.676  2.0766  0.9773  0.7194
 3892TIP3    H211641   3.398   1.019   5.753  0.8110  1.3847 -1.2812
 3893TIP3   OH211642   4.082   1.890   0.239  0.4121 -0.3750 -0.2820
 3893TIP3    H111643   4.058   1.807   0.279 -1.2701 -0.6434 -1.7112
 3893TIP3    H211644   4.069   1.876   0.145  0.6848  1.3235 -0.6027
 3894TIP3   OH211645   3.118   4.652   1.018  0.1622  0.0411 -0.5715
 3894TIP3    H111646   3.111   4.557   1.010 -1.8864  0.1267 -0.5357
 3894TIP3    H211647   3.042   4.676   1.072  0.3996  1.7323 -0.9528
 3895TIP3   OH211648   4.153   2.404   4.099  0.1656  0.1082  0.2310
 3895TIP3    H111649   4.211   2.424   4.026  1.3432 -0.5693  0.9613
 3895TIP3    H211650   4.077   2.460   4.084  0.7099  0.5445 -1.0893
 3896TIP3   OH211651   1.236   2.272   0.955  0.2203  0.3297  0.4304
 3896TIP3    H111652   1.198   2.356   0.982  1.6000  0.7141  1.3128
 3896TIP3    H211653   1.321   2.269   1.000  0.2951 -1.4460  0.2377
 3897TIP3   OH211654   0.141   5.945   2.297 -0.2459  0.2897  0.0459
 3897TIP3    H111655   0.096   5.967   2.378 -3.3935 -2.0598 -0.8772
 3897TIP3    H211656   0.121   6.017   2.237 -0.2992  0.6540  0.5002
 3898TIP3   OH211657   3.799   2.995   5.570  0.1338 -0.2698  0.4777
 3898TIP3    H111658   3.871   2.967   5.514 -2.0296 -2.4301 -1.4765
 3898TIP3    H211659   3.771   2.916   5.615 -1.1990  0.4565  0.9851
 3899TIP3   OH211660   4.263   0.644   1.600 -0.3558 -0.2822 -0.4232
 3899TIP3    H111661   4.245   0.566   1.548  1.3170 -1.2332  0.3238
 3899TIP3    H211662   4.269   0.715   1.536 -2.4480 -0.6250 -1.0653
 3900TIP3   OH211663   3.895   0.651   0.859  0.8154  0.0662  0.3303
 3900TIP3    H111664   3.988   0.653   0.836  0.7438 -0.1338  0.0065
 3900TIP3    H211665   3.891   0.681   0.949  1.4597 -2.1482  1.1622
 3901TIP3   OH211666   3.194   1.087   3.577  0.1845 -0.9436  0.4078
 3901TIP3    H111667   3.177   0.993   3.570  0.7145 -1.0621  0.6416
 3901TIP3    H211668   3.222   1.100   3.668  0.6254 -0.6437  0.2302
 3902TIP3   OH211669   3.644   0.290   5.592  0.3346  0.2129 -0.0100
 3902TIP3    H111670   3.560   0.337   5.584  0.1858 -0.1900 -1.0288
 3902TIP3    H211671   3.682   0.323   5.673 -0.1619  1.4532 -0.2505
 3903TIP3   OH211672   6.302   6.344   2.526  0.3338  0.6589 -0.1568
 3903TIP3    H111673   6.254   6.331   2.608  0.2612  1.3413 -0.0901
 3903TIP3    H211674   6.264   6.281   2.465  1.1260 -0.6417  0.6447
 3904TIP3   OH211675   5.499   0.216   2.958 -0.1261  0.7468  0.0383
 3904TIP3    H111676   5.426   0.162   2.990  1.1902 -2.0904 -1.3376
 3904TIP3    H211677   5.576   0.180   3.002  0.8791  1.0892 -1.3650
 3905TIP3   OH211678   1.529   0.331   1.221  0.1480  0.2604  0.3194
 3905TIP3    H111679   1.494   0.412   1.183  1.3338  1.3984  1.5437
 3905TIP3    H211680   1.618   0.354   1.249  0.6304 -1.5641  0.4244
 3906TIP3   OH211681   1.123   2.329   0.626  0.5473 -0.4202 -0.5040
 3906TIP3    H111682   1.110   2.259   0.563  1.8490 -1.1644 -0.0011
 3906TIP3    H211683   1.205   2.371   0.598 -0.2899  1.0145 -0.8838
 3907TIP3   OH211684   3.831   1.645   0.667 -0.4267 -0.0243 -0.4725
 3907TIP3    H111685   3.741   1.663   0.692  0.0357  1.8385 -0.0123
 3907TIP3    H211686   3.884   1.702   0.723  0.9568  0.0097 -1.7559
 3908TIP3   OH211687   4.088   4.173   3.675  0.0862 -0.6522 -0.0563
 3908TIP3    H111688   4.111   4.088   3.711 -0.8690 -0.5912  0.7390
 3908TIP3    H211689   3.994   4.180   3.687  0.0038  0.1334 -0.9640
 3909TIP3   OH211690   0.627   6.298   5.376  0.4602  0.5207 -0.3534
 3909TIP3    H111691   0.591   6.221   5.332 -0.3242  0.5797  0.1693
 3909TIP3    H211692   0.698   6.327   5.318 -0.8675  0.8870 -1.8608
 3910TIP3   OH211693   0.266   3.711   1.712  0.5689  0.5515  0.0555
 3910TIP3    H111694   0.223   3.626   1.716 -2.5311  1.7475 -2.7502
 3910TIP3    H211695   0.216   3.766   1.772  2.1113  0.6295  1.3235
 3911TIP3   OH211696   1.404   6.449   4.052  0.0648 -0.0240 -0.0928
 3911TIP3    H111697   1.492   6.484   4.040 -0.0189  0.1337 -0.2551
 3911TIP3    H211698   1.394   6.384   3.982 -0.6367  1.3092 -1.3055
 3912TIP3   OH211699   1.854   5.470   4.873 -0.5284 -0.7636  0.8226
 3912TIP3    H111700   1.834   5.472   4.779  0.1557 -0.1416  0.6824
 3912TIP3    H211701   1.775   5.506   4.914 -0.0945  0.7954  0.3400
 3913TIP3   OH211702   1.178   3.874   0.381 -0.0270 -0.6299 -0.2819
 3913TIP3    H111703   1.222   3.927   0.447 -0.6123 -1.5110  0.8674
 3913TIP3    H211704   1.164   3.789   0.425 -0.9164 -1.0593 -1.3563
 3914TIP3   OH211705   5.848   5.133   2.493 -0.8000 -0.5292 -0.3530
 3914TIP3    H111706   5.755   5.151   2.486 -0.7368 -0.3421 -0.7812
 3914TIP3    H211707   5.855   5.066   2.561 -1.2457 -0.5548 -0.3299
 3915TIP3   OH211708   5.797   2.241   3.378  0.3069  0.2076 -0.3145
 3915TIP3    H111709   5.710   2.273   3.354 -0.4899 -0.7395  1.1486
 3915TIP3    H211710   5.818   2.177   3.310 -0.5569 -0.2054 -0.2150
 3916TIP3   OH211711   4.365   4.405   1.032 -0.1932 -0.5498 -0.1570
 3916TIP3    H111712   4.395   4.487   0.993 -0.5125  1.1528  2.8787
 3916TIP3    H211713   4.270   4.413   1.037 -0.2328 -1.1208  0.1079
 3917TIP3   OH211714   1.497   4.596   5.057  0.1829  0.0590 -0.4261
 3917TIP3    H111715   1.524   4.548   5.135 -0.9486 -0.6413 -0.4435
 3917TIP3    H211716   1.577   4.637   5.025  0.9076 -0.6951  0.3750
 3918TIP3   OH211717   3.804   5.847   2.820  0.0735  0.1213 -0.5995
 3918TIP3    H111718   3.726   5.813   2.776  0.4486 -2.6517  0.6800
 3918TIP3    H211719   3.772   5.874   2.907  0.2637  0.5254 -0.6530
 3919TIP3   OH211720   2.596   4.861   4.588  0.0696  0.4073  0.2462
 3919TIP3    H111721   2.677   4.862   4.638  0.3975  0.9183 -0.2885
 3919TIP3    H211722   2.528   4.840   4.652  0.7046 -0.7330  0.5648
 3920TIP3   OH211723   0.065   6.635   0.947 -0.1770 -0.4943  0.6811
 3920TIP3    H111724   0.010   6.677   1.014 -0.8450  0.9256 -0.6923
 3920TIP3    H211725   0.127   6.702   0.921 -1.3200 -0.2289 -1.6404
 3921TIP3   OH211726   0.968   2.464   4.420  0.0792  0.8208 -0.2675
 3921TIP3    H111727   1.034   2.407   4.381  0.7874  0.9148  0.7611
 3921TIP3    H211728   0.976   2.546   4.371  1.4476  1.1753  0.4845
 3922TIP3   OH211729   6.636   6.137   0.452  0.3243 -0.1095 -0.4949
 3922TIP3    H111730   6.710   6.146   0.512  1.2946  3.5254 -1.9806
 3922TIP3    H211731   6.559   6.154   0.506  0.9143  0.0962  0.3025
 3923TIP3   OH211732   3.208   3.945   0.129 -0.2373 -0.8565  0.0551
 3923TIP3    H111733   3.146   4.016   0.111 -1.6362 -2.2437 -0.9138
 3923TIP3    H211734   3.243   3.922   0.042  1.2789 -0.4417  0.5302
 3924TIP3   OH211735   2.904   1.695   2.552  0.0010 -0.1182  0.0312
 3924TIP3    H111736   2.981   1.638   2.554  0.2342  0.1229 -1.2093
 3924TIP3    H211737   2.830   1.635   2.564  0.3943 -0.1765  2.8257
 3925TIP3   OH211738   3.326   0.522   2.576 -0.4266 -0.4208 -0.2746
 3925TIP3    H111739   3.315   0.607   2.618  0.6442  0.2982 -1.3542
 3925TIP3    H211740   3.421   0.508   2.575 -0.6248 -1.9345  0.4461
 3926TIP3   OH211741   6.994   3.663   3.134 -0.0804 -0.1412  0.4410
 3926TIP3    H111742   6.990   3.752   3.100 -2.5527 -0.1708  0.4557
 3926TIP3    H211743   7.050   3.616   3.072 -2.1387  0.4842 -2.0591
 3927TIP3   OH211744   0.813   4.023   5.522 -0.2307  0.1695 -0.5870
 3927TIP3    H111745   0.865   4.065   5.590 -2.1615  0.9576  0.4660
 3927TIP3    H211746   0.845   3.933   5.520  0.6273  0.4313  0.5819
 3928TIP3   OH211747   4.160   3.013   3.230 -0.1942  0.1892  0.2945
 3928TIP3    H111748   4.225   3.018   3.160 -0.0431 -0.3110  0.3952
 3928TIP3    H211749   4.190   3.076   3.295 -0.7005  1.1652 -0.3759
 3929TIP3   OH211750   5.221   0.860   1.958 -0.4440 -0.3485  0.2504
 3929TIP3    H111751   5.207   0.868   2.052  0.5513 -0.7359  0.4477
 3929TIP3    H211752   5.315   0.841   1.949 -1.0546 -3.6458 -0.6104
 3930TIP3   OH211753   6.225   5.205   5.223 -0.4207 -0.2063 -0.2843
 3930TIP3    H111754   6.163   5.273   5.252  0.0959  0.9628 -1.7967
 3930TIP3    H211755   6.196   5.126   5.269 -1.3099  0.9185  1.2067
 3931TIP3   OH211756   4.768   3.987   5.215  0.1222 -0.6878 -0.1498
 3931TIP3    H111757   4.679   3.956   5.231  0.5698 -0.9830  2.0135
 3931TIP3    H211758   4.800   3.933   5.143 -0.9304 -1.5954  0.0464
 3932TIP3   OH211759   5.479   5.752   5.780 -0.1107 -0.7806 -0.0500
 3932TIP3    H111760   5.455   5.823   5.722 -1.0307 -1.1838 -0.1867
 3932TIP3    H211761   5.529   5.691   5.726  1.2071  0.0336  0.2171
 3933TIP3   OH211762   6.964   0.812   2.008  0.1547 -0.1868  0.3325
 3933TIP3    H111763   7.016   0.798   1.930 -0.3739 -0.2047 -0.0231
 3933TIP3    H211764   6.977   0.732   2.060  0.3812 -0.2428  0.1916
 3934TIP3   OH211765   1.432   5.679   5.616 -0.3252  0.1441 -0.2970
 3934TIP3    H111766   1.488   5.668   5.693  0.7514 -0.0857 -1.0814
 3934TIP3    H211767   1.376   5.753   5.638  0.4607  0.5482  0.4280
 3935TIP3   OH211768   3.165   1.202   4.238 -0.1080 -0.1909 -0.0147
 3935TIP3    H111769   3.191   1.292   4.256  0.5687  0.2455 -2.7351
 3935TIP3    H211770   3.072   1.199   4.262 -1.4144  2.6093 -3.7145
 3936TIP3   OH211771   0.670   0.299   5.000 -0.2773  0.0070  0.1102
 3936TIP3    H111772   0.582   0.336   5.000  0.2456  1.3960  1.4815
 3936TIP3    H211773   0.663   0.220   4.948 -2.4314 -0.1360  0.5141
 3937TIP3   OH211774   5.145   0.273   1.230 -0.0267  0.1431 -0.1108
 3937TIP3    H111775   5.198   0.208   1.276  0.7150 -0.3376 -1.5673
 3937TIP3    H211776   5.113   0.331   1.299  3.5774  1.3201  0.8083
 3938TIP3   OH211777   3.783   6.740   4.104  0.0846 -0.3474 -0.1711
 3938TIP3    H111778   3.808   6.667   4.160  1.1707  0.3046  0.2181
 3938TIP3    H211779   3.861   6.797   4.101 -0.2603  0.1123 -1.5610
 3939TIP3   OH211780   2.029   3.458   1.398  0.2061 -0.2571  0.1778
 3939TIP3    H111781   2.110   3.467   1.449 -0.2066 -2.4406  1.3421
 3939TIP3    H211782   1.960   3.484   1.458 -0.0988 -0.1851 -0.2020
 3940TIP3   OH211783   7.115   4.545   2.763 -0.2122  0.7387 -0.3041
 3940TIP3    H111784   7.199   4.543   2.810  0.5179  2.0537 -1.4765
 3940TIP3    H211785   7.052   4.507   2.824  1.1686  0.0352  0.7361
 3941TIP3   OH211786   2.141   5.855   3.248  0.1180  0.4080  0.2755
 3941TIP3    H111787   2.175   5.766   3.238 -0.4122  0.1826  0.4320
 3941TIP3    H211788   2.089   5.852   3.328  1.1404  1.1990  0.9897
 3942TIP3   OH211789   3.314   2.611   0.941 -0.0259  0.0947 -0.1820
 3942TIP3    H111790   3.319   2.704   0.920 -0.4728 -0.4832 -3.5134
 3942TIP3    H211791   3.242   2.605   1.004 -0.4479  1.9567 -0.4082
 3943TIP3   OH211792   3.638   0.618   2.758  0.4988  0.5177 -0.1582
 3943TIP3    H111793   3.631   0.547   2.695 -0.2955 -0.1990  0.7177
 3943TIP3    H211794   3.622   0.697   2.706 -0.6043 -0.0894 -0.7901
 3944TIP3   OH211795   1.802   6.159   1.805 -0.0874 -0.7106 -0.3939
 3944TIP3    H111796   1.772   6.220   1.738 -0.9568  0.7482  1.2278
 3944TIP3    H211797   1.745   6.083   1.797 -0.9371 -0.0633 -0.5881
 3945TIP3   OH211798   1.014   3.810   2.622 -0.1668 -0.2594  0.6968
 3945TIP3    H111799   0.933   3.789   2.576 -0.3376  0.2090  0.7785
 3945TIP3    H211800   0.987   3.835   2.710  0.0801 -0.2618  0.7761
 3946TIP3   OH211801   2.392   2.795   0.207  0.5115  0.3243 -0.0065
 3946TIP3    H111802   2.326   2.827   0.268  0.8493  0.5027  0.2712
 3946TIP3    H211803   2.382   2.700   0.208 -0.4041  0.4078 -0.7271
 3947TIP3   OH211804   1.534   3.461   0.343 -0.0432 -0.3690 -0.6722
 3947TIP3    H111805   1.533   3.370   0.315  0.6863  0.1477 -2.4853
 3947TIP3    H211806   1.575   3.509   0.271  1.2002  1.1701  0.9425
 3948TIP3   OH211807   7.137   3.892   0.239 -0.1840  0.0423 -0.1136
 3948TIP3    H111808   7.166   3.806   0.209  3.2562  1.2011 -0.4684
 3948TIP3    H211809   7.129   3.883   0.334  1.8453 -0.2884  0.0583
 3949TIP3   OH211810   4.259   2.277   5.138 -0.2184 -0.1403 -0.2374
 3949TIP3    H111811   4.331   2.303   5.080  1.4880 -0.7514  1.5132
 3949TIP3    H211812   4.268   2.335   5.214 -0.0204 -1.8539  1.0966
 3950TIP3   OH211813   0.840   5.087   0.743  0.1662 -0.0587 -0.0940
 3950TIP3    H111814   0.867   5.008   0.697 -1.2090 -0.6568  0.0812
 3950TIP3    H211815   0.786   5.134   0.680  0.0606  0.1876  0.1784
 3951TIP3   OH211816   4.137   0.578   0.771 -0.3549  0.2560  0.0517
 3951TIP3    H111817   4.127   0.593   0.677 -0.2208  1.4226  0.2129
 3951TIP3    H211818   4.110   0.487   0.783 -0.8679  0.2427 -1.0365
 3952TIP3   OH211819   3.022   3.281   2.297  0.4700 -0.0732  0.2849
 3952TIP3    H111820   2.973   3.329   2.231  1.7136  0.8528  0.0001
 3952TIP3    H211821   3.108   3.268   2.258  0.6841 -1.0607  1.0444
 3953TIP3   OH211822   0.168   2.956   4.311  0.3324  0.0462  0.0832
 3953TIP3    H111823   0.156   2.870   4.270 -0.4014  0.5813 -0.8688
 3953TIP3    H211824   0.089   3.005   4.288  1.0153  1.1947  0.0891
 3954TIP3   OH211825   6.041   1.972   5.756  0.2156 -0.0918  0.5302
 3954TIP3    H111826   6.016   2.056   5.796  1.5181 -0.0837  1.3736
 3954TIP3    H211827   5.960   1.921   5.757 -0.0111  0.1858  2.5410
 3955TIP3   OH211828   4.756   4.687   2.817 -0.1413 -0.1254  0.2535
 3955TIP3    H111829   4.780   4.753   2.752  0.4213 -0.2548  0.3170
 3955TIP3    H211830   4.815   4.614   2.800  0.8556  0.2947  1.6388
 3956TIP3   OH211831   5.698   2.452   5.591  0.0553 -0.5123 -0.6908
 3956TIP3    H111832   5.729   2.529   5.542  1.4208 -0.9125 -0.5030
 3956TIP3    H211833   5.603   2.455   5.581  0.0996  0.9533 -1.0632
 3957TIP3   OH211834   3.420   3.945   2.386 -0.3738  0.5389 -0.6149
 3957TIP3    H111835   3.412   4.006   2.313 -2.7440  0.2223 -0.7078
 3957TIP3    H211836   3.376   3.989   2.459  0.4823  0.1421  0.1611
 3958TIP3   OH211837   5.699   6.155   3.363 -0.1699  0.3972  0.2617
 3958TIP3    H111838   5.716   6.248   3.347 -1.8482  0.8715  0.9844
 3958TIP3    H211839   5.632   6.132   3.299  0.8052 -0.5652 -0.4506
 3959TIP3   OH211840   2.786   0.989   5.279 -0.5309  0.5997 -0.0652
 3959TIP3    H111841   2.691   0.983   5.269 -0.4695  1.2407 -1.2789
 3959TIP3    H211842   2.803   0.967   5.371 -1.9111  1.1870  0.3452
 3960TIP3   OH211843   3.375   5.383   5.169  0.1983 -0.2189 -0.9092
 3960TIP3    H111844   3.457   5.392   5.121  0.9482 -0.4705  0.2723
 3960TIP3    H211845   3.345   5.473   5.183  0.9950 -0.0463 -0.1909
 3961TIP3   OH211846   5.976   5.378   5.020 -0.2574  0.2543 -0.2917
 3961TIP3    H111847   6.039   5.443   5.051  0.7230  0.0915 -1.8144
 3961TIP3    H211848   5.962   5.401   4.928  1.4339 -2.6157 -1.4073
 3962TIP3   OH211849   7.016   5.699   2.444 -0.2242  0.4231 -0.1403
 3962TIP3    H111850   7.012   5.654   2.360  0.7570 -0.7846  0.4274
 3962TIP3    H211851   6.934   5.674   2.488  0.3639 -0.9751  0.2222
 3963TIP3   OH211852   5.434   6.700   4.518 -0.0633 -0.6528 -0.1251
 3963TIP3    H111853   5.463   6.707   4.427  1.7313 -2.4198  0.2668
 3963TIP3    H211854   5.494   6.638   4.559 -0.6001  0.3377  2.3836
 3964TIP3   OH211855   6.659   1.745   4.208 -0.3754 -0.7434  0.0781
 3964TIP3    H111856   6.639   1.722   4.299 -1.1117  0.1535  0.1672
 3964TIP3    H211857   6.737   1.694   4.187  0.2195 -0.4522  1.4412
 3965TIP3   OH211858   3.320   0.632   0.419 -0.5175  0.0779 -0.6297
 3965TIP3    H111859   3.379   0.612   0.492 -1.1645 -2.1625 -0.6312
 3965TIP3    H211860   3.370   0.693   0.364  0.6828  0.4022  0.7605
 3966TIP3   OH211861   5.406   2.419   4.005  0.0004 -0.5676 -0.3589
 3966TIP3    H111862   5.321   2.456   3.982 -0.1416 -0.9248 -0.4088
 3966TIP3    H211863   5.389   2.366   4.083  0.6057  1.2348  1.0888
 3967TIP3   OH211864   1.745   4.733   5.077 -0.6896  0.2242  0.2087
 3967TIP3    H111865   1.808   4.672   5.038  0.9723  1.9547  0.0078
 3967TIP3    H211866   1.790   4.768   5.153 -1.7237  0.9625  0.4959
 3968TIP3   OH211867   1.430   6.281   3.154 -0.1131 -0.4598 -0.0744
 3968TIP3    H111868   1.374   6.353   3.124  1.4127  0.9544  0.3157
 3968TIP3    H211869   1.416   6.212   3.090  0.3999  1.1962 -2.0939
 3969TIP3   OH211870   3.940   2.273   2.242 -0.4836 -0.3644 -0.2531
 3969TIP3    H111871   3.900   2.302   2.324  1.2096  0.1228  0.4345
 3969TIP3    H211872   3.903   2.332   2.176 -1.4850 -0.4418  0.2244
 3970TIP3   OH211873   5.883   6.355   2.721 -0.4419 -0.3811  0.6548
 3970TIP3    H111874   5.814   6.315   2.668  0.1241 -0.6304  0.0963
 3970TIP3    H211875   5.841   6.373   2.805 -1.8449  1.5734 -0.3830
 3971TIP3   OH211876   6.811   5.954   0.259  0.3396  0.4439 -0.2459
 3971TIP3    H111877   6.721   5.978   0.280  0.0349 -0.4444 -0.4786
 3971TIP3    H211878   6.862   5.985   0.333 -0.1569  0.9572 -0.1106
 3972TIP3   OH211879   3.715   1.717   3.083  0.2457  0.0886 -0.4633
 3972TIP3    H111880   3.624   1.740   3.100 -0.3558 -0.6553 -2.4528
 3972TIP3    H211881   3.727   1.730   2.989  1.7793 -1.2033 -0.5009
 3973TIP3   OH211882   2.118   1.225   3.100  0.0987 -0.6367  0.0652
 3973TIP3    H111883   2.113   1.225   3.004 -0.5730  1.8565  0.0219
 3973TIP3    H211884   2.063   1.151   3.127  0.5317 -1.5644 -1.4498
 3974TIP3   OH211885   4.971   3.439   5.164 -0.0846  0.3637 -0.0252
 3974TIP3    H111886   4.898   3.479   5.212  0.5152  1.7247 -0.2134
 3974TIP3    H211887   4.932   3.411   5.081 -0.6390  0.0279  0.3397
 3975TIP3   OH211888   0.648   0.640   3.579  0.3242  0.5209  0.2221
 3975TIP3    H111889   0.570   0.679   3.618 -1.4825 -0.9610 -1.6440
 3975TIP3    H211890   0.656   0.554   3.621  2.3800  1.5080  2.0254
 3976TIP3   OH211891   2.083   3.479   0.729 -0.2126 -0.2260  0.2259
 3976TIP3    H111892   2.085   3.571   0.756 -0.1510 -0.2496  0.3033
 3976TIP3    H211893   1.995   3.466   0.695  0.1369  0.1674 -0.8745
 3977TIP3   OH211894   6.597   1.362   4.376 -0.4816 -0.4363  0.4023
 3977TIP3    H111895   6.578   1.421   4.449  1.2289  1.0039 -0.2325
 3977TIP3    H211896   6.693   1.356   4.374 -0.5506 -1.7357 -0.7383
 3978TIP3   OH211897   0.978   6.731   1.625 -0.0417 -0.2603 -0.0182
 3978TIP3    H111898   0.995   6.758   1.535 -0.9977 -1.3583 -0.5611
 3978TIP3    H211899   0.954   6.811   1.671  2.0267  0.5838 -0.3215
 3979TIP3   OH211900   5.430   1.266   2.197  0.2105  0.3179  1.0466
 3979TIP3    H111901   5.490   1.311   2.257  0.9786 -0.0178  0.5284
 3979TIP3    H211902   5.475   1.185   2.173 -0.0207  0.5169 -0.1021
 3980TIP3   OH211903   0.711   2.992   3.304 -0.4089 -0.2592 -0.1562
 3980TIP3    H111904   0.703   2.920   3.241 -2.6055 -2.0154  1.9263
 3980TIP3    H211905   0.783   2.966   3.362 -0.2059 -0.0343 -0.3098
 3981TIP3   OH211906   1.474   2.849   0.580 -0.2197 -0.1331  0.3801
 3981TIP3    H111907   1.444   2.894   0.659  1.0068  0.4505  0.5462
 3981TIP3    H211908   1.551   2.899   0.552  0.4046 -1.3600 -0.1908
 3982TIP3   OH211909   2.299   6.050   2.451 -0.7340  0.3089 -0.2466
 3982TIP3    H111910   2.263   6.020   2.368 -0.2634 -0.4758 -0.1839
 3982TIP3    H211911   2.282   5.978   2.512  0.5212  0.0839 -0.1159
 3983TIP3   OH211912   0.119   3.754   0.633  0.4106  0.3248 -0.1201
 3983TIP3    H111913   0.175   3.733   0.557 -0.8488 -0.1778 -0.9507
 3983TIP3    H211914   0.139   3.685   0.697  1.2661  0.5759 -0.1067
 3984TIP3   OH211915   2.916   4.258   1.754  0.5072  0.1801 -0.7413
 3984TIP3    H111916   2.854   4.314   1.801  1.6780  0.2634  0.7993
 3984TIP3    H211917   2.864   4.181   1.728 -0.6180  1.0043 -0.9940
 3985TIP3   OH211918   6.163   5.029   2.912  0.4793 -0.0613 -0.1733
 3985TIP3    H111919   6.121   4.943   2.908 -0.2520  0.2650  0.3936
 3985TIP3    H211920   6.249   5.011   2.951  0.2912 -0.5234  0.0364
 3986TIP3   OH211921   3.958   2.962   5.802  0.5752 -0.2422 -0.2276
 3986TIP3    H111922   3.874   3.007   5.806  1.6488  1.8150  1.4960
 3986TIP3    H211923   3.970   2.924   5.889  1.3351 -0.7282 -0.5227
 3987TIP3   OH211924   4.019   0.749   2.342 -0.2662  0.5902 -0.1044
 3987TIP3    H111925   3.996   0.671   2.392 -2.2284  1.7073  0.8610
 3987TIP3    H211926   3.964   0.743   2.263  0.4778  0.4066 -0.6167
 3988TIP3   OH211927   2.959   2.791   0.350 -0.1863  0.0028 -0.1516
 3988TIP3    H111928   2.984   2.730   0.419  2.5569  2.2113  1.0200
 3988TIP3    H211929   2.922   2.866   0.396  1.9489  1.6449 -0.9070
 3989TIP3   OH211930   2.376   5.473   0.622  0.2529  0.4551  0.3964
 3989TIP3    H111931   2.467   5.457   0.597 -0.1342 -0.8705 -0.2408
 3989TIP3    H211932   2.334   5.502   0.541  0.6293  3.6478  1.2259
 3990TIP3   OH211933   1.999   6.672   5.012  0.3297 -0.5290 -0.1860
 3990TIP3    H111934   1.990   6.693   4.919  2.2072  0.9726 -0.0854
 3990TIP3    H211935   1.998   6.577   5.015  1.9001 -0.6708 -1.9805
 3991TIP3   OH211936   4.850   4.324   3.015  0.0187 -0.1907 -0.4997
 3991TIP3    H111937   4.795   4.246   3.021  0.2617 -0.3529 -0.3457
 3991TIP3    H211938   4.931   4.293   2.975  0.7079 -0.3412  0.9657
 3992TIP3   OH211939   6.973   1.220   4.025  0.3162 -0.1774 -0.4081
 3992TIP3    H111940   6.911   1.229   3.953 -0.7097 -0.5995  0.3930
 3992TIP3    H211941   7.031   1.296   4.017 -0.3770  0.2888 -1.1123
 3993TIP3   OH211942   4.101   0.475   4.147  0.4753  0.1160 -0.2797
 3993TIP3    H111943   4.135   0.507   4.063 -0.0631 -0.5425 -0.7557
 3993TIP3    H211944   4.035   0.410   4.123 -1.9502  2.1109  0.5596
 3994TIP3   OH211945   2.503   3.124   4.990  0.7361  0.0177 -0.8147
 3994TIP3    H111946   2.486   3.093   5.079 -0.5698  1.4318 -0.5299
 3994TIP3    H211947   2.455   3.062   4.934  2.4547 -1.5311 -0.6630
 3995TIP3   OH211948   5.873   2.547   4.567 -0.1303 -0.3073 -0.0941
 3995TIP3    H111949   5.843   2.636   4.585  1.5594  0.8006 -2.2037
 3995TIP3    H211950   5.793   2.499   4.546 -1.3655 -0.0269  3.3898
 3996TIP3   OH211951   1.294   3.756   1.669  0.3254  0.0606 -0.3098
 3996TIP3    H111952   1.338   3.841   1.679 -2.5980  1.4404  2.6005
 3996TIP3    H211953   1.205   3.778   1.644 -1.0617 -1.9034  2.3991
 3997TIP3   OH211954   5.026   5.375   3.372 -0.0923  0.3579  0.3297
 3997TIP3    H111955   5.057   5.316   3.441 -0.8840 -1.1586 -0.5650
 3997TIP3    H211956   5.045   5.329   3.290 -4.2272 -0.5401 -0.3209
 3998TIP3   OH211957   5.960   5.916   0.019  0.2385 -0.3894  0.2042
 3998TIP3    H111958   5.930   5.988  -0.035  3.6782  0.5817 -0.6651
 3998TIP3    H211959   5.949   5.947   0.109  0.0604  0.5113 -0.1172
 3999TIP3   OH211960   2.627   2.156   4.600  0.3013 -0.2105  0.2479
 3999TIP3    H111961   2.575   2.106   4.538  1.1607  0.4353 -1.0239
 3999TIP3    H211962   2.563   2.210   4.647 -0.1197  2.3311 -2.8764
 4000TIP3   OH211963   2.594   5.365   4.835  0.3643  0.3833 -0.5895
 4000TIP3    H111964   2.679   5.320   4.836  1.1198  1.7523  0.8433
 4000TIP3    H211965   2.533   5.300   4.800  1.6467 -1.2890  0.1448
 4001TIP3   OH211966   5.031   4.395   4.094 -0.7802 -0.3545 -0.1386
 4001TIP3    H111967   5.011   4.336   4.021 -1.5726  0.1887 -0.3849
 4001TIP3    H211968   5.070   4.339   4.161  1.4968 -0.5866 -1.5840
 4002TIP3   OH211969   2.888   6.012   1.114  0.5058  0.0750 -0.0663
 4002TIP3    H111970   2.940   5.998   1.193  0.8968 -1.0254 -0.5023
 4002TIP3    H211971   2.820   5.945   1.118  1.2057 -0.7349 -1.2086
 4003TIP3   OH211972   3.803   1.435   3.818  0.0338  0.0114  0.1747
 4003TIP3    H111973   3.746   1.511   3.810  0.2968  0.2771  0.7922
 4003TIP3    H211974   3.865   1.458   3.887 -0.4590 -1.1223  1.0232
 4004TIP3   OH211975   0.260   3.440   2.296  0.1632  0.2900 -0.6519
 4004TIP3    H111976   0.217   3.419   2.379  1.7705  1.8114  0.6596
 4004TIP3    H211977   0.353   3.449   2.319  0.5363  1.6135 -2.4484
 4005TIP3   OH211978   4.948   4.528   3.434 -0.3118 -0.1501 -0.3638
 4005TIP3    H111979   4.917   4.618   3.432 -0.4221 -0.2001 -1.0892
 4005TIP3    H211980   4.871   4.474   3.417 -0.2773 -0.3988  0.2119
 4006TIP3   OH211981   2.658   0.215   5.150  0.2139 -0.5109  0.3484
 4006TIP3    H111982   2.736   0.192   5.100 -0.9643 -2.0915 -0.9013
 4006TIP3    H211983   2.690   0.231   5.239  1.6576 -4.9242  0.8943
 4007TIP3   OH211984   5.455   4.735   2.669  0.0924 -0.0188  0.0330
 4007TIP3    H111985   5.538   4.697   2.698 -0.5226 -1.5962 -0.2012
 4007TIP3    H211986   5.481   4.801   2.604  1.1713 -0.4447  0.0071
 4008TIP3   OH211987   5.701   1.254   5.282 -0.2002  0.2696  0.6375
 4008TIP3    H111988   5.734   1.320   5.342 -0.1654 -0.6941  1.7018
 4008TIP3    H211989   5.695   1.299   5.197 -1.2001  1.9307  1.5424
 4009TIP3   OH211990   4.716   1.646   3.003 -0.8675 -0.3527 -0.2827
 4009TIP3    H111991   4.700   1.736   3.030 -1.9836 -0.9644  1.2401
 4009TIP3    H211992   4.634   1.618   2.962 -0.2250 -0.4164 -1.5684
 4010TIP3   OH211993   1.358   4.028   4.810  0.4005  0.1428 -0.2667
 4010TIP3    H111994   1.271   4.047   4.774  0.4784  1.0889  0.0274
 4010TIP3    H211995   1.413   4.015   4.733  0.5266  1.9724 -0.5177
 4011TIP3   OH211996   6.706   5.022   3.758  0.3508 -0.3187 -0.1448
 4011TIP3    H111997   6.793   4.992   3.784 -0.0292 -1.0096  0.3664
 4011TIP3    H211998   6.656   4.941   3.744 -0.4709  0.0709  0.4805
 4012TIP3   OH211999   0.091   4.870   5.741 -0.0988 -0.1305  0.4982
 4012TIP3    H112000   0.125   4.827   5.663 -0.2142 -2.4295  1.6440
 4012TIP3    H212001   0.036   4.941   5.707  3.7913  2.2716 -1.4203
 4013TIP3   OH212002   4.182   5.871   0.711 -0.0002 -0.2698 -0.1981
 4013TIP3    H112003   4.170   5.844   0.802 -2.0170 -0.5084 -0.4905
 4013TIP3    H212004   4.197   5.966   0.717 -0.2063 -0.2677  0.3660
 4014TIP3   OH212005   6.034   6.189   4.308  0.4299 -0.3177  0.0244
 4014TIP3    H112006   6.124   6.164   4.290  0.3468 -1.5614  1.2390
 4014TIP3    H212007   5.982   6.111   4.287 -0.4027  0.4294 -0.8130
 4015TIP3   OH212008   3.509   2.404   4.559  0.8328  0.1468 -0.3948
 4015TIP3    H112009   3.506   2.490   4.519  1.9332 -0.1413 -1.1172
 4015TIP3    H212010   3.559   2.350   4.498 -0.3028 -1.1596 -0.2260
 4016TIP3   OH212011   2.594   1.470   1.332  0.4120  0.2240  0.3891
 4016TIP3    H112012   2.529   1.433   1.273  1.0027  1.4974 -1.1738
 4016TIP3    H212013   2.549   1.542   1.376  0.3263  0.0959  0.5103
 4017TIP3   OH212014   1.175   2.414   1.214  0.0990 -0.1397  0.5079
 4017TIP3    H112015   1.144   2.495   1.173  0.4573 -0.5215 -0.5534
 4017TIP3    H212016   1.198   2.440   1.303 -0.5951  0.7411  0.4518
 4018TIP3   OH212017   0.689   3.005   5.025 -0.0093 -0.6218  0.0716
 4018TIP3    H112018   0.667   3.045   5.109  1.7879 -0.4662  0.5118
 4018TIP3    H212019   0.609   3.013   4.973 -0.9618 -0.1448  1.5351
 4019TIP3   OH212020   4.489   1.319   1.601  0.4729 -0.1382  0.3823
 4019TIP3    H112021   4.444   1.378   1.540  1.6683  1.5789  1.0771
 4019TIP3    H212022   4.427   1.311   1.675  0.7492  1.2314  0.7975
 4020TIP3   OH212023   3.494   4.261   1.628  0.1743 -0.0998  0.2237
 4020TIP3    H112024   3.464   4.331   1.686  2.1923  0.5879  0.4992
 4020TIP3    H212025   3.589   4.271   1.624  0.4109 -2.1050 -0.6752
 4021TIP3   OH212026   4.369   6.344   2.251  0.1432  0.2914 -0.8320
 4021TIP3    H112027   4.458   6.308   2.256  0.2635  0.7126  0.1192
 4021TIP3    H212028   4.345   6.363   2.341 -1.0027 -0.0025 -1.0606
 4022TIP3   OH212029   1.143   5.457   5.796 -0.2694  0.2219  0.1681
 4022TIP3    H112030   1.202   5.492   5.862 -1.4243  1.4974  0.5672
 4022TIP3    H212031   1.092   5.390   5.841 -1.3125  1.3482  0.7014
 4023TIP3   OH212032   0.999   4.977   4.327  0.0314 -0.3464 -0.0586
 4023TIP3    H112033   1.035   4.912   4.266 -1.8102 -2.3964  0.8706
 4023TIP3    H212034   0.913   4.998   4.291 -0.0602  0.3361  0.5373
 4024TIP3   OH212035   6.249   0.007   5.365 -0.5852 -0.0565 -0.5934
 4024TIP3    H112036   6.244  -0.066   5.427 -1.8757  0.8373  0.4250
 4024TIP3    H212037   6.225   0.084   5.416 -1.7631  0.7194 -2.1994
 4025TIP3   OH212038   0.399   3.366   0.644 -0.0579  0.3347 -0.2128
 4025TIP3    H112039   0.383   3.342   0.736  1.2394  1.0809  0.2252
 4025TIP3    H212040   0.372   3.288   0.595  0.3668 -0.5420  0.8866
 4026TIP3   OH212041   5.393   5.485   1.922 -0.0258  0.1985  0.5839
 4026TIP3    H112042   5.474   5.443   1.949 -0.4576 -1.0106  0.0603
 4026TIP3    H212043   5.327   5.416   1.925 -0.4875  0.4502 -1.5849
 4027TIP3   OH212044   2.794   0.335   0.211  0.2620 -0.2567  0.1003
 4027TIP3    H112045   2.847   0.322   0.290 -0.2342 -1.4888  0.2393
 4027TIP3    H212046   2.782   0.248   0.175 -1.8799 -0.0501  0.1953
 4028TIP3   OH212047   7.066   2.463   0.323  0.4200  0.1269  0.1167
 4028TIP3    H112048   7.107   2.488   0.406 -0.9530  1.2212  0.5073
 4028TIP3    H212049   6.988   2.519   0.317 -0.0865 -0.6843 -1.4013
 4029TIP3   OH212050   0.685   5.949   4.566 -0.2842  0.0551 -0.2308
 4029TIP3    H112051   0.693   5.957   4.661  0.1601 -0.0480 -0.2593
 4029TIP3    H212052   0.697   5.856   4.548 -0.7831  0.0080 -0.3517
 4030TIP3   OH212053   5.057   5.338   0.497 -0.0417  0.3764  0.1784
 4030TIP3    H112054   5.011   5.345   0.580  3.9461  2.1724  2.5504
 4030TIP3    H212055   5.120   5.268   0.510  1.8218  1.8185 -0.5740
 4031TIP3   OH212056   1.646   0.636   1.706 -0.3278  0.1004  0.3365
 4031TIP3    H112057   1.721   0.578   1.699 -1.7681 -1.6425 -3.2993
 4031TIP3    H212058   1.657   0.680   1.790  3.9660 -1.0382  0.5834
 4032TIP3   OH212059   1.297   4.329   2.181  0.4799 -0.2604  0.4747
 4032TIP3    H112060   1.274   4.414   2.220  1.0227  0.4594 -0.7130
 4032TIP3    H212061   1.369   4.297   2.234  0.2872  0.0267  0.9151
 4033TIP3   OH212062   2.361   6.018   5.771 -0.1320  0.0221 -0.1359
 4033TIP3    H112063   2.416   5.945   5.741  0.9784  0.8138 -0.0777
 4033TIP3    H212064   2.373   6.019   5.866 -4.4348 -3.1386  0.7277
 4034TIP3   OH212065   4.473   4.668   5.817  0.5896 -0.0968  0.0803
 4034TIP3    H112066   4.486   4.640   5.907  1.0199 -0.2088 -0.0178
 4034TIP3    H212067   4.558   4.657   5.775  0.3074 -0.3713 -0.4316
 4035TIP3   OH212068   3.357   2.101   4.503 -0.1297  0.2700  0.4126
 4035TIP3    H112069   3.297   2.175   4.491  1.3136  1.2343 -1.4456
 4035TIP3    H212070   3.387   2.109   4.593 -1.5983  0.6699  0.8965
 4036TIP3   OH212071   5.539   0.287   4.808  0.4418  0.2674 -0.0788
 4036TIP3    H112072   5.587   0.321   4.884 -0.0340 -0.7501  0.6927
 4036TIP3    H212073   5.465   0.346   4.797 -0.1377 -0.2352  0.9877
 4037TIP3   OH212074   3.610   4.401   1.132  0.6552 -0.1463  0.6593
 4037TIP3    H112075   3.571   4.317   1.156 -0.5794  0.2120 -0.0099
 4037TIP3    H212076   3.620   4.447   1.216  0.4387 -0.5790  0.9277
 4038TIP3   OH212077   5.624   2.077   2.584 -0.2897  0.1322 -0.2589
 4038TIP3    H112078   5.714   2.061   2.613  0.8844 -0.8778 -3.8887
 4038TIP3    H212079   5.571   2.019   2.637  1.6342 -1.6603 -0.1632
 4039TIP3   OH212080   4.508   0.284   0.308  0.3041 -0.1278  0.3271
 4039TIP3    H112081   4.523   0.293   0.402  3.5901 -0.9611  0.0224
 4039TIP3    H212082   4.500   0.189   0.294  2.0737 -0.2158 -0.4057
 4040TIP3   OH212083   3.698   5.631   3.331 -0.4499 -0.0909  0.5832
 4040TIP3    H112084   3.650   5.653   3.251  1.0566 -1.1966 -0.6940
 4040TIP3    H212085   3.693   5.536   3.337 -0.1174 -0.0595  1.5387
 4041TIP3   OH212086   6.512   1.034   2.053  0.6918  0.0392 -0.1407
 4041TIP3    H112087   6.457   1.050   2.130  1.7451  1.1656  0.4223
 4041TIP3    H212088   6.579   0.972   2.083  0.6811 -0.0769 -0.3534
 4042TIP3   OH212089   1.151   6.803   4.394 -0.6256 -0.0146  0.2802
 4042TIP3    H112090   1.141   6.839   4.482 -0.8837 -2.2005  1.2200
 4042TIP3    H212091   1.130   6.710   4.404 -0.7482 -0.3120 -2.1230
 4043TIP3   OH212092   1.511   2.175   0.578  0.5289  0.1351 -0.2410
 4043TIP3    H112093   1.485   2.224   0.500  1.8084  3.2281  1.0845
 4043TIP3    H212094   1.540   2.090   0.545 -1.3356  0.3617 -2.7912
 4044TIP3   OH212095   3.710   5.212   3.909  0.0250  0.7694 -0.1897
 4044TIP3    H112096   3.707   5.289   3.853  1.6193  1.4573  0.6036
 4044TIP3    H212097   3.799   5.210   3.942  0.0176 -1.4250 -0.1664
 4045TIP3   OH212098   4.842   5.616   0.158  0.1725  0.5260 -0.3390
 4045TIP3    H112099   4.797   5.674   0.096 -1.9679 -0.7388 -0.0327
 4045TIP3    H212100   4.792   5.623   0.239  0.9493 -0.4138  0.2434
 4046TIP3   OH212101   2.880   5.676   1.217 -0.4598 -0.9978  0.5901
 4046TIP3    H112102   2.937   5.710   1.149 -1.8241  1.5104  0.5604
 4046TIP3    H212103   2.794   5.714   1.197 -1.5940 -2.6521  2.0057
 4047TIP3   OH212104   0.891   6.173   2.301 -0.4606  0.3526  0.2995
 4047TIP3    H112105   0.955   6.197   2.235 -1.7285  1.6332 -0.5226
 4047TIP3    H212106   0.810   6.158   2.253 -1.0583 -0.2054  1.4163
 4048TIP3   OH212107   1.354   2.518   1.750  0.1849 -0.2764  0.4387
 4048TIP3    H112108   1.349   2.610   1.774  0.9276 -0.7620  2.6292
 4048TIP3    H212109   1.369   2.472   1.832 -0.9884 -2.4492 -0.4772
 4049TIP3   OH212110   4.992   4.215   4.660  0.9525  0.0173 -0.1267
 4049TIP3    H112111   5.005   4.185   4.750  0.4079 -0.0844 -0.0831
 4049TIP3    H212112   5.054   4.162   4.608  1.3811  0.1904  0.2049
 4050TIP3   OH212113   5.384   0.797   3.059  0.4889  0.8363  0.4693
 4050TIP3    H112114   5.346   0.709   3.052  0.6649  0.8265 -0.4698
 4050TIP3    H212115   5.479   0.781   3.064  0.5856  0.9981 -0.5972
 4051TIP3   OH212116   3.246   0.270   5.752 -0.1902 -0.3246  0.4387
 4051TIP3    H112117   3.171   0.212   5.739 -1.0912  1.3466 -3.0230
 4051TIP3    H212118   3.208   0.352   5.782  0.0286  0.7110 -1.8566
 4052TIP3   OH212119   6.393   4.200   3.097  0.9056 -0.8729 -0.2706
 4052TIP3    H112120   6.400   4.269   3.030 -2.3551  1.9072  1.8848
 4052TIP3    H212121   6.460   4.223   3.161  1.9214 -1.6598 -1.0193
 4053TIP3   OH212122   0.171   4.999   3.993  0.1541  0.0031  0.0612
 4053TIP3    H112123   0.131   5.036   4.071  0.8605  0.9294  0.0022
 4053TIP3    H212124   0.107   4.937   3.960 -0.5642  0.3248  0.8293
 4054TIP3   OH212125   1.812   0.412   1.733  0.0311  0.1706  0.5012
 4054TIP3    H112126   1.801   0.370   1.647 -0.6389  1.1739  0.0794
 4054TIP3    H212127   1.898   0.384   1.762  0.6987  0.6017 -0.9530
 4055TIP3   OH212128   1.609   6.500   3.296 -0.2034  0.1485 -0.1108
 4055TIP3    H112129   1.612   6.596   3.287 -0.4856  0.0670 -1.1343
 4055TIP3    H212130   1.606   6.467   3.207  0.7441 -0.8610  0.2074
 4056TIP3   OH212131   1.440   4.016   0.164 -0.2230  0.1552 -0.3698
 4056TIP3    H112132   1.438   4.110   0.146 -0.3270  0.5729  1.6701
 4056TIP3    H212133   1.388   4.005   0.244  0.1317 -1.5910 -0.3370
 4057TIP3   OH212134   6.095   3.167   4.905 -0.1631 -0.0514  0.2523
 4057TIP3    H112135   6.163   3.167   4.973 -0.2794 -0.1248  0.3678
 4057TIP3    H212136   6.068   3.075   4.898 -1.1889  0.1708  1.1379
 4058TIP3   OH212137   1.857   1.827  -0.027  0.3818  0.2256  0.1027
 4058TIP3    H112138   1.848   1.797   0.064  0.3853  1.2443  0.4574
 4058TIP3    H212139   1.888   1.917  -0.019 -0.3995  0.5967 -0.9041
 4059TIP3   OH212140   6.430   5.834   1.068 -0.4569  0.2032 -0.1142
 4059TIP3    H112141   6.346   5.878   1.083 -1.0487 -0.6876 -0.6753
 4059TIP3    H212142   6.471   5.830   1.154 -0.9954  0.6481  0.1720
 4060TIP3   OH212143   0.694   4.399   2.756  0.2550 -0.2716  0.5341
 4060TIP3    H112144   0.647   4.479   2.781 -0.7111 -0.5376 -0.3734
 4060TIP3    H212145   0.627   4.330   2.758  0.6085 -0.6768 -0.6943
 4061TIP3   OH212146   2.319   4.343   1.994 -0.1909 -0.0751 -0.7666
 4061TIP3    H112147   2.305   4.408   1.925 -1.8730  0.0123 -0.3927
 4061TIP3    H212148   2.258   4.368   2.063  0.4132 -1.0206  0.1407
 4062TIP3   OH212149   1.415   6.081   1.414  0.0778  0.2138 -0.3490
 4062TIP3    H112150   1.404   6.116   1.502  0.9615  0.3439 -0.2799
 4062TIP3    H212151   1.363   6.001   1.414 -0.5373  0.5980  0.0466
 4063TIP3   OH212152   2.507   6.432   1.698 -0.3382  0.0195 -0.9265
 4063TIP3    H112153   2.521   6.511   1.647  1.2653 -0.3452 -1.1233
 4063TIP3    H212154   2.501   6.362   1.633 -2.1365 -0.0162 -0.7768
 4064TIP3   OH212155   2.648   2.041   3.766  0.2356  0.2092  0.0544
 4064TIP3    H112156   2.609   2.127   3.781  0.1258  0.4981 -1.7062
 4064TIP3    H212157   2.734   2.046   3.807  0.3115  1.2292 -0.2056
 4065TIP3   OH212158   3.155   2.137   5.877  0.2658 -0.0870 -0.1259
 4065TIP3    H112159   3.188   2.050   5.903 -0.8433 -0.2200  0.9346
 4065TIP3    H212160   3.060   2.126   5.873  0.1109  1.0914  0.0524
 4066TIP3   OH212161   1.901   2.504   2.288  0.2274  0.2656 -0.1765
 4066TIP3    H112162   1.896   2.431   2.227  0.7548 -0.3447  0.4959
 4066TIP3    H212163   1.812   2.512   2.323  0.0917  0.1635 -0.4941
 4067TIP3   OH212164   3.492   0.166   5.830  0.6756  0.3634 -0.8211
 4067TIP3    H112165   3.504   0.261   5.833  0.2513  0.4134 -0.6651
 4067TIP3    H212166   3.407   0.154   5.788 -0.2305  0.1256  0.9779
 4068TIP3   OH212167   2.112   5.832   4.437  0.4497 -0.4534  0.3355
 4068TIP3    H112168   2.064   5.751   4.450 -1.2164  0.3559 -0.4373
 4068TIP3    H212169   2.050   5.901   4.460  1.1861  0.6422 -0.8348
 4069TIP3   OH212170   4.925   0.784   3.512 -0.5870 -0.9751 -0.1687
 4069TIP3    H112171   4.932   0.728   3.589  0.4058 -1.3340 -0.5005
 4069TIP3    H212172   5.005   0.767   3.463 -0.1613  0.8512 -0.2089
 4070TIP3   OH212173   6.575   0.299   3.340  0.4634 -0.5054 -0.2127
 4070TIP3    H112174   6.659   0.340   3.320  0.3521 -0.8569 -1.4762
 4070TIP3    H212175   6.552   0.333   3.427  1.9374 -0.4735  0.1937
 4071TIP3   OH212176   1.390   3.292   0.098 -0.1981 -0.3185 -0.1323
 4071TIP3    H112177   1.317   3.278   0.039  0.2185 -1.1233 -0.4813
 4071TIP3    H212178   1.419   3.381   0.081 -1.1600  0.0486  0.0969
 4072TIP3   OH212179   4.361   0.314   2.322 -0.2557 -0.1739  0.1627
 4072TIP3    H112180   4.361   0.259   2.400 -0.1394 -0.4204 -0.0116
 4072TIP3    H212181   4.346   0.403   2.355  1.3649 -0.0385  0.6446
 4073TIP3   OH212182   5.761   4.389   5.279 -0.3722  0.0572 -0.2514
 4073TIP3    H112183   5.683   4.429   5.316 -0.3618 -1.1849  1.2065
 4073TIP3    H212184   5.826   4.460   5.278 -1.0379  0.6851  0.0280
 4074TIP3   OH212185   2.676   1.506   0.617 -0.2330  0.1673  0.2231
 4074TIP3    H112186   2.771   1.498   0.612 -0.4386 -2.8797 -1.7433
 4074TIP3    H212187   2.652   1.563   0.544 -0.0247 -1.8385 -1.5025
 4075TIP3   OH212188   3.634   0.101   1.004 -0.5503 -0.1537 -0.3468
 4075TIP3    H112189   3.542   0.076   1.002 -0.5912 -0.1502  0.8663
 4075TIP3    H212190   3.636   0.183   1.053 -0.0903  0.7885 -1.8683
 4076TIP3   OH212191   4.823   5.263   5.337 -0.1279  1.1631  0.1975
 4076TIP3    H112192   4.772   5.323   5.283 -0.3381  0.9638  0.1741
 4076TIP3    H212193   4.787   5.274   5.425 -1.5094 -0.3440 -0.1300
 4077TIP3   OH212194   3.540   2.953   5.451  0.3005 -0.1942 -0.0896
 4077TIP3    H112195   3.623   2.986   5.485  0.4952 -0.9314  0.1565
 4077TIP3    H212196   3.488   2.931   5.529 -1.5510  3.5040 -0.0395
 4078TIP3   OH212197   5.968   1.205   2.545  0.1116  0.4525  0.2123
 4078TIP3    H112198   5.934   1.122   2.512 -0.4126  1.3530 -1.7075
 4078TIP3    H212199   5.894   1.245   2.591  0.5968 -0.4534  1.8296
 4079TIP3   OH212200   3.841   5.132   3.562 -0.4846 -0.4368  0.2012
 4079TIP3    H112201   3.802   5.190   3.497  1.3794  1.7080  0.8812
 4079TIP3    H212202   3.881   5.062   3.511  0.2768  0.7854 -0.9433
 4080TIP3   OH212203   4.094   5.546   3.049  0.1976 -0.3738  0.4239
 4080TIP3    H112204   4.128   5.470   3.096 -1.1329 -1.3524 -0.1203
 4080TIP3    H212205   4.051   5.598   3.116 -1.1728 -1.4671  0.4572
 4081TIP3   OH212206   6.504   5.019   0.516  0.3228  0.2558  0.3885
 4081TIP3    H112207   6.444   5.094   0.511 -0.2098 -0.0434  1.8149
 4081TIP3    H212208   6.559   5.028   0.439  0.6257  2.4161  0.7872
 4082TIP3   OH212209   0.700   2.637   3.383 -0.0516  0.4299 -0.0683
 4082TIP3    H112210   0.683   2.699   3.454 -1.1662  0.8856 -0.6901
 4082TIP3    H212211   0.688   2.689   3.303 -0.6767 -0.4938 -0.6008
 4083TIP3   OH212212   1.490   0.040   5.903 -0.1852 -0.6598  0.2512
 4083TIP3    H112213   1.478   0.019   5.810  0.7257 -0.7528  0.1409
 4083TIP3    H212214   1.500   0.135   5.905  1.8468 -0.8152 -0.0304
 4084TIP3   OH212215   0.683   1.256   3.781  0.0857  0.4050  0.3667
 4084TIP3    H112216   0.760   1.207   3.813  2.0040  1.2639 -2.5772
 4084TIP3    H212217   0.622   1.188   3.754  0.9264 -0.3414  0.2799
 4085TIP3   OH212218   6.428   0.370   3.576  0.2400 -0.2944 -0.6997
 4085TIP3    H112219   6.484   0.411   3.642  0.3426 -1.7576  0.1778
 4085TIP3    H212220   6.346   0.418   3.581  0.7236  0.5340 -0.5255
 4086TIP3   OH212221   4.211   6.284   3.535  0.2012 -0.2266 -0.0816
 4086TIP3    H112222   4.235   6.375   3.518 -1.6996  0.1042 -1.4198
 4086TIP3    H212223   4.206   6.244   3.448  0.6933 -1.5287  0.4699
 4087TIP3   OH212224   6.075   4.661   4.724 -0.1140  0.0128  0.1011
 4087TIP3    H112225   6.062   4.710   4.805  0.5459  0.3520  0.0076
 4087TIP3    H212226   6.011   4.699   4.663 -1.6786 -1.2639  0.8752
 4088TIP3   OH212227   0.880   1.257   0.422  0.2616 -0.0667  0.0481
 4088TIP3    H112228   0.960   1.300   0.453  1.0882 -1.0159 -0.7286
 4088TIP3    H212229   0.860   1.300   0.339 -1.1987  1.5453  1.1599
 4089TIP3   OH212230   6.570   4.947   3.434 -0.4463  0.3553  0.5809
 4089TIP3    H112231   6.660   4.915   3.440 -0.7097 -0.8960 -1.2933
 4089TIP3    H212232   6.522   4.895   3.498 -0.3866 -1.3443 -0.6775
 4090TIP3   OH212233   1.261   5.881   2.233 -0.0815 -0.2041 -0.2517
 4090TIP3    H112234   1.259   5.976   2.222 -2.2998 -0.1745 -0.0269
 4090TIP3    H212235   1.323   5.866   2.305  0.8044  0.9827 -0.7420
 4091TIP3   OH212236   2.359   3.327   4.778  0.4830  0.0075 -0.0498
 4091TIP3    H112237   2.391   3.257   4.722 -0.1992  0.1023 -0.5679
 4091TIP3    H212238   2.288   3.287   4.829  0.9898 -0.0365  0.6408
 4092TIP3   OH212239   0.492   2.273   1.799 -0.4220  0.0953 -0.3571
 4092TIP3    H112240   0.425   2.246   1.862 -1.1387 -0.1596 -1.2162
 4092TIP3    H212241   0.537   2.346   1.842 -0.6550 -0.3065  0.5994
 4093TIP3   OH212242   3.476   0.195   0.400  0.0349  0.2842 -0.4746
 4093TIP3    H112243   3.466   0.104   0.374  0.1255  0.0806  0.2060
 4093TIP3    H212244   3.489   0.193   0.494  0.6116  0.9650 -0.5305
 4094TIP3   OH212245   3.860   5.303   4.479  0.4179 -0.0120  0.0916
 4094TIP3    H112246   3.880   5.281   4.388  0.6666 -0.3499  0.2264
 4094TIP3    H212247   3.935   5.354   4.509  0.9186 -0.9645  0.4838
 4095TIP3   OH212248   4.244   4.371   5.094 -0.2084  0.5693  0.6156
 4095TIP3    H112249   4.279   4.432   5.029 -1.0475  0.0556 -0.3508
 4095TIP3    H212250   4.318   4.317   5.119 -0.0573  0.1665 -0.6312
 4096TIP3   OH212251   6.827   1.723   0.825 -0.1285  0.2146 -0.1018
 4096TIP3    H112252   6.863   1.810   0.809 -1.4372  0.9040  0.4739
 4096TIP3    H212253   6.752   1.717   0.765 -1.4802  0.4702  1.4773
 4097TIP3   OH212254   0.627   5.307   1.865  0.0022  0.1435 -0.0258
 4097TIP3    H112255   0.680   5.382   1.839  0.1294  0.1350  0.2041
 4097TIP3    H212256   0.643   5.241   1.798 -0.7588  0.6184 -0.6877
 4098TIP3   OH212257   4.662   2.072   2.363  0.2962  0.1120  0.0635
 4098TIP3    H112258   4.674   2.166   2.376 -3.3661  0.6318  0.7344
 4098TIP3    H212259   4.680   2.058   2.270  0.3357  1.5686 -0.1699
 4099TIP3   OH212260   2.769   3.293   4.295  0.1387  0.1508 -0.5900
 4099TIP3    H112261   2.710   3.250   4.234 -0.7237  0.1550  0.2326
 4099TIP3    H212262   2.806   3.222   4.347 -0.9256  0.3365  0.4508
 4100TIP3   OH212263   3.656   1.791   0.101  0.3219  0.9485  0.1994
 4100TIP3    H112264   3.699   1.706   0.093 -1.6168  0.0435 -1.5111
 4100TIP3    H212265   3.682   1.823   0.187  0.2418 -1.8982  1.3765
 4101TIP3   OH212266   6.427   5.737   3.056 -0.3130  0.0406  0.5392
 4101TIP3    H112267   6.402   5.691   3.136  0.2957  1.0369  1.3302
 4101TIP3    H212268   6.389   5.685   2.985  0.1491 -1.5169  1.3919
 4102TIP3   OH212269   6.034   0.095   0.777  0.5705 -0.6365 -0.3926
 4102TIP3    H112270   6.010   0.158   0.710  1.4046 -1.9748 -2.0329
 4102TIP3    H212271   5.970   0.109   0.847 -0.4024  0.7363 -1.4880
 4103TIP3   OH212272   2.344   0.127   2.341 -0.2932 -0.0141  0.0705
 4103TIP3    H112273   2.318   0.063   2.407 -0.2670  0.1788  0.2685
 4103TIP3    H212274   2.269   0.185   2.334 -0.1407  0.1994  0.2179
 4104TIP3   OH212275   3.662   4.334   5.886  0.0264  0.5262  0.4848
 4104TIP3    H112276   3.683   4.386   5.809  0.6097 -1.0116 -0.4471
 4104TIP3    H212277   3.566   4.332   5.889 -0.0917  3.3656  1.8083
 4105TIP3   OH212278   4.809   1.489   3.690 -0.0160 -0.0388 -0.2867
 4105TIP3    H112279   4.721   1.473   3.722 -0.1017 -0.5818 -0.7851
 4105TIP3    H212280   4.801   1.493   3.595 -0.3800  5.1793 -0.2951
 4106TIP3   OH212281   6.753   6.107   4.939 -0.4441 -0.3457  0.1650
 4106TIP3    H112282   6.739   6.168   5.012  0.2044 -1.1093  0.9537
 4106TIP3    H212283   6.680   6.123   4.880  0.6450  2.4987 -0.5894
 4107TIP3   OH212284   4.153   5.511   2.788  0.4777  0.5747  0.1304
 4107TIP3    H112285   4.114   5.512   2.876 -0.4906  1.1554 -0.2977
 4107TIP3    H212286   4.110   5.582   2.742 -1.7795 -1.9973 -2.0365
 4108TIP3   OH212287   6.401   2.750   2.009  0.2842 -0.1855  0.4668
 4108TIP3    H112288   6.393   2.662   2.045  0.7252 -0.0492  0.9103
 4108TIP3    H212289   6.391   2.808   2.084 -2.0927  0.2465 -0.1123
 4109TIP3   OH212290   2.305   5.044   2.334  0.6679 -0.2349  0.2211
 4109TIP3    H112291   2.392   5.083   2.337  0.5570  0.0749 -0.3187
 4109TIP3    H212292   2.252   5.100   2.392  0.6495  0.0577 -0.0741
 4110TIP3   OH212293   2.152   5.158   1.261 -0.1758 -0.3081  0.2033
 4110TIP3    H112294   2.097   5.145   1.337 -2.3748 -0.6656 -1.3528
 4110TIP3    H212295   2.147   5.252   1.243 -1.1479 -0.4753 -0.5019
 4111TIP3   OH212296   1.698   3.566   0.124  0.1502  0.1060  0.1600
 4111TIP3    H112297   1.707   3.644   0.069 -0.9640  1.4195  1.7578
 4111TIP3    H212298   1.785   3.554   0.163  0.6091 -0.0944 -0.8975
 4112TIP3   OH212299   7.089   0.145   5.240 -0.6037 -0.1014 -0.1026
 4112TIP3    H112300   7.089   0.208   5.312 -2.0686 -1.0051  0.7445
 4112TIP3    H212301   7.058   0.195   5.165  0.4582  0.7311 -0.0083
 4113TIP3   OH212302   1.761   0.011   2.928  0.4205  0.1502  0.2395
 4113TIP3    H112303   1.689   0.074   2.928  0.3967  0.1232 -0.0219
 4113TIP3    H212304   1.720  -0.072   2.903  0.5065  0.0913  0.2907
 4114TIP3   OH212305   0.578   0.389   0.630  0.0672 -0.4260 -0.2382
 4114TIP3    H112306   0.490   0.415   0.658  1.1264  1.0110  2.0826
 4114TIP3    H212307   0.573   0.293   0.624 -1.0539 -0.6231  2.3800
 4115TIP3   OH212308   3.316   5.188   0.087  0.0687  0.1690 -0.0161
 4115TIP3    H112309   3.379   5.234   0.142  0.1525  0.2736 -0.1994
 4115TIP3    H212310   3.317   5.098   0.121  2.0375 -0.4234 -1.4685
 4116TIP3   OH212311   2.504   5.475   1.748 -0.2118  0.0878  0.2096
 4116TIP3    H112312   2.454   5.409   1.701 -0.0268 -0.8436  1.2833
 4116TIP3    H212313   2.450   5.496   1.825 -0.3076  1.2599 -0.1520
 4117TIP3   OH212314   6.405   5.561   0.226 -0.1198  0.4821 -0.0615
 4117TIP3    H112315   6.447   5.637   0.267 -0.0024  0.2700  0.2141
 4117TIP3    H212316   6.409   5.492   0.292  3.3586 -1.0401 -1.6328
 4118TIP3   OH212317   3.412   0.713   0.956 -0.2413  0.4073 -0.2860
 4118TIP3    H112318   3.461   0.692   0.877 -0.4380  1.4326 -0.6989
 4118TIP3    H212319   3.435   0.643   1.018  1.4334  0.6366 -0.5917
 4119TIP3   OH212320   6.573   1.232   1.898 -0.3890 -0.3520 -0.3336
 4119TIP3    H112321   6.550   1.187   1.979  0.3084 -0.3273 -0.1148
 4119TIP3    H212322   6.616   1.165   1.845  2.1157  0.3942  0.6324
 4120TIP3   OH212323   4.792   4.452   2.341 -0.3008 -0.1433 -0.1166
 4120TIP3    H112324   4.754   4.496   2.417 -1.4926 -0.8259 -0.2997
 4120TIP3    H212325   4.836   4.375   2.378  0.7342  0.5086  0.0649
 4121TIP3   OH212326   5.563   3.311   1.640  0.3364  0.5803  0.0568
 4121TIP3    H112327   5.636   3.340   1.696  0.7500  0.3606 -0.3577
 4121TIP3    H212328   5.550   3.383   1.578 -0.4304  1.0225  0.7229
 4122TIP3   OH212329   2.218   0.038   0.583  0.1138  0.0295 -0.1628
 4122TIP3    H112330   2.136   0.056   0.536 -0.1020  0.1023  0.2396
 4122TIP3    H212331   2.278   0.005   0.515 -0.6331 -1.2181 -0.2441
 4123TIP3   OH212332   4.056   2.341   0.336  0.2695  0.2365  0.1768
 4123TIP3    H112333   4.128   2.278   0.345  0.4948  0.4435 -0.1881
 4123TIP3    H212334   4.080   2.395   0.261  0.3052  1.0547  0.7622
 4124TIP3   OH212335   4.799   5.071   0.263 -0.1511  0.0310 -0.6999
 4124TIP3    H112336   4.830   5.026   0.184  1.0358  2.6773 -1.8722
 4124TIP3    H212337   4.866   5.137   0.280 -1.5595  1.0495  1.1795
 4125TIP3   OH212338   2.535   0.816   2.685 -0.5506 -0.7401  0.1150
 4125TIP3    H112339   2.468   0.803   2.752 -0.9271 -0.3924 -0.1986
 4125TIP3    H212340   2.602   0.869   2.729  0.3021 -2.3943  0.9420
 4126TIP3   OH212341   2.479   2.959   0.006 -0.8067  0.0278 -0.3254
 4126TIP3    H112342   2.421   3.033  -0.007 -0.7009  1.4163  4.9840
 4126TIP3    H212343   2.425   2.892   0.048  0.2179 -1.0415 -0.6318
 4127TIP3   OH212344   6.613   0.254   3.863 -0.3288 -0.7086  0.1822
 4127TIP3    H112345   6.520   0.231   3.863 -0.9118  0.9967 -3.3485
 4127TIP3    H212346   6.629   0.288   3.951 -3.1943 -0.5017  0.7292
 4128TIP3   OH212347   3.918   6.773   2.938 -0.6919  0.2075  0.0303
 4128TIP3    H112348   3.902   6.687   2.899 -2.9264  0.1490  0.9336
 4128TIP3    H212349   3.921   6.833   2.863 -1.7822 -0.3249 -0.4626
 4129TIP3   OH212350   5.152   3.976   5.679  0.2373  0.0059 -0.0128
 4129TIP3    H112351   5.205   3.953   5.755 -0.8335 -0.2001  0.7054
 4129TIP3    H212352   5.141   3.893   5.632 -2.6336 -0.8883  1.9435
 4130TIP3   OH212353   5.548   1.306   3.723 -0.1517 -0.1704  0.0949
 4130TIP3    H112354   5.511   1.227   3.763 -0.1022 -0.6132 -0.7121
 4130TIP3    H212355   5.484   1.331   3.656 -0.0304  0.3057  0.1569
 4131TIP3   OH212356   3.999   6.290   5.105  0.2138  0.4011  0.4218
 4131TIP3    H112357   4.087   6.255   5.092  0.1694  0.0323  1.0751
 4131TIP3    H212358   3.980   6.337   5.024  1.5673  1.6992  0.8073
 4132TIP3   OH212359   2.709   6.701   5.191  0.2354 -0.5456 -0.1317
 4132TIP3    H112360   2.736   6.611   5.210  3.2606 -0.7667 -4.1073
 4132TIP3    H212361   2.784   6.754   5.217  0.6647  0.1115 -2.5270
 4133TIP3   OH212362   1.735   6.469   0.436 -0.4774  0.0606 -0.8413
 4133TIP3    H112363   1.724   6.469   0.341  0.6013 -1.2921 -0.9849
 4133TIP3    H212364   1.675   6.402   0.468  0.9041 -1.2356 -0.8357
 4134TIP3   OH212365   3.936   6.657   5.613 -0.2445 -0.2151 -0.2448
 4134TIP3    H112366   3.870   6.604   5.657  0.3564 -1.4528 -0.8002
 4134TIP3    H212367   4.001   6.595   5.582 -0.4733  0.6381 -2.6063
 4135TIP3   OH212368   5.001   4.410   4.480  0.2675  0.1162 -1.0685
 4135TIP3    H112369   4.980   4.490   4.528  1.4589  0.6681 -1.4533
 4135TIP3    H212370   4.985   4.340   4.544  0.1157  0.7209 -0.4285
 4136TIP3   OH212371   2.598   4.253   3.033  0.5159 -0.5595 -0.8642
 4136TIP3    H112372   2.562   4.283   2.950  0.1455 -0.4359 -0.6640
 4136TIP3    H212373   2.571   4.320   3.097  1.5111 -0.2122 -0.7858
 4137TIP3   OH212374   5.189   4.982   1.081  0.8504  0.1126 -0.6314
 4137TIP3    H112375   5.122   4.915   1.066  1.6942 -1.2574  1.2770
 4137TIP3    H212376   5.152   5.036   1.150  0.6434  0.9656 -1.3963
 4138TIP3   OH212377   5.338   5.806   4.340 -0.0081 -0.1031 -0.4475
 4138TIP3    H112378   5.323   5.890   4.298  1.6980 -0.8168 -2.6919
 4138TIP3    H212379   5.432   5.806   4.361 -0.1422 -1.1455  0.2152
 4139TIP3   OH212380   6.798   5.884   1.718  0.1149 -0.3931 -0.7177
 4139TIP3    H112381   6.785   5.838   1.802  1.8808 -0.7591 -0.6212
 4139TIP3    H212382   6.850   5.961   1.740  0.7169 -0.5692 -1.4917
 4140TIP3   OH212383   4.076   1.187   5.250 -0.0492 -0.4554 -0.1279
 4140TIP3    H112384   4.097   1.117   5.311  0.1279 -0.2953 -0.0067
 4140TIP3    H212385   4.002   1.232   5.290  0.1464 -0.2743  0.0248
 4141TIP3   OH212386   4.457   3.983   0.545 -0.4797 -0.0396 -0.4058
 4141TIP3    H112387   4.498   4.017   0.466 -0.5706 -1.6301 -1.1654
 4141TIP3    H212388   4.373   3.948   0.516 -0.6972 -0.2860  0.4669
 4142TIP3   OH212389   6.275   4.768   4.509 -0.1345 -0.2141 -0.1225
 4142TIP3    H112390   6.249   4.690   4.461  0.4549 -0.3958 -0.1516
 4142TIP3    H212391   6.253   4.748   4.600  2.5104 -1.5446  0.3004
 4143TIP3   OH212392   0.999   4.341   1.341  0.3249 -0.1295  0.2339
 4143TIP3    H112393   1.005   4.363   1.434  0.2938 -1.2251  0.5092
 4143TIP3    H212394   0.968   4.250   1.340  0.4483 -0.1702 -0.8469
 4144TIP3   OH212395   4.006   5.628   1.127 -0.5866  0.0731 -0.1906
 4144TIP3    H112396   4.059   5.704   1.105 -1.6565  0.4282 -1.7091
 4144TIP3    H212397   4.061   5.577   1.186  0.5893  1.4605 -0.0170
 4145TIP3   OH212398   3.559   6.638   5.379  0.4887 -0.3070 -0.2128
 4145TIP3    H112399   3.490   6.580   5.347 -1.5449  1.3013  1.0098
 4145TIP3    H212400   3.573   6.701   5.308  0.9361 -0.7760 -0.5568
 4146TIP3   OH212401   1.059   5.520   3.680 -0.3783  0.1160  0.1355
 4146TIP3    H112402   1.154   5.513   3.693 -0.4339 -0.1026  0.4243
 4146TIP3    H212403   1.046   5.611   3.651 -0.1228  0.2520  0.4379
 4147TIP3   OH212404   3.696   1.824   5.141 -0.1228 -0.8354  0.1095
 4147TIP3    H112405   3.773   1.832   5.085  0.2176  0.1762  0.7020
 4147TIP3    H212406   3.664   1.914   5.150 -1.7159 -1.2993 -0.6012
 4148TIP3   OH212407   3.129   6.151   2.998 -0.0008  0.6739  0.1267
 4148TIP3    H112408   3.151   6.104   3.078 -0.0065  0.3026 -0.0844
 4148TIP3    H212409   3.210   6.195   2.973  0.1062  0.4780  0.1288
 4149TIP3   OH212410   1.811   5.644   3.736  0.0960 -0.1783  0.0805
 4149TIP3    H112411   1.801   5.603   3.822 -0.5775  1.2381  0.6954
 4149TIP3    H212412   1.904   5.636   3.717  0.2014 -0.7815  0.7960
 4150TIP3   OH212413   4.643   2.432   1.539  0.1093 -0.1108 -0.1590
 4150TIP3    H112414   4.698   2.397   1.469 -0.0136  0.8257 -0.7341
 4150TIP3    H212415   4.693   2.416   1.619  1.6482  1.5015 -0.7443
 4151TIP3   OH212416   5.265   3.377   4.357 -0.3885 -0.0668 -0.0364
 4151TIP3    H112417   5.173   3.388   4.382 -0.7949 -2.5487 -0.2439
 4151TIP3    H212418   5.271   3.416   4.270 -1.1542  0.3593  0.0893
 4152TIP3   OH212419   0.166   1.458   1.421  0.3711 -0.1011 -0.1514
 4152TIP3    H112420   0.252   1.452   1.463 -0.1198 -2.6809  0.6696
 4152TIP3    H212421   0.176   1.412   1.338 -0.1829 -0.3171 -0.1023
 4153TIP3   OH212422   6.939   2.316   3.669 -0.6130  0.4474  0.1605
 4153TIP3    H112423   6.882   2.389   3.692  0.3757  0.9917  0.9526
 4153TIP3    H212424   6.990   2.348   3.594 -0.4820  0.4108  0.2334
 4154TIP3   OH212425   2.477   1.159   5.895 -0.2326 -0.4854  0.2932
 4154TIP3    H112426   2.389   1.177   5.860 -0.1012 -1.3717 -0.5207
 4154TIP3    H212427   2.500   1.073   5.860  0.4998 -0.7810  1.4316
 4155TIP3   OH212428   2.238   2.850   1.134 -0.0698  0.3430 -0.4311
 4155TIP3    H112429   2.177   2.800   1.189  0.2472  0.2399 -0.1696
 4155TIP3    H212430   2.183   2.914   1.089 -0.3197  0.4932  0.0775
 4156TIP3   OH212431   4.066   6.065   4.306  0.1548  0.1514 -0.3126
 4156TIP3    H112432   4.073   5.986   4.360  1.3461  0.5992  0.2175
 4156TIP3    H212433   3.978   6.060   4.268 -0.2860 -0.7494  0.7623
 4157TIP3   OH212434   3.008   6.220   4.564 -0.3236 -0.4982  0.3912
 4157TIP3    H112435   2.923   6.251   4.596 -1.0935 -0.5732 -1.4487
 4157TIP3    H212436   3.027   6.276   4.488  1.0010 -0.8574  0.4393
 4158TIP3   OH212437   6.211   3.636   2.841  0.3784 -0.1605  0.4731
 4158TIP3    H112438   6.173   3.724   2.845  0.3381 -0.1549 -0.0624
 4158TIP3    H212439   6.161   3.586   2.906  1.1098  0.4757  1.5696
 4159TIP3   OH212440   4.074   2.526   5.212 -0.3534  0.6088 -0.4342
 4159TIP3    H112441   4.168   2.534   5.227 -0.6164 -0.2358  2.1043
 4159TIP3    H212442   4.043   2.615   5.202  0.6072  0.9427 -0.5483
 4160TIP3   OH212443   6.422   5.808   4.198  0.4026  0.4420  0.1425
 4160TIP3    H112444   6.488   5.748   4.162 -2.0562 -1.1078 -2.1611
 4160TIP3    H212445   6.382   5.758   4.269  1.2050  1.1172  1.0910
 4161TIP3   OH212446   3.505   3.137   1.931  0.3793  0.2665  0.6420
 4161TIP3    H112447   3.511   3.097   1.844  3.3785 -1.4700  1.5152
 4161TIP3    H212448   3.563   3.213   1.926 -0.0280  0.5967  0.9148
 4162TIP3   OH212449   0.466   0.364   3.379 -0.1867  0.8776  0.5004
 4162TIP3    H112450   0.376   0.393   3.392 -0.4185 -0.4448  2.2291
 4162TIP3    H212451   0.473   0.284   3.431  1.8241  0.6308 -0.0669
 4163TIP3   OH212452   0.654   5.859   2.160  0.1008  0.3021  0.1041
 4163TIP3    H112453   0.558   5.859   2.157  0.0924 -0.3842  0.1110
 4163TIP3    H212454   0.678   5.770   2.136  0.7761  0.7094 -0.7707
 4164TIP3   OH212455   4.868   1.484   1.215 -0.2742 -0.0935  0.5338
 4164TIP3    H112456   4.919   1.405   1.232 -0.8870 -0.3941  0.9909
 4164TIP3    H212457   4.850   1.482   1.121  1.3620  0.5111  0.1681
 4165TIP3   OH212458   0.971   4.324   4.517 -0.0372  0.0972 -0.2963
 4165TIP3    H112459   1.013   4.285   4.593  0.3919  0.7083 -0.2138
 4165TIP3    H212460   0.896   4.371   4.553 -0.4731 -0.5087 -0.3810
 4166TIP3   OH212461   5.066   3.036   1.452 -0.0930 -0.2145 -0.3090
 4166TIP3    H112462   5.147   3.086   1.447  0.3587 -0.8072  0.6805
 4166TIP3    H212463   5.076   2.966   1.388  0.2835 -0.4175 -0.0310
 4167TIP3   OH212464   0.890   3.231   4.954 -0.5347  0.3316 -0.5175
 4167TIP3    H112465   0.881   3.194   4.866 -0.5036  1.8281 -1.1986
 4167TIP3    H212466   0.974   3.276   4.953 -0.6238  0.5361  0.2164
 4168TIP3   OH212467   5.048   4.492   1.578  0.0027  0.2684  0.3114
 4168TIP3    H112468   5.111   4.553   1.539 -0.0400  0.3083  0.3040
 4168TIP3    H212469   4.964   4.536   1.568 -0.0653  0.0788  0.0441
 4169TIP3   OH212470   2.995   0.659   5.438  0.1504  0.0913 -0.1237
 4169TIP3    H112471   3.041   0.610   5.369 -0.3855 -1.5340  0.6059
 4169TIP3    H212472   2.941   0.593   5.481 -0.0316  1.2078  1.4272
 4170TIP3   OH212473   4.285   1.870   4.363  0.0925 -0.2306 -0.2926
 4170TIP3    H112474   4.311   1.779   4.348  0.3318 -0.3630  0.8098
 4170TIP3    H212475   4.299   1.914   4.279  2.8228 -0.5488 -0.0799
 4171TIP3   OH212476   6.043   2.689   1.005  0.3003 -0.2088  0.1313
 4171TIP3    H112477   6.029   2.740   1.084 -0.3559  0.0093 -0.1174
 4171TIP3    H212478   5.961   2.641   0.992 -0.5628  1.5947 -1.7172
 4172TIP3   OH212479   6.879   0.579   3.077  0.0809 -0.6644  0.2164
 4172TIP3    H112480   6.799   0.549   3.033  0.7539 -1.2122 -0.6669
 4172TIP3    H212481   6.947   0.571   3.010  1.0580 -1.1219  1.2376
 4173TIP3   OH212482   2.819   4.451   4.394 -0.2040 -0.0189 -0.4237
 4173TIP3    H112483   2.845   4.382   4.333 -0.3803 -1.5716  1.1866
 4173TIP3    H212484   2.851   4.421   4.479 -1.5950  1.1661  0.5637
 4174TIP3   OH212485   6.446   4.288   1.081  0.1667 -0.3062  0.3064
 4174TIP3    H112486   6.513   4.326   1.136  0.3892  0.4500 -0.4784
 4174TIP3    H212487   6.467   4.194   1.079  1.8324  0.0565 -0.7847
 4175TIP3   OH212488   0.583   6.378   2.117  0.2932 -0.6665  0.1682
 4175TIP3    H112489   0.640   6.301   2.112 -0.5581 -1.3776  1.1228
 4175TIP3    H212490   0.629   6.438   2.175  1.1198 -0.2940 -0.8417
 4176TIP3   OH212491   6.682   2.338   4.863  0.3553  0.3474  0.3700
 4176TIP3    H112492   6.720   2.398   4.928  0.5992  0.6886 -0.0851
 4176TIP3    H212493   6.723   2.253   4.882 -0.0806  0.2877  1.0927
 4177TIP3   OH212494   3.366   3.379   2.591  0.1689 -0.2501 -0.2841
 4177TIP3    H112495   3.341   3.317   2.660 -0.6239  1.0471  0.6326
 4177TIP3    H212496   3.409   3.450   2.638 -1.8840  1.4825 -0.8820
 4178TIP3   OH212497   4.669   6.242   2.265 -0.1623  0.6196  0.2780
 4178TIP3    H112498   4.650   6.207   2.352 -1.3808 -1.3008 -0.6764
 4178TIP3    H212499   4.669   6.165   2.208  1.8390  1.6588 -1.2612
 4179TIP3   OH212500   2.178   4.034   5.220  0.4612 -0.1233 -0.4698
 4179TIP3    H112501   2.175   3.941   5.245 -0.9588 -0.4574 -1.7558
 4179TIP3    H212502   2.257   4.041   5.166  1.7902 -0.0643  1.3601
 4180TIP3   OH212503   6.176   3.182   3.350 -0.4152  0.6141  0.1549
 4180TIP3    H112504   6.174   3.097   3.395 -0.9464 -0.4219 -1.7452
 4180TIP3    H212505   6.084   3.205   3.338 -0.2929  0.6034 -0.8575
 4181TIP3   OH212506   5.179   3.568   0.461 -0.4504  0.0449 -0.3346
 4181TIP3    H112507   5.250   3.504   0.462  0.9422  1.5015  1.4539
 4181TIP3    H212508   5.112   3.529   0.404  0.6161 -2.6319  0.1002
 4182TIP3   OH212509   6.120   4.111   5.214 -0.0082  0.0593  0.0314
 4182TIP3    H112510   6.187   4.146   5.272  0.1997  0.2488 -0.3219
 4182TIP3    H212511   6.169   4.072   5.142 -0.2184 -1.1574  0.5108
 4183TIP3   OH212512   5.360   2.017   5.531  0.3606  0.1698 -0.4293
 4183TIP3    H112513   5.395   2.045   5.446 -1.0082  0.0207 -1.0638
 4183TIP3    H212514   5.426   1.957   5.565  1.5980  1.2955 -0.7253
 4184TIP3   OH212515   1.670   0.688   0.222 -0.1258  0.6294 -0.3641
 4184TIP3    H112516   1.654   0.690   0.317  1.1029 -0.9315 -0.0786
 4184TIP3    H212517   1.584   0.701   0.183 -0.4028  3.5706  0.8888
 4185TIP3   OH212518   3.619   3.360   5.857 -0.0024 -0.0525 -0.0598
 4185TIP3    H112519   3.563   3.403   5.792  0.0424  1.5563  0.9087
 4185TIP3    H212520   3.672   3.431   5.893 -0.4975 -0.7701  2.2216
 4186TIP3   OH212521   5.791   2.689   3.706 -0.5076 -0.2074 -0.5129
 4186TIP3    H112522   5.802   2.769   3.758  0.6232 -0.6010 -0.1108
 4186TIP3    H212523   5.710   2.650   3.739  1.2220 -1.5971  2.6243
 4187TIP3   OH212524   0.280   0.579   2.616  0.5640  0.1583 -0.1160
 4187TIP3    H112525   0.251   0.581   2.707 -0.7023  0.1072 -0.5079
 4187TIP3    H212526   0.232   0.506   2.576  1.7583 -0.3895 -0.6307
 4188TIP3   OH212527   0.313   0.412   0.787 -0.0892  0.4433 -0.0648
 4188TIP3    H112528   0.309   0.333   0.840  2.7143 -0.7456 -1.3778
 4188TIP3    H212529   0.336   0.481   0.849 -2.3201  0.2390  1.0610
 4189TIP3   OH212530   4.948   2.908   4.503 -0.1151 -0.4795 -0.1075
 4189TIP3    H112531   5.000   2.863   4.569  1.0000  0.2458 -0.4555
 4189TIP3    H212532   4.861   2.867   4.508  0.3116 -1.3018  0.9073
 4190TIP3   OH212533   4.450   4.932   3.218  0.5229  0.0241 -0.2032
 4190TIP3    H112534   4.543   4.932   3.241  0.6898  1.9207 -0.6523
 4190TIP3    H212535   4.428   5.025   3.210 -0.6704 -0.3798 -2.9135
 4191TIP3   OH212536   0.926   0.105   0.955  0.2996 -0.2720 -0.8183
 4191TIP3    H112537   0.906   0.086   0.863  1.0732 -3.6658 -0.4095
 4191TIP3    H212538   0.871   0.045   1.005  2.3850 -0.9976  0.7447
 4192TIP3   OH212539   2.980   4.528   5.552  0.2042  0.0046 -0.3469
 4192TIP3    H112540   2.927   4.607   5.539  0.4051  0.2298  0.1557
 4192TIP3    H212541   2.918   4.456   5.541 -0.2730  0.2745  0.4910
 4193TIP3   OH212542   5.293   3.030   3.175  0.2129  0.0745 -0.9095
 4193TIP3    H112543   5.223   3.037   3.239  0.5640  0.3214 -0.5414
 4193TIP3    H212544   5.251   3.045   3.091  0.1974  2.7611 -0.5056
 4194TIP3   OH212545   6.967   4.209   1.427 -0.1754  0.3747  0.1630
 4194TIP3    H112546   7.061   4.200   1.413  0.1979  1.1714  1.9208
 4194TIP3    H212547   6.940   4.125   1.463 -0.0274  0.3570  0.2328
 4195TIP3   OH212548   2.123   2.737   4.836  0.1624  0.2460  0.2694
 4195TIP3    H112549   2.067   2.747   4.914  0.3427  0.7325  0.3396
 4195TIP3    H212550   2.068   2.690   4.773 -1.1409  2.6083 -0.4683
 4196TIP3   OH212551   0.555   4.411   0.285 -0.0848  0.7967  0.2659
 4196TIP3    H112552   0.563   4.354   0.362  1.1919 -0.1506 -0.5346
 4196TIP3    H212553   0.637   4.461   0.284 -0.1763  0.9366 -0.3731
 4197TIP3   OH212554   2.196   3.140   3.399  0.1949 -0.3509 -0.3053
 4197TIP3    H112555   2.144   3.173   3.326  1.0666 -0.2354 -0.8849
 4197TIP3    H212556   2.286   3.142   3.367  1.1353  3.2225  1.9487
 4198TIP3   OH212557   0.912   6.022   3.446  0.0210 -0.0299 -0.4834
 4198TIP3    H112558   0.836   6.081   3.445  0.2681  0.3270  0.5253
 4198TIP3    H212559   0.949   6.030   3.358 -0.3123  0.8641 -0.5583
 4199TIP3   OH212560   0.385   1.346   3.947  0.0925  0.4522 -0.1440
 4199TIP3    H112561   0.360   1.254   3.953 -1.9076  0.7695 -2.1790
 4199TIP3    H212562   0.468   1.352   3.995  1.4586 -2.8514 -1.7861
 4200TIP3   OH212563   0.342   4.760   4.927  0.4964 -0.4321  0.2060
 4200TIP3    H112564   0.273   4.696   4.910  0.2403 -0.2405  0.5026
 4200TIP3    H212565   0.317   4.800   5.010  0.2796  0.5227 -0.2954
 4201TIP3   OH212566   3.004   0.173   1.010  0.2255 -0.5109 -0.2954
 4201TIP3    H112567   3.077   0.217   0.967  1.2396  0.7278  2.5176
 4201TIP3    H212568   2.937   0.240   1.019 -1.5523 -1.6901 -3.0780
 4202TIP3   OH212569   2.551   0.433   0.367 -0.4926  0.2674  0.3997
 4202TIP3    H112570   2.629   0.388   0.334 -1.2253 -0.3572 -0.5355
 4202TIP3    H212571   2.579   0.524   0.379 -0.1651  0.5522 -1.9980
 4203TIP3   OH212572   1.339   6.396   5.070 -0.6185  0.6148  0.4795
 4203TIP3    H112573   1.353   6.310   5.109 -1.2573 -0.3986 -1.4293
 4203TIP3    H212574   1.380   6.457   5.132  1.7196 -1.2043  0.8572
 4204TIP3   OH212575   4.978   6.350   3.130  0.0167  0.0216 -0.0532
 4204TIP3    H112576   4.890   6.330   3.098  0.8737  1.2609 -3.6577
 4204TIP3    H212577   4.969   6.433   3.177 -1.0089 -1.0016  1.6951
 4205TIP3   OH212578   3.032   2.161   4.341  0.1698 -0.0350 -0.1225
 4205TIP3    H112579   3.103   2.224   4.339  0.8987 -0.8102  0.5030
 4205TIP3    H212580   3.058   2.094   4.278  0.7578 -1.0831  1.1838
 4206TIP3   OH212581   2.902   5.590   1.981 -0.0144  0.4561 -0.3470
 4206TIP3    H112582   2.982   5.550   2.016 -1.1457 -0.0157  1.8872
 4206TIP3    H212583   2.878   5.535   1.907  1.7105  0.6303 -1.0918
 4207TIP3   OH212584   1.873   1.763   2.107 -0.0121 -0.4004 -0.0441
 4207TIP3    H112585   1.947   1.783   2.164  0.6985 -1.4345 -0.5577
 4207TIP3    H212586   1.824   1.844   2.101  1.3033  0.4255  0.0110
 4208TIP3   OH212587   3.948   1.862   4.685 -0.2485  0.1809 -0.1066
 4208TIP3    H112588   3.999   1.820   4.616 -0.4313 -1.0127  0.4518
 4208TIP3    H212589   4.002   1.853   4.764 -0.2625  1.0851  0.0233
 4209TIP3   OH212590   2.632   3.722   2.169  0.1690  0.2213 -0.7531
 4209TIP3    H112591   2.700   3.758   2.226  0.6687 -2.3772  0.4320
 4209TIP3    H212592   2.553   3.720   2.223 -0.4336  1.5048 -1.5305
 4210TIP3   OH212593   4.336   3.278   0.154 -0.5645  0.4271  0.5113
 4210TIP3    H112594   4.419   3.232   0.161 -1.1106 -0.6114  0.4000
 4210TIP3    H212595   4.284   3.246   0.228 -0.7627  1.3075  0.7700
 4211TIP3   OH212596   5.155   0.497   4.485  0.5336  0.4620  0.6498
 4211TIP3    H112597   5.193   0.410   4.471 -0.9647 -0.6710  3.0219
 4211TIP3    H212598   5.082   0.501   4.424  0.3916 -0.0983  0.7756
 4212TIP3   OH212599   1.374   4.693   5.590 -0.3101  0.1857 -0.2150
 4212TIP3    H112600   1.345   4.771   5.638 -0.7759  0.6319 -1.2067
 4212TIP3    H212601   1.423   4.727   5.515  3.1377 -0.5266  1.4981
 4213TIP3   OH212602   1.211   5.023   3.526  0.2333  0.2769  0.4459
 4213TIP3    H112603   1.162   5.098   3.559  0.6518  0.4944  0.5840
 4213TIP3    H212604   1.289   5.019   3.582 -0.3856 -1.0249  1.2617
 4214TIP3   OH212605   6.510   6.623   1.894 -0.1858  0.3045  0.0145
 4214TIP3    H112606   6.495   6.542   1.944 -2.8741  0.0435 -1.0595
 4214TIP3    H212607   6.601   6.616   1.865  0.1243 -1.5921  1.2391
 4215TIP3   OH212608   3.731   4.443   5.658  0.7043  0.1218  0.1497
 4215TIP3    H112609   3.820   4.477   5.661  1.0259 -0.6278 -0.7591
 4215TIP3    H212610   3.684   4.504   5.601  1.2203 -0.7647 -1.2722
 4216TIP3   OH212611   1.128   3.345   4.968  0.0298  0.3995 -0.9449
 4216TIP3    H112612   1.190   3.294   5.019  0.2823 -0.2199 -1.8408
 4216TIP3    H212613   1.138   3.435   5.000  1.7615  0.4048 -1.3836
 4217TIP3   OH212614   3.747   1.207   5.780  0.5720 -0.2931  0.0876
 4217TIP3    H112615   3.798   1.134   5.815 -0.6301 -0.3988  1.7807
 4217TIP3    H212616   3.741   1.190   5.686  2.4811 -0.9707  0.0626
 4218TIP3   OH212617   3.438   2.139   2.630  0.0327  0.0984  0.2267
 4218TIP3    H112618   3.413   2.228   2.608 -0.3295 -0.1156 -0.2520
 4218TIP3    H212619   3.405   2.125   2.718  2.9646  1.5462  1.7055
 4219TIP3   OH212620   2.690   6.165   3.747  0.3650 -0.2125  0.5264
 4219TIP3    H112621   2.655   6.251   3.774 -0.8859 -0.5008 -0.0741
 4219TIP3    H212622   2.685   6.112   3.826  2.6510  0.6736  1.3400
 4220TIP3   OH212623   0.706   2.040   3.241 -0.2516 -0.4844  0.6719
 4220TIP3    H112624   0.797   2.045   3.213 -0.0798  0.6571  1.3716
 4220TIP3    H212625   0.697   2.110   3.306 -1.2107 -1.5962  1.7999
 4221TIP3   OH212626   1.074   6.265   3.525 -0.5708  0.2205  0.5456
 4221TIP3    H112627   1.049   6.180   3.489 -0.1857  0.6214 -0.7093
 4221TIP3    H212628   1.072   6.252   3.620  0.5760 -1.5113  0.3823
 4222TIP3   OH212629   1.526   6.346   4.397  0.3027 -0.6989 -0.2161
 4222TIP3    H112630   1.577   6.289   4.455  2.3036  1.3894  0.1960
 4222TIP3    H212631   1.578   6.351   4.317 -0.7429 -0.8350 -0.9258
 4223TIP3   OH212632   3.495   4.295   2.411 -0.2899  0.0517  0.1361
 4223TIP3    H112633   3.426   4.361   2.419 -0.7973 -0.7136  2.7909
 4223TIP3    H212634   3.569   4.343   2.372 -1.9523  1.0840 -1.9634
 4224TIP3   OH212635   3.938   5.196   4.239 -0.2476  0.2763  0.0232
 4224TIP3    H112636   3.937   5.164   4.149 -1.0536  0.7105 -0.1357
 4224TIP3    H212637   3.921   5.118   4.292  0.5422 -0.0354 -0.1757
 4225TIP3   OH212638   3.904   6.808   1.241  0.0720 -0.0192 -0.3671
 4225TIP3    H112639   3.812   6.799   1.215 -0.1103 -1.0293  0.5692
 4225TIP3    H212640   3.916   6.743   1.309  1.4089  0.3370 -0.2397
 4226TIP3   OH212641   5.797   5.026   1.905  0.2444 -0.1524 -0.1930
 4226TIP3    H112642   5.795   5.116   1.869 -1.8701 -0.7915 -1.9319
 4226TIP3    H212643   5.774   5.037   1.997  1.4708  1.1891  0.0034
 4227TIP3   OH212644   0.554   5.011   4.330 -0.1531 -0.3896  0.1492
 4227TIP3    H112645   0.534   4.918   4.319 -0.8770 -0.3720  1.2091
 4227TIP3    H212646   0.504   5.038   4.407  0.0415  0.8870 -0.1457
 4228TIP3   OH212647   1.359   4.950   5.369 -0.3600  0.7417 -0.2204
 4228TIP3    H112648   1.422   4.878   5.359  0.0937  0.9070  1.2334
 4228TIP3    H212649   1.278   4.917   5.331 -0.8142 -1.4547  2.3887
 4229TIP3   OH212650   5.930   6.695   3.382 -0.0094  0.4485  0.1550
 4229TIP3    H112651   5.990   6.698   3.308  0.3567  1.3357  0.4678
 4229TIP3    H212652   5.966   6.628   3.440 -0.4232 -0.4134 -0.5563
 4230TIP3   OH212653   3.814   4.689   5.110  0.0753  0.0492 -0.8320
 4230TIP3    H112654   3.874   4.619   5.083 -0.1405 -0.1052 -0.9098
 4230TIP3    H212655   3.807   4.745   5.033  2.1878  1.5425 -0.0424
 4231TIP3   OH212656   5.145   4.186   4.274  0.3022 -0.1501 -0.2819
 4231TIP3    H112657   5.201   4.205   4.349  1.7112 -1.0856 -1.0539
 4231TIP3    H212658   5.068   4.142   4.312  0.6277  0.0697  0.6683
 4232TIP3   OH212659   7.008   2.663   3.299 -0.1270 -0.8568 -0.4919
 4232TIP3    H112660   6.942   2.694   3.237  2.3171  1.5875 -2.1276
 4232TIP3    H212661   7.092   2.683   3.256  1.7078 -1.6999  2.4111
 4233TIP3   OH212662   0.839   6.025   1.834 -0.4871 -0.4267 -0.0164
 4233TIP3    H112663   0.855   6.069   1.751  2.0298 -0.8834  0.1625
 4233TIP3    H212664   0.788   5.947   1.811 -2.1698  0.8106 -0.7314
 4234TIP3   OH212665   6.779   5.269   0.477  0.0195  0.4202  0.3176
 4234TIP3    H112666   6.799   5.178   0.457 -3.0246 -0.2237 -0.3137
 4234TIP3    H212667   6.814   5.318   0.402 -1.0052 -0.6348 -0.9056
 4235TIP3   OH212668   6.800   3.026   4.056 -0.3241  0.1944  0.1412
 4235TIP3    H112669   6.855   3.089   4.101 -0.1622 -0.4527  0.8649
 4235TIP3    H212670   6.718   3.025   4.105 -0.4319  0.0485 -0.0381
 4236TIP3   OH212671   1.974   5.968   2.355  0.1641  0.3759 -0.1674
 4236TIP3    H112672   2.040   5.978   2.286  1.4479  0.5615  1.0476
 4236TIP3    H212673   1.957   6.057   2.385 -0.6733  0.3297 -0.4736
 4237TIP3   OH212674   2.012   4.518   0.254  0.3228 -0.1185  0.0651
 4237TIP3    H112675   2.041   4.594   0.203 -0.4350  1.7156  2.2246
 4237TIP3    H212676   2.092   4.484   0.295  0.8657 -1.3392 -1.8348
 4238TIP3   OH212677   3.825   4.862   0.694  0.2116 -0.0652  0.0364
 4238TIP3    H112678   3.879   4.834   0.768 -0.9060  0.9463  1.2890
 4238TIP3    H212679   3.751   4.802   0.694 -1.0079  1.3350  1.2941
 4239TIP3   OH212680   6.093   3.628   5.401 -0.0841  0.0946 -0.2517
 4239TIP3    H112681   6.101   3.613   5.495  1.2751  1.2406 -0.1434
 4239TIP3    H212682   6.147   3.560   5.361  1.3314  1.0511 -0.0503
 4240TIP3   OH212683   5.092   6.554   1.820 -0.6924  0.5463  0.4006
 4240TIP3    H112684   5.087   6.496   1.896 -1.4671  1.1936  0.8559
 4240TIP3    H212685   5.016   6.531   1.767 -1.5939  1.8070  1.0878
 4241TIP3   OH212686   0.367   1.457   1.056 -0.1448 -0.5867  0.7282
 4241TIP3    H112687   0.294   1.401   1.081  0.2933 -0.9921  1.1168
 4241TIP3    H212688   0.330   1.546   1.057 -0.9747 -0.8929 -0.4167
 4242TIP3   OH212689   3.603   5.326   1.780  0.0302  0.0816 -0.6435
 4242TIP3    H112690   3.644   5.413   1.785 -0.7784  0.4162  0.4616
 4242TIP3    H212691   3.642   5.277   1.852  0.0364 -0.2873 -0.8935
 4243TIP3   OH212692   5.522   2.514   3.772 -0.1151  0.5965  0.1336
 4243TIP3    H112693   5.443   2.567   3.781 -1.1036 -0.4945 -1.5461
 4243TIP3    H212694   5.517   2.452   3.845 -1.6249 -0.4022 -0.7660
 4244TIP3   OH212695   2.521   2.318   3.512  0.0402 -0.4308  0.0768
 4244TIP3    H112696   2.554   2.407   3.516  1.7810 -1.0748  1.0490
 4244TIP3    H212697   2.595   2.266   3.480 -0.2091 -1.8324  1.6433
 4245TIP3   OH212698   0.034   2.638   0.152 -0.1194  0.8846  0.0733
 4245TIP3    H112699   0.097   2.663   0.219  0.4540 -2.3540  0.8860
 4245TIP3    H212700  -0.015   2.566   0.190 -0.7718 -0.1214 -2.4497
 4246TIP3   OH212701   0.674   5.621   4.470  0.7692 -0.1160  0.4813
 4246TIP3    H112702   0.749   5.579   4.428  1.0709  0.8907 -0.0200
 4246TIP3    H212703   0.607   5.623   4.401  1.1277  1.1788  0.1494
 4247TIP3   OH212704   0.379   5.571   2.931  0.1242  0.2127 -0.1221
 4247TIP3    H112705   0.469   5.603   2.925 -1.6525  6.5711 -0.0219
 4247TIP3    H212706   0.359   5.573   3.024 -0.2035 -1.3959 -0.1234
 4248TIP3   OH212707   2.995   0.601   1.847 -0.1071  0.3082 -0.2399
 4248TIP3    H112708   3.083   0.609   1.809 -0.8782  0.4742 -2.0940
 4248TIP3    H212709   3.002   0.528   1.909  1.7260  1.3851  0.8943
 4249TIP3   OH212710   5.456   3.936   4.795  0.2439  0.2239  0.0562
 4249TIP3    H112711   5.492   3.954   4.708  0.9760  0.6274  0.4395
 4249TIP3    H212712   5.498   3.854   4.822  0.7222  0.5831  0.4136
 4250TIP3   OH212713   0.256   1.151   0.824  0.4831  0.5586 -0.0356
 4250TIP3    H112714   0.163   1.142   0.802  0.0046  0.4209  1.9158
 4250TIP3    H212715   0.261   1.132   0.918  2.2773  1.9582  0.2074
 4251TIP3   OH212716   4.201   1.800   4.910  0.8481 -0.0991  0.1143
 4251TIP3    H112717   4.272   1.769   4.853  1.2635 -0.5081  0.8434
 4251TIP3    H212718   4.237   1.879   4.951  0.4858  0.2916 -0.3132
 4252TIP3   OH212719   6.544   3.126   0.345  0.4324  0.3413  0.0214
 4252TIP3    H112720   6.574   3.201   0.293  1.0262 -0.3941 -0.7278
 4252TIP3    H212721   6.483   3.079   0.287  2.7291 -1.6878 -0.9328
 4253TIP3   OH212722   0.126   4.701   2.921 -0.4904 -0.2261 -0.4247
 4253TIP3    H112723   0.180   4.622   2.925  1.5931  1.0514 -1.8453
 4253TIP3    H212724   0.169   4.757   2.857 -1.9244  2.0777  0.5008
 4254TIP3   OH212725   5.345   6.192   0.429  0.3289 -0.3378  0.5628
 4254TIP3    H112726   5.273   6.254   0.440 -0.7973 -1.4073 -0.5443
 4254TIP3    H212727   5.339   6.134   0.505  0.2702 -0.1900  0.6714
 4255TIP3   OH212728   6.136   6.055   0.933  0.3740  0.2652 -0.5230
 4255TIP3    H112729   6.185   6.070   1.014 -1.0784  0.5885  0.3253
 4255TIP3    H212730   6.102   6.141   0.908 -2.4736 -0.3937  0.7420
 4256TIP3   OH212731   0.917   5.525   2.369  0.6677  0.4420  0.2507
 4256TIP3    H112732   0.941   5.605   2.323 -1.3102  1.3632  0.7190
 4256TIP3    H212733   0.951   5.538   2.458  0.1293  0.8892  0.3962
 4257TIP3   OH212734   1.425   6.263   0.139  0.5193  0.2607 -0.7060
 4257TIP3    H112735   1.368   6.311   0.200  0.5497 -1.2294  0.5398
 4257TIP3    H212736   1.483   6.331   0.103  0.4052  1.2162  0.8071
 4258TIP3   OH212737   3.421   3.958   0.313 -0.5365  0.4071  0.9429
 4258TIP3    H112738   3.335   3.932   0.281 -1.1999  1.9416  1.4055
 4258TIP3    H212739   3.419   3.937   0.407 -0.3181  0.2540  0.9156
 4259TIP3   OH212740   4.167   3.931   3.795 -0.1309 -0.2390 -0.5121
 4259TIP3    H112741   4.094   3.894   3.844 -0.4723  0.9364 -0.1168
 4259TIP3    H212742   4.243   3.923   3.853 -0.1638 -0.4675 -0.5003
 4260TIP3   OH212743   3.788   2.983   0.570  0.3065  0.1572  0.5293
 4260TIP3    H112744   3.787   2.887   0.567  0.4415  0.1735 -0.3136
 4260TIP3    H212745   3.878   3.006   0.548 -0.0626  0.5044 -0.6626
 4261TIP3   OH212746   2.235   4.846   0.802  0.2185 -0.1875  0.4859
 4261TIP3    H112747   2.320   4.824   0.839  0.6815 -0.6062 -0.7839
 4261TIP3    H212748   2.245   4.830   0.708 -0.2805  2.7261 -0.1500
 4262TIP3   OH212749   0.706   3.655   1.988 -0.8250  0.3348  0.0948
 4262TIP3    H112750   0.626   3.604   1.981  0.3158 -1.4162 -1.1593
 4262TIP3    H212751   0.733   3.644   2.080 -2.8856  2.4702  1.0494
 4263TIP3   OH212752   5.568   0.581   0.100 -0.1177 -0.1800  0.2240
 4263TIP3    H112753   5.587   0.489   0.118 -1.2313 -1.0610 -2.4930
 4263TIP3    H212754   5.476   0.592   0.124 -0.3745 -0.1955 -0.6890
 4264TIP3   OH212755   0.311   0.788   1.996 -0.0885 -0.4704 -0.1660
 4264TIP3    H112756   0.239   0.842   1.964  0.9317  0.1869 -1.4359
 4264TIP3    H212757   0.340   0.832   2.076  0.5149  0.7188 -1.0068
 4265TIP3   OH212758   4.109   6.702   0.051  0.0009 -0.3133 -0.6476
 4265TIP3    H112759   4.105   6.613   0.086  0.1191  0.1719  0.6430
 4265TIP3    H212760   4.201   6.727   0.061  0.4311 -0.7207 -2.8461
 4266TIP3   OH212761   5.911   2.443   3.081  0.4674 -0.2062  0.0683
 4266TIP3    H112762   5.897   2.358   3.040 -0.0832  0.9860 -2.4323
 4266TIP3    H212763   5.855   2.503   3.031 -0.8149  1.3329  3.0608
 4267TIP3   OH212764   1.914   4.634   3.102 -0.5337 -0.0428  0.2480
 4267TIP3    H112765   1.892   4.627   3.195  0.7407  0.3418  0.5955
 4267TIP3    H212766   1.917   4.544   3.071  0.8711 -0.3051  1.0492
 4268TIP3   OH212767   1.025   5.847   5.832 -0.7113  0.3875 -0.0263
 4268TIP3    H112768   1.024   5.804   5.746 -0.3634  0.0823  0.1212
 4268TIP3    H212769   1.113   5.832   5.865 -1.0542 -0.0929  0.6860
 4269TIP3   OH212770   0.692   6.349   4.519 -0.4391  0.5156 -0.9382
 4269TIP3    H112771   0.706   6.271   4.573 -1.8092  0.4687 -0.6155
 4269TIP3    H212772   0.659   6.414   4.580 -1.0885  0.7634 -1.5452
 4270TIP3   OH212773   0.795   5.697   1.536  0.3005  0.2885 -0.2118
 4270TIP3    H112774   0.835   5.704   1.623  0.4664  0.7621 -0.3219
 4270TIP3    H212775   0.706   5.732   1.548  0.0228 -0.4643 -0.0391
 4271TIP3   OH212776   7.144   5.892   3.480  0.3945  0.1771 -0.1210
 4271TIP3    H112777   7.074   5.835   3.449  1.6138 -1.1372 -0.5531
 4271TIP3    H212778   7.166   5.858   3.567  1.0099  0.0849 -0.3079
 4272TIP3   OH212779   0.760   0.279   3.262  0.1661 -0.6078 -0.1149
 4272TIP3    H112780   0.765   0.188   3.232  0.3641 -0.2058 -1.3844
 4272TIP3    H212781   0.848   0.298   3.295  0.3043 -0.6982 -0.4214
 4273TIP3   OH212782   3.695   5.513   5.732 -0.2076 -0.0227 -0.0586
 4273TIP3    H112783   3.702   5.578   5.802  1.9479  0.8793 -1.0074
 4273TIP3    H212784   3.653   5.560   5.660 -1.7864 -0.7487  0.3374
 4274TIP3   OH212785   7.129   4.619   3.151 -0.4575  0.4837 -0.3479
 4274TIP3    H112786   7.052   4.676   3.145 -1.6679 -1.1961 -1.9302
 4274TIP3    H212787   7.176   4.634   3.069  0.4107  0.7944  0.1953
 4275TIP3   OH212788   6.739   0.589   4.624 -0.0290  0.3504 -0.1018
 4275TIP3    H112789   6.682   0.579   4.700  1.7207 -0.1730  1.2077
 4275TIP3    H212790   6.715   0.673   4.586 -0.0823  1.2227  1.7848
 4276TIP3   OH212791   3.270   0.831   0.751 -0.1849 -0.0059 -0.3392
 4276TIP3    H112792   3.204   0.770   0.716 -1.5528 -0.0163  2.0660
 4276TIP3    H212793   3.289   0.797   0.838  0.7934  1.7099  0.1454
 4277TIP3   OH212794   6.260   6.166   1.203  0.0268  0.1768  0.2369
 4277TIP3    H112795   6.338   6.217   1.225 -0.2988  1.0011 -0.4557
 4277TIP3    H212796   6.187   6.225   1.220 -0.2951  0.4233 -1.7626
 4278TIP3   OH212797   3.468   3.095   4.163 -0.0024 -0.1919 -0.2123
 4278TIP3    H112798   3.481   3.088   4.258  0.4487 -0.2960 -0.2812
 4278TIP3    H212799   3.546   3.141   4.131 -0.2176 -0.0321 -0.5179
 4279TIP3   OH212800   2.568   0.541   0.731 -0.0269 -0.8680  0.6037
 4279TIP3    H112801   2.572   0.635   0.748  0.0969 -0.8404  0.4173
 4279TIP3    H212802   2.562   0.533   0.636 -0.5922 -1.0309  0.6492
 4280TIP3   OH212803   1.891   1.713   4.828 -1.0375  0.0486  0.0978
 4280TIP3    H112804   1.826   1.702   4.758 -0.9185  0.2639 -0.0484
 4280TIP3    H212805   1.935   1.795   4.807  1.3872 -1.5383 -1.5585
 4281TIP3   OH212806   3.667   3.331   2.010  0.2241  0.8318 -0.4290
 4281TIP3    H112807   3.757   3.299   2.015 -0.5546 -1.6492 -0.6890
 4281TIP3    H212808   3.630   3.310   2.096 -1.2899 -2.4642 -1.7049
 4282TIP3   OH212809   1.531   6.474   4.702 -0.0954 -0.2153  0.5060
 4282TIP3    H112810   1.530   6.382   4.675 -1.0631 -0.0564 -0.0772
 4282TIP3    H212811   1.445   6.507   4.676  0.4243  0.9884  0.2412
 4283TIP3   OH212812   5.688   1.297   2.348  0.3163  0.1595  0.2217
 4283TIP3    H112813   5.687   1.304   2.443 -0.6188  3.9966  0.0894
 4283TIP3    H212814   5.770   1.338   2.322  0.5822 -0.8939 -0.6711
 4284TIP3   OH212815   4.371   2.998   3.081  0.1958 -0.6222  0.3340
 4284TIP3    H112816   4.378   2.922   3.023 -2.4438 -0.6541 -0.0478
 4284TIP3    H212817   4.440   3.057   3.051  1.1115 -2.0693 -0.5609
 4285TIP3   OH212818   3.605   0.662   4.319  0.1873 -0.1850  0.0876
 4285TIP3    H112819   3.514   0.691   4.314 -0.3155 -1.1914  2.2495
 4285TIP3    H212820   3.652   0.737   4.355 -0.4146 -0.6986  2.0367
 4286TIP3   OH212821   2.378   2.285   0.396 -0.6915  0.3048  0.1059
 4286TIP3    H112822   2.320   2.319   0.464 -1.3435 -0.5002 -0.0444
 4286TIP3    H212823   2.321   2.232   0.340  0.0367  0.1467 -0.4938
 4287TIP3   OH212824   2.990   2.990   3.286  0.4729  0.5549  0.2113
 4287TIP3    H112825   2.941   2.917   3.324  1.3190  0.5967  1.4603
 4287TIP3    H212826   3.010   3.046   3.361  0.5108  1.6729 -0.6165
 4288TIP3   OH212827   5.501   6.110   1.600  1.1174  0.0596 -0.3296
 4288TIP3    H112828   5.551   6.060   1.664  0.3381  0.7531  0.8439
 4288TIP3    H212829   5.436   6.158   1.651  1.3448  1.6825 -1.4804
 4289TIP3   OH212830   5.975   4.373   0.125  0.4608  0.1273 -0.4428
 4289TIP3    H112831   5.940   4.383   0.036 -2.5067 -1.0970  0.4615
 4289TIP3    H212832   5.977   4.462   0.160  0.5420  0.4854 -1.3223
 4290TIP3   OH212833   4.555   6.159   2.512 -0.3009 -0.5711 -0.4712
 4290TIP3    H112834   4.469   6.118   2.513 -0.8750  0.4602  2.3940
 4290TIP3    H212835   4.603   6.114   2.582  0.6637  0.4559 -0.4464
 4291TIP3   OH212836   4.392   1.840   2.252  0.2441  0.1699 -0.2443
 4291TIP3    H112837   4.350   1.763   2.214  0.9239  0.1619 -1.0229
 4291TIP3    H212838   4.470   1.854   2.197 -0.0731  1.6376 -0.3669
 4292TIP3   OH212839   3.810   3.750   3.622  0.2529 -0.1780 -0.0382
 4292TIP3    H112840   3.844   3.780   3.706 -0.7590  0.0347  0.3117
 4292TIP3    H212841   3.773   3.664   3.641 -0.9831  0.3436  0.0011
 4293TIP3   OH212842   2.104   6.074   5.899  0.2149  0.1017  0.0412
 4293TIP3    H112843   2.046   6.026   5.840  0.4782 -0.5193  0.2760
 4293TIP3    H212844   2.189   6.072   5.855  0.1128  0.8328 -0.2066
 4294TIP3   OH212845   4.772   3.556   4.419  0.0968 -0.2809 -0.0624
 4294TIP3    H112846   4.782   3.541   4.513  0.1580 -0.2080 -0.0578
 4294TIP3    H212847   4.682   3.528   4.400 -0.7538  1.9451  0.4460
 4295TIP3   OH212848   5.957   1.341   0.603 -0.1426 -0.0610  0.3710
 4295TIP3    H112849   5.918   1.340   0.516  1.3917 -0.6373 -0.3427
 4295TIP3    H212850   5.964   1.435   0.624 -1.5794  0.0636  0.4055
 4296TIP3   OH212851   7.013   2.891   5.516 -0.0277 -0.0145 -0.0628
 4296TIP3    H112852   6.918   2.893   5.500 -0.2813 -0.3488  1.3060
 4296TIP3    H212853   7.027   2.811   5.566  1.2013 -0.6892 -1.4101
 4297TIP3   OH212854   2.261   1.535   0.927  0.5862  0.1368 -0.0625
 4297TIP3    H112855   2.341   1.517   0.878  0.8116 -0.3263  0.4656
 4297TIP3    H212856   2.254   1.462   0.989 -1.0669 -0.6730 -1.1246
 4298TIP3   OH212857   2.732   6.209   2.923  0.2634 -0.0777 -0.2942
 4298TIP3    H112858   2.791   6.269   2.968 -0.3557  2.0918 -2.1414
 4298TIP3    H212859   2.654   6.207   2.977 -0.3680  2.2635 -0.9665
 4299TIP3   OH212860   6.274   4.374   2.640  0.0807 -0.0435 -0.0805
 4299TIP3    H112861   6.191   4.328   2.629  0.2856 -0.6456  0.7743
 4299TIP3    H212862   6.259   4.461   2.603 -1.0900  0.0154  0.4906
 4300TIP3   OH212863   5.868   2.358   2.653 -0.1797  0.4999 -0.0702
 4300TIP3    H112864   5.881   2.320   2.566 -0.3097 -1.5696  0.7498
 4300TIP3    H212865   5.955   2.384   2.682  0.1478 -0.5364 -0.0950
 4301TIP3   OH212866   1.198   5.662   4.905 -0.0674 -0.4081 -0.2121
 4301TIP3    H112867   1.248   5.618   4.836  1.2405  1.9926 -0.9174
 4301TIP3    H212868   1.110   5.627   4.898  0.2965 -0.9944 -2.4002
 4302TIP3   OH212869   6.514   3.202   0.612  0.2648  0.0673 -0.3116
 4302TIP3    H112870   6.555   3.150   0.681 -0.8419  0.1820  0.4433
 4302TIP3    H212871   6.515   3.144   0.536 -0.1047 -0.7199  0.2738
 4303TIP3   OH212872   4.666   1.638   2.381  0.3134  0.0403 -0.3280
 4303TIP3    H112873   4.570   1.642   2.374  0.3773  2.3700 -0.6957
 4303TIP3    H212874   4.684   1.654   2.473  0.3653  0.8655 -0.4743
 4304TIP3   OH212875   6.739   1.893   1.714  0.2931 -0.8737 -0.8615
 4304TIP3    H112876   6.739   1.910   1.620 -0.7671  0.2342 -0.6911
 4304TIP3    H212877   6.742   1.980   1.755  2.3354 -1.3698  0.1707
 4305TIP3   OH212878   0.294   6.494   2.269 -0.0759  0.3810  0.0670
 4305TIP3    H112879   0.319   6.534   2.186 -0.8246  1.8498  0.4955
 4305TIP3    H212880   0.231   6.556   2.306 -1.3785 -1.2973  0.7549
 4306TIP3   OH212881   0.359   6.221   5.077 -0.5238  0.0889 -0.4709
 4306TIP3    H112882   0.401   6.299   5.041 -0.9196  0.1486 -0.8104
 4306TIP3    H212883   0.303   6.254   5.147  0.8559 -0.1072  0.7824
 4307TIP3   OH212884   6.169   5.989   1.700  0.0824  0.1039  0.5049
 4307TIP3    H112885   6.159   5.950   1.787  0.4067 -0.2195  0.4018
 4307TIP3    H212886   6.199   6.078   1.717 -2.8930  1.1562  0.8286
 4308TIP3   OH212887   5.217   5.705   3.880 -0.3610  0.0718 -0.0902
 4308TIP3    H112888   5.234   5.624   3.831 -1.8329 -2.0459  2.5732
 4308TIP3    H212889   5.154   5.753   3.826  0.0232 -0.8907 -1.4360
 4309TIP3   OH212890   2.781   1.958   3.333  0.2520 -0.1299 -0.4841
 4309TIP3    H112891   2.802   1.990   3.245 -3.7253 -1.1124 -1.9909
 4309TIP3    H212892   2.849   1.893   3.351  2.7857  1.9977 -1.5082
 4310TIP3   OH212893   1.143   6.462   4.894 -0.1597  0.1581 -1.2520
 4310TIP3    H112894   1.210   6.459   4.962 -0.0962  1.6992 -1.2120
 4310TIP3    H212895   1.095   6.380   4.904  0.0308  0.2171  0.4622
 4311TIP3   OH212896   3.400   3.760   1.453  0.4098  0.3363 -0.2144
 4311TIP3    H112897   3.482   3.726   1.488 -1.2428 -1.2438  2.4661
 4311TIP3    H212898   3.410   3.855   1.456  2.2586  0.1713 -0.3258
 4312TIP3   OH212899   3.229   5.836   0.568 -0.7289  0.1455  0.8887
 4312TIP3    H112900   3.230   5.900   0.497 -0.2522  1.4530  2.0394
 4312TIP3    H212901   3.305   5.857   0.622 -0.6233 -1.3203  1.3762
 4313TIP3   OH212902   5.139   2.448   3.934 -0.0783 -0.0523  0.4950
 4313TIP3    H112903   5.167   2.436   3.844  0.6513  0.7941  0.5881
 4313TIP3    H212904   5.047   2.422   3.935  0.4394 -2.0164 -0.0311
 4314TIP3   OH212905   0.604   6.095   5.188 -0.0730  0.1357  0.1395
 4314TIP3    H112906   0.567   6.008   5.200  0.1410  0.1599  1.0511
 4314TIP3    H212907   0.540   6.140   5.132 -0.7264 -0.2666  0.5406
 4315TIP3   OH212908   6.943   1.386   3.776 -0.2227 -0.0627  0.3974
 4315TIP3    H112909   6.937   1.474   3.813  1.1096 -0.1952  0.9749
 4315TIP3    H212910   7.020   1.389   3.720 -0.4045 -0.7563  0.1015
 4316TIP3   OH212911   0.357   4.137   3.157 -0.6583 -0.0649 -0.1545
 4316TIP3    H112912   0.298   4.210   3.176 -0.0048  0.0030  1.7509
 4316TIP3    H212913   0.439   4.178   3.132 -0.4538 -0.1460  0.3814
 4317TIP3   OH212914   0.870   1.103   2.871 -0.3395 -0.2053  0.6291
 4317TIP3    H112915   0.802   1.165   2.846  0.6336  0.1701 -1.2839
 4317TIP3    H212916   0.826   1.018   2.872 -0.5590 -0.2310 -2.3481
 4318TIP3   OH212917   5.878   3.318   3.976  0.0638  0.4197  0.0447
 4318TIP3    H112918   5.884   3.363   3.891 -2.0378 -0.1807 -0.4870
 4318TIP3    H212919   5.969   3.301   4.001  0.7518  1.1764 -1.7678
 4319TIP3   OH212920   2.204   1.728   4.746 -0.7464  0.2852 -0.3469
 4319TIP3    H112921   2.159   1.667   4.688  0.7545 -0.5740 -0.6742
 4319TIP3    H212922   2.297   1.708   4.734 -0.2556  2.0154  0.2445
 4320TIP3   OH212923   0.277   3.236   0.404  0.2332  0.0015  0.4097
 4320TIP3    H112924   0.221   3.174   0.451 -1.1474  1.5639  0.9735
 4320TIP3    H212925   0.363   3.195   0.402 -0.1334 -1.0127  2.5810
 4321TIP3   OH212926   4.850   3.059   4.907  0.2316  0.3792  0.0114
 4321TIP3    H112927   4.857   3.098   4.994  0.7285  0.6334 -0.1387
 4321TIP3    H212928   4.762   3.081   4.878  0.0589  0.2817  0.4565
 4322TIP3   OH212929   0.666   0.059   5.540  0.8572 -0.0462  0.4852
 4322TIP3    H112930   0.675   0.123   5.470 -1.0076  0.1746  0.3947
 4322TIP3    H212931   0.611   0.102   5.606  0.6345 -1.0849  1.0150
 4323TIP3   OH212932   3.814   1.794   5.404  0.0503 -0.0199 -0.6611
 4323TIP3    H112933   3.900   1.829   5.380 -0.1413 -0.4652 -2.1547
 4323TIP3    H212934   3.761   1.806   5.325 -1.5415  1.0635  0.5232
 4324TIP3   OH212935   3.580   0.263   4.218  0.1262  0.1019 -0.2996
 4324TIP3    H112936   3.642   0.200   4.254 -0.2675 -0.4248 -0.5409
 4324TIP3    H212937   3.498   0.214   4.209 -0.6371  1.0444  1.0134
 4325TIP3   OH212938   1.235   5.292   4.999  0.5107  0.2060  0.0025
 4325TIP3    H112939   1.318   5.245   4.994 -0.2044 -1.7305  3.2256
 4325TIP3    H212940   1.259   5.378   5.033  1.3011  0.1360 -0.3448
 4326TIP3   OH212941   3.518   1.535   5.611  0.1545  0.1712 -0.6427
 4326TIP3    H112942   3.468   1.607   5.651 -2.1624 -1.1772 -0.9005
 4326TIP3    H212943   3.583   1.512   5.677 -0.8210  0.7700  0.5835
 4327TIP3   OH212944   0.453   1.501   1.437 -0.6471 -0.3886 -0.2124
 4327TIP3    H112945   0.489   1.542   1.516 -2.3163 -0.0824  0.4426
 4327TIP3    H212946   0.490   1.551   1.365  0.1764 -0.0688  0.4144
 4328TIP3   OH212947   7.222   2.074   4.675 -0.0369  0.6189  0.4500
 4328TIP3    H112948   7.167   2.053   4.601 -0.2818 -2.8538  1.4486
 4328TIP3    H212949   7.174   2.141   4.723 -0.6877  1.6330 -1.5372
 4329TIP3   OH212950   6.126   3.339   2.342 -0.4934 -0.2276  0.4089
 4329TIP3    H112951   6.117   3.365   2.251  1.0434 -0.1637  0.2357
 4329TIP3    H212952   6.181   3.260   2.339  0.0540  0.0952  1.3014
 4330TIP3   OH212953   2.403   1.976   3.565  1.0468  0.0261 -0.4198
 4330TIP3    H112954   2.358   1.912   3.620 -0.4229 -0.5815 -2.2112
 4330TIP3    H212955   2.481   2.000   3.615 -0.6453  0.2449  2.3073
 4331TIP3   OH212956   6.999   2.737   3.031  0.1843  0.6333  0.4697
 4331TIP3    H112957   7.028   2.652   2.998 -1.0285  0.6811 -0.8011
 4331TIP3    H212958   7.072   2.796   3.013  0.1862  0.3045 -0.6956
 4332TIP3   OH212959   3.014   0.964   3.973  0.2710  0.0103  0.1241
 4332TIP3    H112960   2.978   1.026   3.911 -0.0616 -0.5327 -0.2358
 4332TIP3    H212961   2.943   0.948   4.036  0.2324 -0.2684  0.0128
 4333TIP3   OH212962   5.972   4.358   2.261 -0.6767 -0.0301 -0.3540
 4333TIP3    H112963   5.891   4.382   2.215 -0.2111 -1.0144 -1.7355
 4333TIP3    H212964   5.998   4.275   2.222  0.0621 -0.6193  1.3229
 4334TIP3   OH212965   4.825   5.818   5.645  0.3405  0.2028  0.1426
 4334TIP3    H112966   4.886   5.764   5.595  0.4779  1.2679 -0.8697
 4334TIP3    H212967   4.739   5.793   5.610  0.2873 -0.3479  0.6494
 4335TIP3   OH212968   0.368   5.588   3.799 -0.4097  0.2500 -0.0121
 4335TIP3    H112969   0.392   5.504   3.837  0.7243 -0.4034 -1.9809
 4335TIP3    H212970   0.285   5.611   3.840  1.3097  0.3475  3.7715
 4336TIP3   OH212971   3.989   1.848   3.805  0.2005 -0.2706  0.0763
 4336TIP3    H112972   3.900   1.836   3.769  1.0052 -2.2902 -1.4607
 4336TIP3    H212973   4.020   1.930   3.766 -0.4990 -0.2575 -0.4798
 4337TIP3   OH212974   5.068   4.931   3.722  0.2749 -0.5392  0.1536
 4337TIP3    H112975   5.112   4.861   3.674 -0.3868 -2.5924  2.3317
 4337TIP3    H212976   4.977   4.901   3.731  0.2648 -0.0937  2.2536
 4338TIP3   OH212977   7.041   6.543   1.431 -0.3313  0.1890  0.1739
 4338TIP3    H112978   7.074   6.536   1.521  1.3413  0.0210 -0.4105
 4338TIP3    H212979   7.115   6.516   1.377 -1.8109 -1.2687 -1.2188
 4339TIP3   OH212980   0.377   3.862   5.447 -0.0070  0.0623  0.3216
 4339TIP3    H112981   0.343   3.792   5.392  0.0780  1.3188 -1.3931
 4339TIP3    H212982   0.301   3.918   5.465  0.2404  0.4002  0.3284
 4340TIP3   OH212983   6.533   1.446   1.196 -0.0917 -0.1285  0.1858
 4340TIP3    H112984   6.586   1.367   1.211  3.2787  2.2354  2.0000
 4340TIP3    H212985   6.589   1.502   1.142 -1.0638  2.1777  1.4357
 4341TIP3   OH212986   5.494   1.772   0.450 -0.2583 -0.7516 -0.4522
 4341TIP3    H112987   5.458   1.713   0.516  2.3763 -0.3241  1.5597
 4341TIP3    H212988   5.468   1.859   0.480 -0.4951 -0.6508 -0.9522
 4342TIP3   OH212989   2.385   5.192   5.086  0.3908 -0.1037 -0.0227
 4342TIP3    H112990   2.304   5.207   5.136 -0.2635  0.7125 -1.2980
 4342TIP3    H212991   2.429   5.277   5.085  1.9085 -0.7803  1.6523
 4343TIP3   OH212992   6.126   3.744   3.640 -0.4886 -0.6519 -0.1321
 4343TIP3    H112993   6.139   3.650   3.625 -0.0683 -0.3612 -1.9210
 4343TIP3    H212994   6.046   3.750   3.691 -1.7247 -1.9197 -1.8232
 4344TIP3   OH212995   7.104   2.493   2.974  0.2182 -0.0568 -0.5128
 4344TIP3    H112996   7.161   2.439   2.920 -1.4384 -2.3012 -0.1875
 4344TIP3    H212997   7.100   2.446   3.058 -0.0571  1.4471  0.3470
 4345TIP3   OH212998   1.690   6.007   0.492 -0.7427 -0.4551  0.6604
 4345TIP3    H112999   1.607   6.028   0.450 -1.3404 -3.5384  0.0455
 4345TIP3    H213000   1.756   6.021   0.424 -1.3316 -2.1938 -0.3357
 4346TIP3   OH213001   3.275   2.666   3.587  0.3655 -0.8244  0.1929
 4346TIP3    H113002   3.199   2.723   3.599  0.6300 -0.6209  1.0022
 4346TIP3    H213003   3.280   2.652   3.493 -0.1033 -0.0461  0.0403
 4347TIP3   OH213004   1.813   1.904   2.687 -0.2507  0.6701 -0.1662
 4347TIP3    H113005   1.813   1.884   2.781  0.1684  2.3029  0.2147
 4347TIP3    H213006   1.752   1.841   2.649 -0.0928 -0.3136  1.1264
 4348TIP3   OH213007   4.855   1.886   1.476 -0.2857 -0.1747 -0.3423
 4348TIP3    H113008   4.814   1.890   1.562  0.8659  0.4742  0.1997
 4348TIP3    H213009   4.934   1.834   1.489  1.7608  2.7262 -0.1498
 4349TIP3   OH213010   2.912   2.646   3.914  0.4542  0.1992  0.1145
 4349TIP3    H113011   2.898   2.552   3.905  1.2854  0.2391 -2.3379
 4349TIP3    H213012   2.846   2.686   3.856  0.6682  1.0855  0.4581
 4350TIP3   OH213013   3.988   1.213   1.987  0.0254  0.5309  0.2171
 4350TIP3    H113014   4.074   1.178   1.963  0.2730 -0.0898  1.9010
 4350TIP3    H213015   3.933   1.135   1.998 -0.4222  0.8668  0.3618
 4351TIP3   OH213016   3.665   4.920   1.726  0.4962 -0.2559  0.4536
 4351TIP3    H113017   3.681   4.960   1.811  1.3306 -1.1621  0.7356
 4351TIP3    H213018   3.673   4.993   1.664  0.5693  0.2788  1.0707
 4352TIP3   OH213019   6.304   4.611   0.633 -0.1385  0.2195  0.4551
 4352TIP3    H113020   6.384   4.585   0.586  0.7152 -0.1944  2.0533
 4352TIP3    H213021   6.233   4.581   0.577  0.8300 -0.5433 -0.4190
 4353TIP3   OH213022   1.779   2.687   1.188  0.3261  0.7938  0.2725
 4353TIP3    H113023   1.797   2.617   1.251 -0.1806 -0.0103 -0.4457
 4353TIP3    H213024   1.686   2.676   1.167  0.4096  1.2564 -0.3628
 4354TIP3   OH213025   3.204   2.049   5.207 -0.0220  0.3982 -0.2637
 4354TIP3    H113026   3.210   2.124   5.148 -0.8503 -0.1863 -1.1193
 4354TIP3    H213027   3.262   2.071   5.280  0.6902  1.3208 -1.0852
 4355TIP3   OH213028   4.736   3.191   5.311 -0.3248 -0.6196 -0.1517
 4355TIP3    H113029   4.679   3.157   5.380  0.4053  1.3032  1.5243
 4355TIP3    H213030   4.818   3.141   5.322  0.8932  1.6776  2.5750
 4356TIP3   OH213031   4.604   0.712   1.052 -0.1033 -0.1377  0.3710
 4356TIP3    H113032   4.542   0.686   1.120 -0.7257  0.2066 -0.0609
 4356TIP3    H213033   4.597   0.643   0.985 -1.4629  0.8785 -0.5890
 4357TIP3   OH213034   2.170   0.718   3.591  0.4836 -0.3708  0.0723
 4357TIP3    H113035   2.079   0.738   3.570  0.4982  2.2471  2.0585
 4357TIP3    H213036   2.219   0.750   3.516  0.0546  2.7216  0.9920
 4358TIP3   OH213037   0.741   1.752   1.016  0.3071 -0.4777  0.3088
 4358TIP3    H113038   0.741   1.829   0.960  0.2986  0.0094  0.9661
 4358TIP3    H213039   0.784   1.684   0.964 -1.8629 -0.7620 -1.2451
 4359TIP3   OH213040   3.327   5.578   3.085 -0.1699 -0.1038  0.6401
 4359TIP3    H113041   3.354   5.666   3.111  0.8842 -0.3560  0.4533
 4359TIP3    H213042   3.284   5.542   3.162 -1.9099  1.0743  0.2649
 4360TIP3   OH213043   2.159   1.109   2.573 -0.6144  0.3205 -0.1141
 4360TIP3    H113044   2.253   1.111   2.554 -0.1709  0.8058  1.8781
 4360TIP3    H213045   2.121   1.173   2.514  0.5334  1.2367  0.1030
 4361TIP3   OH213046   1.494   4.892   3.884  1.0483  0.1207 -0.0746
 4361TIP3    H113047   1.438   4.831   3.933  1.1925  0.2599  0.2656
 4361TIP3    H213048   1.502   4.853   3.797 -0.7494  0.7920 -0.5956
 4362TIP3   OH213049   3.870   4.369   1.342 -0.8145 -0.0091 -0.3334
 4362TIP3    H113050   3.908   4.436   1.397 -0.3547  1.0949 -1.9249
 4362TIP3    H213051   3.781   4.401   1.323 -0.5941  0.1679 -1.0943
 4363TIP3   OH213052   6.847   3.912   3.189 -0.1864  0.2524 -0.2527
 4363TIP3    H113053   6.771   3.853   3.183 -1.0124  1.0564  1.7502
 4363TIP3    H213054   6.843   3.962   3.107 -1.7633  0.2110 -0.2483
 4364TIP3   OH213055   1.131   1.312   1.133 -0.6913  0.2904 -0.4764
 4364TIP3    H113056   1.053   1.344   1.179  0.6997  2.4357  0.5916
 4364TIP3    H213057   1.109   1.223   1.106 -3.4225  0.7625 -0.0674
 4365TIP3   OH213058   2.563   1.460   3.804 -0.6175 -0.2486  0.4691
 4365TIP3    H113059   2.555   1.372   3.767  3.7766 -0.4171 -0.6976
 4365TIP3    H213060   2.523   1.517   3.738 -0.3891 -1.1440 -0.4756
 4366TIP3   OH213061   4.513   3.076   5.431 -0.1985  0.1706  0.6677
 4366TIP3    H113062   4.445   3.084   5.497 -1.8607  1.6239 -1.0800
 4366TIP3    H213063   4.581   3.021   5.471 -0.9244  1.3071  3.6564
 4367TIP3   OH213064   4.553   1.892   5.256 -0.0087 -0.0793  0.0354
 4367TIP3    H113065   4.505   1.816   5.223  0.6794 -0.1971 -0.7226
 4367TIP3    H213066   4.539   1.959   5.190 -0.7633  0.5309  0.7906
 4368TIP3   OH213067   1.788   0.292   4.184  0.9166 -0.4030 -0.2756
 4368TIP3    H113068   1.867   0.247   4.153  1.3957  0.9422 -1.1125
 4368TIP3    H213069   1.818   0.341   4.261 -0.0020 -2.8030  1.7414
 4369TIP3   OH213070   4.702   5.630   1.645 -0.0857  0.4378  0.6033
 4369TIP3    H113071   4.626   5.574   1.626  1.1497 -1.1968  0.3105
 4369TIP3    H213072   4.683   5.712   1.599 -0.2250 -1.0718 -2.3004
 4370TIP3   OH213073   2.350   5.389   2.618  0.4840  0.4447 -0.2498
 4370TIP3    H113074   2.343   5.294   2.612  0.7265  0.3497  0.7605
 4370TIP3    H213075   2.311   5.422   2.537 -1.0158 -0.4607  0.0720
 4371TIP3   OH213076   0.380   5.909   2.163 -0.4122  0.1296  1.2042
 4371TIP3    H113077   0.353   5.825   2.200 -2.0551 -0.1397 -0.4516
 4371TIP3    H213078   0.306   5.967   2.179 -0.7301  0.2800 -0.6392
 4372TIP3   OH213079   3.430   6.575   4.893  0.1577 -0.0576  0.7710
 4372TIP3    H113080   3.511   6.554   4.939  0.8552  0.2011 -0.3221
 4372TIP3    H213081   3.403   6.659   4.930  0.1577 -0.3355  1.4253
 4373TIP3   OH213082   4.892   2.959   0.324 -0.3285  0.0942  0.5717
 4373TIP3    H113083   4.902   2.932   0.233  3.0569  0.0038  0.8400
 4373TIP3    H213084   4.906   2.878   0.374  0.0302  0.5230  1.1811
 4374TIP3   OH213085   1.720   6.042   3.367  0.2309  0.0949  0.1402
 4374TIP3    H113086   1.726   6.075   3.277  1.5125 -0.2469  0.0832
 4374TIP3    H213087   1.733   6.119   3.422 -2.1719  0.6165  0.1011
 4375TIP3   OH213088   6.356   6.346   0.195 -0.0196  0.2269  0.0159
 4375TIP3    H113089   6.449   6.337   0.212  0.0707 -0.2031 -0.6743
 4375TIP3    H213090   6.319   6.260   0.215 -0.5133  0.7851  1.6917
 4376TIP3   OH213091   3.235   0.374   0.423  0.2812 -0.0510  0.0800
 4376TIP3    H113092   3.257   0.464   0.449  0.8576  0.1331 -0.9702
 4376TIP3    H213093   3.318   0.338   0.392 -0.4504 -0.0617 -1.9817
 4377TIP3   OH213094   7.168   2.084   3.826  0.2453 -0.3988  0.8025
 4377TIP3    H113095   7.181   2.120   3.913 -2.0922  4.4590 -0.5287
 4377TIP3    H213096   7.073   2.081   3.815  0.3927 -3.7381 -0.6845
 4378TIP3   OH213097   6.330   4.106   2.298 -0.5170 -0.1691 -0.5718
 4378TIP3    H113098   6.314   4.016   2.271 -1.0750 -0.2053 -0.1362
 4378TIP3    H213099   6.398   4.138   2.238  0.4755 -1.2242 -0.0438
 4379TIP3   OH213100   6.730   3.927   5.665  0.8843 -0.5809  0.3696
 4379TIP3    H113101   6.756   3.835   5.664 -0.0718 -0.9099 -1.7235
 4379TIP3    H213102   6.671   3.935   5.740  0.2339 -1.9266  0.0361
 4380TIP3   OH213103   3.624   6.383   2.464  0.5493  0.0013  0.1841
 4380TIP3    H113104   3.713   6.416   2.475  0.4314  0.7332 -0.8576
 4380TIP3    H213105   3.628   6.329   2.385  0.5019 -1.6924  1.2888
 4381TIP3   OH213106   0.441   3.148   2.396  0.0217  0.0071 -0.0156
 4381TIP3    H113107   0.385   3.192   2.459 -0.2980 -0.1736 -0.1726
 4381TIP3    H213108   0.382   3.118   2.327  0.2503 -0.5395  0.0173
 4382TIP3   OH213109   5.041   3.892   3.817 -0.2637  0.1803  0.2682
 4382TIP3    H113110   5.050   3.813   3.871 -0.2227  0.5402  0.7964
 4382TIP3    H213111   4.972   3.871   3.755  0.4044 -0.6145 -0.2215
 4383TIP3   OH213112   4.045   1.609   5.197 -0.6743  0.5487 -0.8641
 4383TIP3    H113113   3.954   1.581   5.209 -0.7934  1.5998  1.0629
 4383TIP3    H213114   4.097   1.546   5.247 -0.6610  1.7681  0.7295
 4384TIP3   OH213115   4.095   4.468   1.034 -0.1023  0.1132  0.2646
 4384TIP3    H113116   4.035   4.397   1.057 -1.6581  1.1243 -0.5430
 4384TIP3    H213117   4.117   4.508   1.118  1.6708 -1.9350  0.8592
 4385TIP3   OH213118   4.182   2.468   5.700 -0.2972 -0.2629 -0.3905
 4385TIP3    H113119   4.232   2.411   5.642  0.2676 -1.0349  0.7970
 4385TIP3    H213120   4.134   2.527   5.642 -0.8667 -1.9123 -1.6668
 4386TIP3   OH213121   1.728   0.456   0.574 -0.0066  0.5981  0.6579
 4386TIP3    H113122   1.810   0.411   0.554 -0.4820 -0.5443  1.2150
 4386TIP3    H213123   1.701   0.421   0.659 -1.1618  0.8373  0.4046
 4387TIP3   OH213124   5.450   0.707   1.661  0.2042  0.2304 -0.1686
 4387TIP3    H113125   5.475   0.788   1.615 -1.9201  1.8302  1.3433
 4387TIP3    H213126   5.519   0.695   1.727 -0.4467  1.9582  0.8863
 4388TIP3   OH213127   5.380   4.219   0.334 -0.1278  0.4216 -0.2024
 4388TIP3    H113128   5.311   4.157   0.355  1.0133 -1.4520 -1.6764
 4388TIP3    H213129   5.420   4.241   0.419  0.8211 -2.5859  0.2483
 4389TIP3   OH213130   4.033   6.565   0.924 -0.1617  0.2466 -0.5253
 4389TIP3    H113131   4.055   6.570   0.831 -1.6001  0.0485 -0.9008
 4389TIP3    H213132   4.032   6.656   0.953  0.8871  0.2711 -0.5507
 4390TIP3   OH213133   3.301   3.808   3.361 -0.7342 -0.2042 -0.3780
 4390TIP3    H113134   3.336   3.884   3.316 -1.4756 -0.3421 -1.2177
 4390TIP3    H213135   3.357   3.797   3.438  0.7534 -0.1600 -1.4302
 4391TIP3   OH213136   1.299   4.181   1.540  0.4427 -0.0947 -0.0616
 4391TIP3    H113137   1.211   4.195   1.505 -0.1275  1.1483  1.7046
 4391TIP3    H213138   1.353   4.166   1.463 -1.0209  0.8466 -1.3369
 4392TIP3   OH213139   4.008   1.267   3.189  0.1201  0.3826  0.3790
 4392TIP3    H113140   4.025   1.205   3.118  0.7319  0.5344  0.3838
 4392TIP3    H213141   4.095   1.298   3.215 -0.1272  0.6588  0.8997
 4393TIP3   OH213142   0.293   0.838   2.851  0.2074 -0.2627  0.1389
 4393TIP3    H113143   0.383   0.810   2.833  0.3049  0.7801 -1.2091
 4393TIP3    H213144   0.303   0.917   2.905  0.2775  1.3882 -2.1301
 4394TIP3   OH213145   2.625   5.459   0.948  0.5502 -0.2603 -0.3374
 4394TIP3    H113146   2.715   5.468   0.916  1.1655 -1.5123  0.9285
 4394TIP3    H213147   2.622   5.512   1.027 -0.2283  0.8084 -1.0554
 4395TIP3   OH213148   5.510   6.738   2.755  0.0847  0.2824  0.4389
 4395TIP3    H113149   5.582   6.701   2.705 -0.3453  0.6108 -0.4339
 4395TIP3    H213150   5.433   6.687   2.729  0.0315 -0.2797  1.5999
 4396TIP3   OH213151   4.595   4.992   0.007  0.3630  0.0620 -0.0737
 4396TIP3    H113152   4.519   4.982   0.065  0.5139 -0.1600  0.0835
 4396TIP3    H213153   4.658   4.929   0.038  0.9024  0.7525  0.2514
 4397TIP3   OH213154   0.510   3.648   3.864 -0.3387 -0.1939 -0.4240
 4397TIP3    H113155   0.570   3.653   3.939 -0.9084  0.7679 -0.0247
 4397TIP3    H213156   0.493   3.554   3.854 -1.5294 -0.2648  1.6856
 4398TIP3   OH213157   2.195   4.097   3.547 -1.0576  0.6394  0.3609
 4398TIP3    H113158   2.178   4.191   3.537 -1.7452  0.4763 -0.0727
 4398TIP3    H213159   2.289   4.092   3.565 -0.3228  1.2299 -2.7011
 4399TIP3   OH213160   7.112   1.544   4.330 -0.7140  0.3198 -0.1399
 4399TIP3    H113161   7.189   1.500   4.364 -0.6830  0.0798 -0.5216
 4399TIP3    H213162   7.146   1.620   4.282 -0.5695 -0.8704 -2.0189
 4400TIP3   OH213163   4.137   3.110   4.316 -0.3586  0.0585 -0.2015
 4400TIP3    H113164   4.211   3.129   4.375  0.6267 -1.2591 -0.9406
 4400TIP3    H213165   4.178   3.091   4.232 -1.6001 -0.1377 -0.7794
 4401TIP3   OH213166   3.156   0.892   4.637  0.1946  0.0659  0.1029
 4401TIP3    H113167   3.184   0.916   4.548 -0.4433  2.3476  0.4572
 4401TIP3    H213168   3.138   0.975   4.679 -0.6343 -1.0398  2.0358
 4402TIP3   OH213169   1.830   3.140   1.474  0.3037 -0.2130  0.4825
 4402TIP3    H113170   1.860   3.120   1.562  0.1960 -1.3797  0.2676
 4402TIP3    H213171   1.752   3.085   1.462  1.5908 -1.7959 -1.1335
 4403TIP3   OH213172   7.156   3.473   4.275  0.2230 -0.2944  0.3207
 4403TIP3    H113173   7.066   3.501   4.256  0.7143  0.4598 -1.0580
 4403TIP3    H213174   7.196   3.462   4.189  2.3394  2.3294  0.8328
 4404TIP3   OH213175   4.665   3.277   5.764  0.3225 -0.2713  0.4509
 4404TIP3    H113176   4.579   3.237   5.752 -0.4555  1.5416 -0.2318
 4404TIP3    H213177   4.724   3.221   5.713 -0.7285 -0.5515 -0.5104
 4405TIP3   OH213178   3.690   2.315   5.038  0.2140  0.4510 -0.0193
 4405TIP3    H113179   3.677   2.405   5.008 -0.2824 -0.0745 -1.4393
 4405TIP3    H213180   3.783   2.309   5.058  0.5606  0.8645 -1.4169
 4406TIP3   OH213181   5.973   2.104   2.521  0.1357 -0.6840 -0.1493
 4406TIP3    H113182   6.068   2.113   2.514  0.1732 -1.1540 -0.2339
 4406TIP3    H213183   5.959   2.016   2.555 -0.3094 -1.0747 -1.3140
 4407TIP3   OH213184   4.143   4.782   0.149 -0.2126 -0.3901 -0.3325
 4407TIP3    H113185   4.202   4.832   0.093 -0.7166  2.1796  1.2563
 4407TIP3    H213186   4.166   4.691   0.133  1.9402  0.3900 -2.1648
 4408TIP3   OH213187   1.624   1.915   4.930 -0.4055 -0.2501  0.0901
 4408TIP3    H113188   1.707   1.945   4.893 -0.6519 -1.2501 -1.3770
 4408TIP3    H213189   1.563   1.986   4.913 -0.1655 -0.0875 -0.0943
 4409TIP3   OH213190   4.129   1.955   5.842  0.1514 -0.2798  0.9317
 4409TIP3    H113191   4.196   1.899   5.803 -0.6084 -1.2002  0.8919
 4409TIP3    H213192   4.098   2.008   5.769 -0.2508 -0.9762  0.5780
 4410TIP3   OH213193   3.789   2.051   4.531  0.1739  0.0077  0.1096
 4410TIP3    H113194   3.866   2.059   4.474 -1.2027 -3.3028 -2.5731
 4410TIP3    H213195   3.820   1.999   4.605  1.5441  2.8600  1.7304
 4411TIP3   OH213196   0.018   3.574   2.966  0.2274  0.6520 -0.5591
 4411TIP3    H113197   0.033   3.600   2.875  1.8176  0.0323 -0.5025
 4411TIP3    H213198   0.066   3.638   3.018 -0.8808  1.1520 -0.1222
 4412TIP3   OH213199   3.773   1.541   2.050 -0.0601 -0.4620 -0.6452
 4412TIP3    H113200   3.710   1.560   1.981  1.2924  0.0089 -1.7840
 4412TIP3    H213201   3.745   1.456   2.085 -0.5700 -0.8843 -2.0071
 4413TIP3   OH213202   0.043   2.635   2.750  1.2656  0.0533  0.0793
 4413TIP3    H113203   0.119   2.579   2.767  1.6048 -0.5145 -2.8480
 4413TIP3    H213204  -0.032   2.575   2.750  1.3163 -0.0229 -0.6139
 4414TIP3   OH213205   5.371   5.636   3.627  0.1341  0.0826  0.8325
 4414TIP3    H113206   5.451   5.583   3.624 -0.0742 -0.2328  0.8267
 4414TIP3    H213207   5.401   5.722   3.657  0.9938  0.9930 -2.3113
 4415TIP3   OH213208   3.445   0.048   3.441  0.2525 -0.3369  0.5392
 4415TIP3    H113209   3.494   0.112   3.493 -0.0275  1.3197 -1.1215
 4415TIP3    H213210   3.462   0.073   3.350 -1.5810 -1.3228 -0.1315
 4416TIP3   OH213211   1.645   2.962   1.332 -0.1013  0.3177  0.2444
 4416TIP3    H113212   1.575   2.928   1.388 -0.1176  1.8468  1.2272
 4416TIP3    H213213   1.688   2.884   1.298 -1.0730 -0.6696  1.1681
 4417TIP3   OH213214   1.406   0.319   0.630 -0.1564  0.6548  0.0383
 4417TIP3    H113215   1.422   0.356   0.544  0.0209 -0.5882 -0.4840
 4417TIP3    H213216   1.359   0.238   0.613  0.1114  0.2572  1.0899
 4418TIP3   OH213217   6.626   1.248   2.753 -0.3990  0.2153 -0.5369
 4418TIP3    H113218   6.646   1.155   2.746 -1.7684 -0.1301 -0.2342
 4418TIP3    H213219   6.579   1.257   2.836  1.3474  1.5074  0.3780
 4419TIP3   OH213220   2.322   6.209   0.753  0.0313 -0.0613 -0.6001
 4419TIP3    H113221   2.326   6.192   0.659 -1.6516  2.1637 -1.1337
 4419TIP3    H213222   2.262   6.142   0.787 -0.4912  0.0062 -1.3669
 4420TIP3   OH213223   4.478   5.284   0.232  0.1913  0.1553  0.5238
 4420TIP3    H113224   4.535   5.338   0.177 -0.0206 -0.6424 -0.5131
 4420TIP3    H213225   4.538   5.236   0.289  0.4868  0.2323  0.2826
 4421TIP3   OH213226   4.329   2.759   3.796 -0.2170 -0.6736  0.3679
 4421TIP3    H113227   4.348   2.700   3.722  0.5164  0.1224 -0.1056
 4421TIP3    H213228   4.235   2.773   3.792 -0.4380 -1.9992  0.6337
 4422TIP3   OH213229   5.667   5.292   3.960  0.5294 -0.6912  0.0699
 4422TIP3    H113230   5.638   5.215   4.009  1.7066 -0.3018  1.4469
 4422TIP3    H213231   5.707   5.255   3.881  0.3345 -1.4530  0.3111
 4423TIP3   OH213232   1.614   2.172   2.639 -0.3438 -0.0298  0.1819
 4423TIP3    H113233   1.542   2.233   2.657 -1.6354 -1.6105  0.5132
 4423TIP3    H213234   1.687   2.208   2.689 -1.0982  1.2017  0.4495
 4424TIP3   OH213235   3.418   5.741   1.091 -0.2647  0.0121  0.1397
 4424TIP3    H113236   3.458   5.816   1.135 -0.2608  0.5356 -0.7305
 4424TIP3    H213237   3.485   5.709   1.031 -0.5848 -0.1154 -0.1580
 4425TIP3   OH213238   3.045   2.500   0.718 -0.1990  0.5977  0.0084
 4425TIP3    H113239   3.107   2.506   0.646  0.3826  0.7239  0.5076
 4425TIP3    H213240   2.983   2.571   0.704 -0.1494  0.5541 -0.4195
 4426TIP3   OH213241   5.850   1.694   3.667 -0.2795 -0.3581  0.0019
 4426TIP3    H113242   5.893   1.662   3.746 -0.9094  0.9430  0.9095
 4426TIP3    H213243   5.788   1.760   3.698 -0.5042  0.2302 -1.5847
 4427TIP3   OH213244   4.381   3.523   4.805 -0.3358 -0.4703  0.1089
 4427TIP3    H113245   4.452   3.524   4.870  0.6354  0.3591 -0.9235
 4427TIP3    H213246   4.316   3.463   4.841  1.4134 -2.1823  0.5601
 4428TIP3   OH213247   2.178   3.228   1.270 -0.1851 -0.7294  0.1144
 4428TIP3    H113248   2.144   3.316   1.288  1.3563 -0.5113  2.3736
 4428TIP3    H213249   2.212   3.233   1.181 -0.4364  0.8474  0.0782
 4429TIP3   OH213250   6.918   1.862   0.329 -0.7454 -0.5327 -0.4881
 4429TIP3    H113251   6.862   1.794   0.293 -0.4507 -0.6636 -0.7060
 4429TIP3    H213252   6.979   1.814   0.386  0.5504 -0.6868 -1.9280
 4430TIP3   OH213253   2.681   6.177   3.438  0.2785  0.4218  0.1422
 4430TIP3    H113254   2.591   6.187   3.407 -0.1785 -3.4058 -0.1878
 4430TIP3    H213255   2.672   6.159   3.532  0.9106  1.8702  0.5124
 4431TIP3   OH213256   6.086   2.672   3.950 -0.3123  0.1515 -0.2891
 4431TIP3    H113257   6.163   2.702   3.901  0.3794 -1.3838 -0.2023
 4431TIP3    H213258   6.101   2.703   4.039  0.3105 -0.2923 -0.2307
 4432TIP3   OH213259   1.938   5.532   1.111 -0.0633  0.3250 -0.1047
 4432TIP3    H113260   1.897   5.451   1.080  1.8662  0.0921 -2.2812
 4432TIP3    H213261   1.908   5.598   1.049 -0.0717  0.8854  0.4973
 4433TIP3   OH213262   6.812   4.547   0.327 -0.2636 -0.1869 -0.1188
 4433TIP3    H113263   6.762   4.520   0.404 -0.0688  0.3142  0.1874
 4433TIP3    H213264   6.783   4.488   0.258 -1.2940  0.1109  0.0405
 4434TIP3   OH213265   5.863   1.821   4.962 -0.0550 -0.4921  0.1000
 4434TIP3    H113266   5.881   1.769   4.884  2.0593  1.5072 -0.8690
 4434TIP3    H213267   5.942   1.811   5.016  0.1638  1.1546  0.1488
 4435TIP3   OH213268   4.130   5.300   2.245  0.2126  0.4822 -0.2067
 4435TIP3    H113269   4.083   5.246   2.308 -1.4931  0.6575 -1.2480
 4435TIP3    H213270   4.222   5.283   2.262 -0.2462 -1.2825  0.7388
 4436TIP3   OH213271   5.152   0.705   4.245 -0.4906 -0.0657  0.6101
 4436TIP3    H113272   5.243   0.722   4.223 -0.0460  0.0472  2.4166
 4436TIP3    H213273   5.136   0.756   4.324 -2.8253  1.7633 -0.9058
 4437TIP3   OH213274   5.755   6.573   1.843 -0.1810 -0.1059  0.1982
 4437TIP3    H113275   5.836   6.531   1.813 -0.1066  0.6399 -0.6802
 4437TIP3    H213276   5.720   6.616   1.765 -2.2342 -1.6499  0.1845
 4438TIP3   OH213277   1.566   2.929   4.181 -0.4223 -0.1447  0.0456
 4438TIP3    H113278   1.533   2.846   4.215 -0.6488 -0.3150 -0.5787
 4438TIP3    H213279   1.660   2.914   4.170 -0.2209  0.1472  1.2608
 4439TIP3   OH213280   3.346   0.950   0.031  0.1737 -0.4360 -0.1785
 4439TIP3    H113281   3.371   0.878  -0.026  1.1066 -0.7751  0.6332
 4439TIP3    H213282   3.332   0.909   0.117 -1.4379  0.0167 -0.1859
 4440TIP3   OH213283   4.840   1.614   5.238  0.4636  0.4061  1.2577
 4440TIP3    H113284   4.807   1.601   5.327  2.4932 -0.1383  1.9833
 4440TIP3    H213285   4.810   1.536   5.190 -1.5905  1.2210  1.0944
 4441TIP3   OH213286   0.452   4.195   5.725  0.2287 -0.3847 -0.2169
 4441TIP3    H113287   0.511   4.237   5.662 -0.1440  0.1662 -0.2003
 4441TIP3    H213288   0.463   4.101   5.709 -0.2555 -0.2476 -1.4761
 4442TIP3   OH213289   6.248   4.021   1.170  0.3012 -0.8049 -0.3794
 4442TIP3    H113290   6.262   4.086   1.239  0.0473 -1.4373  0.2761
 4442TIP3    H213291   6.321   4.034   1.110  0.0711  0.3135 -0.4372
 4443TIP3   OH213292   0.896   2.136   4.197 -0.6543 -0.1746  0.8014
 4443TIP3    H113293   0.948   2.208   4.161  1.1263 -1.8853 -0.2644
 4443TIP3    H213294   0.822   2.129   4.137  0.2084 -0.4568 -0.2808
 4444TIP3   OH213295   6.004   5.312   3.880  0.0698 -0.4065 -0.9718
 4444TIP3    H113296   6.040   5.295   3.793  2.1405 -0.7941 -0.0887
 4444TIP3    H213297   6.080   5.318   3.937 -1.2663 -0.7958  0.9487
 4445TIP3   OH213298   2.632   4.208   0.383  0.3321 -0.4250 -0.3687
 4445TIP3    H113299   2.596   4.289   0.419 -0.8824 -1.8888  1.9121
 4445TIP3    H213300   2.675   4.236   0.302  2.5851  2.9769  1.7504
 4446TIP3   OH213301   0.127   2.445   3.732 -0.2217  0.2812 -0.2193
 4446TIP3    H113302   0.221   2.433   3.748 -0.0820  2.0703  0.5064
 4446TIP3    H213303   0.098   2.505   3.800 -2.0395 -0.6265 -0.1156
 4447TIP3   OH213304   1.230   0.474   1.712 -0.1276  0.4742  0.2218
 4447TIP3    H113305   1.310   0.515   1.678  0.8714 -0.1399  1.7092
 4447TIP3    H213306   1.226   0.390   1.666  0.2050  0.4248  0.2766
 4448TIP3   OH213307   4.653   5.116   2.181  0.1048  0.4556  0.7321
 4448TIP3    H113308   4.634   5.027   2.209  1.1785 -0.9643 -2.5201
 4448TIP3    H213309   4.731   5.108   2.125 -0.7617  3.1348 -1.0987
 4449TIP3   OH213310   4.512   3.379   2.748  0.0841  0.5317  0.2871
 4449TIP3    H113311   4.555   3.322   2.811 -1.4825 -0.4488  0.5439
 4449TIP3    H213312   4.460   3.319   2.693  3.8557  0.8346 -4.2329
 4450TIP3   OH213313   3.768   5.637   4.909  0.2004 -0.1174  0.0541
 4450TIP3    H113314   3.841   5.582   4.939 -1.3208 -2.2219  0.1334
 4450TIP3    H213315   3.732   5.676   4.988 -0.1983 -0.9800  0.3084
 4451TIP3   OH213316   2.507   3.217   2.040 -0.4963  0.2642  0.2520
 4451TIP3    H113317   2.514   3.273   2.118 -0.5264 -0.5454  0.8449
 4451TIP3    H213318   2.427   3.247   1.997  0.2013  1.6000 -0.1909
 4452TIP3   OH213319   6.024   6.673   1.741  0.0563 -0.0301  0.0025
 4452TIP3    H113320   6.084   6.688   1.814  1.0502  2.3612 -1.2018
 4452TIP3    H213321   6.071   6.611   1.684  0.1975 -0.2521  0.3560
 4453TIP3   OH213322   1.992   1.158   1.203 -0.3160 -0.0730 -0.3754
 4453TIP3    H113323   2.013   1.187   1.114 -0.7520  0.5938 -0.2675
 4453TIP3    H213324   1.945   1.076   1.192  0.4301 -0.4663 -0.7158
 4454TIP3   OH213325   6.545   4.560   0.461 -0.0517  0.1774 -0.0117
 4454TIP3    H113326   6.552   4.595   0.372  1.7108 -0.6766 -0.2634
 4454TIP3    H213327   6.551   4.637   0.518  0.0321  0.6195 -0.6108
 4455TIP3   OH213328   4.165   2.599   0.193  0.2524 -0.4756  0.3776
 4455TIP3    H113329   4.081   2.614   0.235 -0.6729  0.8955 -1.7908
 4455TIP3    H213330   4.228   2.646   0.247 -0.8197  0.8674  0.5016
 4456TIP3   OH213331   2.716   4.423   0.953  0.0600  0.3896 -0.1497
 4456TIP3    H113332   2.811   4.433   0.958  0.2654 -0.0866 -2.2809
 4456TIP3    H213333   2.701   4.332   0.979  0.1369  0.5315  0.4215
 4457TIP3   OH213334   0.810   2.437   4.063 -0.0340 -0.0522 -0.5091
 4457TIP3    H113335   0.772   2.349   4.066 -0.4826 -0.0055 -2.9246
 4457TIP3    H213336   0.901   2.423   4.037  0.4449  0.1338  0.9397
 4458TIP3   OH213337   3.694   0.928   5.026 -0.1728  0.2542 -0.1898
 4458TIP3    H113338   3.669   1.013   4.987  0.6468  0.2218 -0.8162
 4458TIP3    H213339   3.633   0.917   5.099 -0.1601  1.4849  0.0349
 4459TIP3   OH213340   1.148   6.687   0.328  0.5209 -0.2733 -0.1319
 4459TIP3    H113341   1.153   6.669   0.234  1.5770 -1.5594  0.1341
 4459TIP3    H213342   1.231   6.652   0.363  1.1153  2.0642  0.9881
 4460TIP3   OH213343   7.074   5.422   4.244 -0.2371  0.4798 -0.8706
 4460TIP3    H113344   7.016   5.346   4.240 -0.4620  0.7022 -2.0231
 4460TIP3    H213345   7.017   5.497   4.258 -0.0045  0.4405  0.3792
 4461TIP3   OH213346   3.757   0.331   0.021  0.5573  0.1026  0.7561
 4461TIP3    H113347   3.781   0.274   0.095 -0.8305  1.4074  2.3028
 4461TIP3    H213348   3.702   0.399   0.061 -1.5751 -0.0050 -1.7183
 4462TIP3   OH213349   5.370   1.660   5.124 -0.2175  0.0129 -0.1013
 4462TIP3    H113350   5.304   1.696   5.183  0.7671  1.6152  0.0808
 4462TIP3    H213351   5.360   1.709   5.043  1.4656  1.1124  0.3060
 4463TIP3   OH213352   3.586   2.032   3.714 -0.2747  0.5932 -0.3097
 4463TIP3    H113353   3.493   2.047   3.695 -0.6721 -1.2391  0.0192
 4463TIP3    H213354   3.608   2.099   3.778 -1.4204  0.9456 -0.2598
 4464TIP3   OH213355   6.492   5.236   5.842 -0.4935  0.4083  0.3831
 4464TIP3    H113356   6.425   5.170   5.829 -0.0521 -0.3145  1.5317
 4464TIP3    H213357   6.565   5.209   5.786 -0.1701 -0.3298  1.1293
 4465TIP3   OH213358   4.659   0.336   2.564  0.3548 -0.2769 -0.0112
 4465TIP3    H113359   4.564   0.332   2.570  0.3000  1.2237  0.5444
 4465TIP3    H213360   4.678   0.329   2.471 -0.3780  0.5048 -0.2300
 4466TIP3   OH213361   5.796   5.141   5.878  0.1487 -0.1625 -0.4671
 4466TIP3    H113362   5.749   5.224   5.889 -2.0600 -1.1178 -2.1017
 4466TIP3    H213363   5.883   5.168   5.847 -0.1203  1.5683  0.1627
 4467TIP3   OH213364   3.366   6.611   0.601 -0.2499 -0.0027 -0.2942
 4467TIP3    H113365   3.436   6.548   0.582 -0.6036 -0.7129  0.6439
 4467TIP3    H213366   3.349   6.600   0.694 -2.1557 -0.4300 -0.6504
 4468TIP3   OH213367   3.452   0.687   1.815  0.4881  0.1418  0.6382
 4468TIP3    H113368   3.506   0.611   1.792 -0.1529 -0.2594  0.4389
 4468TIP3    H213369   3.388   0.694   1.744  0.7147  1.0401  0.5160
 4469TIP3   OH213370   7.053   4.135   2.759  0.2368  0.1616 -0.5087
 4469TIP3    H113371   7.019   4.225   2.759 -2.0422 -0.5185 -3.5813
 4469TIP3    H213372   6.982   4.083   2.798 -0.3570 -0.7075 -2.5840
 4470TIP3   OH213373   0.776   1.647   0.119  0.6353 -0.1121 -0.6877
 4470TIP3    H113374   0.692   1.674   0.155 -0.1164 -0.7239 -1.9277
 4470TIP3    H213375   0.826   1.728   0.111  0.7909  0.0681  1.5410
 4471TIP3   OH213376   6.728   4.693   1.557 -0.1765 -0.4783  0.7430
 4471TIP3    H113377   6.691   4.626   1.614 -0.6297 -0.4976  0.4282
 4471TIP3    H213378   6.652   4.741   1.524  0.0836 -0.4701  0.1494
 4472TIP3   OH213379   6.249   5.668   1.422  0.3857 -0.0785 -0.3776
 4472TIP3    H113380   6.325   5.612   1.441 -0.1329  0.3378  3.8962
 4472TIP3    H213381   6.283   5.757   1.433 -0.7510  0.1075  2.8712
 4473TIP3   OH213382   2.095   0.925   0.022  0.5588  0.0036 -0.4324
 4473TIP3    H113383   2.100   1.007   0.071  0.5001  0.5307 -1.3003
 4473TIP3    H213384   2.023   0.938  -0.040 -1.7162 -1.8763  1.5606
 4474TIP3   OH213385   0.714   4.627   3.032  0.7516  0.2089 -0.2650
 4474TIP3    H113386   0.694   4.699   3.092 -0.5704 -0.2434 -0.1191
 4474TIP3    H213387   0.675   4.550   3.073 -0.2117 -0.1081 -1.6934
 4475TIP3   OH213388   3.502   4.822   3.273  0.0242  0.2732  1.0138
 4475TIP3    H113389   3.594   4.823   3.245 -0.4701 -2.1332 -1.0856
 4475TIP3    H213390   3.467   4.906   3.244  1.3096  0.7427  0.7893
 4476TIP3   OH213391   1.315   0.570   3.911  0.0690 -0.1974 -0.1628
 4476TIP3    H113392   1.265   0.606   3.984 -0.9706  1.2213 -1.5250
 4476TIP3    H213393   1.398   0.618   3.914 -0.7939  1.4330 -1.1569
 4477TIP3   OH213394   0.353   1.956   3.576 -0.5436 -0.1915 -0.0510
 4477TIP3    H113395   0.293   2.019   3.617 -1.0798 -0.6776 -0.0850
 4477TIP3    H213396   0.439   1.997   3.583 -0.4281 -0.7386  2.5858
 4478TIP3   OH213397   2.798   5.207   1.725  0.1743 -0.3210 -0.2603
 4478TIP3    H113398   2.783   5.216   1.631  0.9969 -0.4937 -0.4207
 4478TIP3    H213399   2.856   5.280   1.747 -0.8509  0.3459  0.3295
 4479TIP3   OH213400   2.966   6.635   1.534 -0.5815  0.1519  0.0362
 4479TIP3    H113401   2.985   6.572   1.604 -0.0065  3.1880  2.8706
 4479TIP3    H213402   3.043   6.634   1.479  0.0530 -0.5799  0.9120
 4480TIP3   OH213403   3.952   6.473   1.567  0.1938 -0.3610 -0.2431
 4480TIP3    H113404   3.866   6.448   1.532 -0.3288 -0.9686  1.3560
 4480TIP3    H213405   3.964   6.415   1.642  0.6660  1.6941  1.3646
 4481TIP3   OH213406   4.364   2.475   1.467 -0.1569  0.2815  0.4109
 4481TIP3    H113407   4.454   2.449   1.486  1.3554  4.7450  0.5361
 4481TIP3    H213408   4.362   2.489   1.372 -1.6720 -2.3526 -0.0507
 4482TIP3   OH213409   2.630   3.473   5.326 -0.2884 -0.3156 -0.3205
 4482TIP3    H113410   2.650   3.388   5.287 -1.7988 -0.6010 -0.5196
 4482TIP3    H213411   2.609   3.529   5.251  0.1390  0.0874 -0.1461
 4483TIP3   OH213412   2.243   3.681   3.473  0.0056 -0.0387  0.1411
 4483TIP3    H113413   2.332   3.715   3.468 -0.0137 -0.1134 -0.9818
 4483TIP3    H213414   2.244   3.603   3.417 -0.8331  0.1319 -0.1356
 4484TIP3   OH213415   6.259   4.437   2.159 -0.3282 -0.3587 -0.3379
 4484TIP3    H113416   6.297   4.451   2.246 -0.9256  0.4093 -0.1867
 4484TIP3    H213417   6.184   4.380   2.175  1.0825 -2.4379 -0.7237
 4485TIP3   OH213418   2.777   6.589   4.190 -0.6948  0.2747 -0.2093
 4485TIP3    H113419   2.709   6.582   4.258  0.4879  2.6047  1.3633
 4485TIP3    H213420   2.745   6.657   4.131 -0.2497  0.5641 -0.1172
 4486TIP3   OH213421   1.295   1.472   0.958 -0.5664 -0.2061 -0.1600
 4486TIP3    H113422   1.370   1.419   0.931 -0.4094  0.2653 -0.6671
 4486TIP3    H213423   1.265   1.432   1.039 -0.3432 -0.9692 -0.4455
 4487TIP3   OH213424   3.164   6.326   3.389  0.1372  0.2308 -0.2089
 4487TIP3    H113425   3.141   6.417   3.371  1.3564  0.2540 -1.9235
 4487TIP3    H213426   3.080   6.281   3.400 -0.5510  1.2025 -1.2762
 4488TIP3   OH213427   1.013   5.267   2.723 -0.1670  0.4734 -0.0382
 4488TIP3    H113428   0.957   5.339   2.751 -1.0987 -0.0997 -0.3978
 4488TIP3    H213429   1.015   5.207   2.798  0.1270  0.5851  0.0451
 4489TIP3   OH213430   1.705   6.215   4.947 -0.0212 -0.0721  0.1221
 4489TIP3    H113431   1.616   6.203   4.914 -0.2552  0.3911  0.5774
 4489TIP3    H213432   1.752   6.257   4.874 -0.7577  1.7560  0.6333
 4490TIP3   OH213433   1.273   1.770   2.092  0.7551 -0.0004  0.0127
 4490TIP3    H113434   1.327   1.779   2.170  2.4155  3.0643 -1.2981
 4490TIP3    H213435   1.335   1.778   2.019 -0.9883 -0.4980 -1.6017
 4491TIP3   OH213436   3.748   0.420   0.888  0.3884 -0.3317  0.0251
 4491TIP3    H113437   3.812   0.490   0.879  0.6895 -0.7107 -0.7988
 4491TIP3    H213438   3.779   0.369   0.963 -1.2743  1.9070  2.4190
 4492TIP3   OH213439   0.927   3.940   3.036 -0.0680 -0.1508 -0.0229
 4492TIP3    H113440   0.940   3.899   3.122  1.0573 -0.7799 -0.4657
 4492TIP3    H213441   0.930   3.867   2.974  0.1406  0.4064 -0.6769
 4493TIP3   OH213442   0.170   5.845   2.645  0.0215  0.0893 -0.4438
 4493TIP3    H113443   0.105   5.780   2.669  0.4575  0.2763  1.4063
 4493TIP3    H213444   0.123   5.907   2.590 -1.6240  0.6160  1.4270
 4494TIP3   OH213445   0.930   6.703   3.894 -0.4630 -0.6563 -0.0681
 4494TIP3    H113446   1.008   6.691   3.949  0.3987 -0.0066 -1.1112
 4494TIP3    H213447   0.928   6.796   3.875 -1.3043 -0.7243 -0.3364
 4495TIP3   OH213448   5.332   1.328   0.662  0.3509 -0.0717 -0.1787
 4495TIP3    H113449   5.419   1.356   0.689 -0.3069  2.0051 -0.0570
 4495TIP3    H213450   5.334   1.332   0.566  0.5610 -0.5964 -0.1971
 4496TIP3   OH213451   6.063   2.840   4.462 -0.3072  0.2863 -0.7377
 4496TIP3    H113452   6.081   2.934   4.465 -2.7544  0.8434 -1.2559
 4496TIP3    H213453   6.077   2.810   4.551 -0.9490  1.4716 -0.2132
 4497TIP3   OH213454   5.925   6.015   3.446  0.3792  0.5086 -0.1356
 4497TIP3    H113455   5.961   5.962   3.374 -0.4832 -0.7887  0.3402
 4497TIP3    H213456   5.865   6.076   3.403 -2.9056 -2.5433 -0.4383
 4498TIP3   OH213457   1.747   1.160   3.685  0.2291  0.0963  0.4190
 4498TIP3    H113458   1.657   1.144   3.711  0.1033 -1.6533 -0.8851
 4498TIP3    H213459   1.741   1.190   3.594  0.9487 -0.2094  0.2618
 4499TIP3   OH213460   0.182   3.350   4.537 -0.1038  0.0437 -0.5357
 4499TIP3    H113461   0.089   3.337   4.551  0.0148  0.1875  0.4765
 4499TIP3    H213462   0.190   3.439   4.504 -0.2371  0.5003  0.6116
 4500TIP3   OH213463   5.052   6.397   5.024  0.1722 -0.8042  0.3507
 4500TIP3    H113464   4.964   6.382   5.057  0.6743 -4.3823  0.4205
 4500TIP3    H213465   5.039   6.436   4.937 -1.3026  1.3942  1.4632
 4501TIP3   OH213466   0.476   6.112   4.557 -0.0855 -0.2602 -0.0066
 4501TIP3    H113467   0.557   6.064   4.544  0.2365  0.1432  0.4501
 4501TIP3    H213468   0.493   6.199   4.519 -1.1321 -0.9085 -2.0745
 4502TIP3   OH213469   2.233   6.730   1.173 -0.4786 -0.0330 -0.2586
 4502TIP3    H113470   2.264   6.770   1.092  0.7388  0.3431  0.3672
 4502TIP3    H213471   2.305   6.674   1.201 -0.4098  0.7064  1.1427
 4503TIP3   OH213472   4.431   3.064   1.075  0.0102 -0.2510  0.0373
 4503TIP3    H113473   4.421   2.969   1.074  0.2394 -0.2811 -1.4880
 4503TIP3    H213474   4.509   3.081   1.022  0.4544  0.7492  0.9753
 4504TIP3   OH213475   1.919   1.858   4.114  0.4828 -0.0081 -0.0699
 4504TIP3    H113476   1.983   1.798   4.153  0.3138  0.7401  1.4583
 4504TIP3    H213477   1.883   1.906   4.189 -0.3364  1.0696 -1.1121
 4505TIP3   OH213478   5.349   1.520   3.354 -0.3962 -0.3286  0.3041
 4505TIP3    H113479   5.370   1.608   3.386 -2.4963  0.3794 -0.1539
 4505TIP3    H213480   5.371   1.463   3.428  1.5026  0.4738  0.4229
 4506TIP3   OH213481   1.875   6.225   1.501 -0.2445 -0.3293  0.0341
 4506TIP3    H113482   1.847   6.190   1.417 -1.3001 -0.0518  0.2548
 4506TIP3    H213483   1.926   6.303   1.479  0.1542 -0.6993 -0.3684
 4507TIP3   OH213484   6.578   3.867   2.217 -0.0976 -0.1765 -0.4016
 4507TIP3    H113485   6.648   3.803   2.234 -0.4898 -0.0194  2.2813
 4507TIP3    H213486   6.618   3.952   2.235 -0.3783  0.1164 -1.1158
 4508TIP3   OH213487   0.193   0.826   4.072  0.3183  0.3350 -0.7154
 4508TIP3    H113488   0.118   0.797   4.123  0.6065 -0.1818 -0.5765
 4508TIP3    H213489   0.234   0.745   4.042 -0.3934  0.6069 -2.5896
 4509TIP3   OH213490   0.509   2.630   4.661 -0.2635 -0.0827  0.0438
 4509TIP3    H113491   0.501   2.718   4.622 -0.2218  0.7616  1.8346
 4509TIP3    H213492   0.431   2.583   4.631 -0.1214  0.4438 -1.2073
 4510TIP3   OH213493   7.131   6.788   1.327 -0.3662  0.6698  0.0067
 4510TIP3    H113494   7.119   6.778   1.232 -0.2009  2.5332 -0.2402
 4510TIP3    H213495   7.079   6.717   1.365  1.1765 -1.3980 -1.4937
 4511TIP3   OH213496   2.693   6.196   2.337 -0.2123  0.1502  0.6009
 4511TIP3    H113497   2.668   6.105   2.318 -0.3983  0.3183  0.0194
 4511TIP3    H213498   2.727   6.193   2.426  0.3158 -0.6046  0.3904
 4512TIP3   OH213499   0.498   0.880   2.227  0.0501  0.0117 -0.3077
 4512TIP3    H113500   0.487   0.810   2.291  1.6204 -0.4737 -0.5354
 4512TIP3    H213501   0.437   0.948   2.256  0.6926 -0.1985  1.6919
 4513TIP3   OH213502   6.266   4.068   2.583 -0.2787 -0.0777  0.2746
 4513TIP3    H113503   6.293   4.068   2.491  0.5513 -0.4313  0.5102
 4513TIP3    H213504   6.171   4.054   2.580 -0.0245 -1.8708 -0.4762
 4514TIP3   OH213505   2.392   4.974   0.066 -0.0460 -0.3446 -0.2896
 4514TIP3    H113506   2.416   4.974   0.159  1.9219  1.3470 -0.7247
 4514TIP3    H213507   2.440   4.900   0.029  2.6020  1.3842 -0.6259
 4515TIP3   OH213508   3.936   6.626   3.768 -0.0198  0.6602 -0.4226
 4515TIP3    H113509   3.895   6.603   3.685  0.3653 -0.7202 -0.2650
 4515TIP3    H213510   3.948   6.721   3.764 -0.1209  0.6330 -1.8791
 4516TIP3   OH213511   2.109   5.286   0.471  0.1124 -0.1703 -0.3866
 4516TIP3    H113512   2.027   5.312   0.428 -0.6529 -0.7009  0.6929
 4516TIP3    H213513   2.162   5.365   0.471 -1.4396  0.9341  1.2160
 4517TIP3   OH213514   4.486   5.447   1.902  0.4363 -0.1851 -0.8255
 4517TIP3    H113515   4.524   5.532   1.925  1.0135 -0.2003 -1.6774
 4517TIP3    H213516   4.556   5.401   1.856  0.0310 -1.0155 -0.6304
 4518TIP3   OH213517   5.243   1.282   2.572  0.4065  0.2127  0.3583
 4518TIP3    H113518   5.232   1.288   2.667 -0.2252 -1.2128  0.4067
 4518TIP3    H213519   5.324   1.233   2.560  0.5171  0.4436  0.1508
 4519TIP3   OH213520   1.993   3.349   3.628  0.0122  0.4843 -0.4261
 4519TIP3    H113521   2.079   3.312   3.645 -0.9197 -1.4780  0.3493
 4519TIP3    H213522   1.954   3.360   3.715 -0.7721  0.6628 -0.7910
 4520TIP3   OH213523   1.539   0.023   3.828 -0.7074  0.1320  0.2561
 4520TIP3    H113524   1.511  -0.033   3.756 -2.9475  2.7576 -1.1138
 4520TIP3    H213525   1.634   0.018   3.828 -0.7522 -1.8031 -1.2703
 4521TIP3   OH213526   1.304   2.430   0.430 -0.1184 -0.1718  0.3610
 4521TIP3    H113527   1.324   2.450   0.338 -0.8875 -1.1166 -0.0309
 4521TIP3    H213528   1.365   2.484   0.480  0.1348  0.5574 -0.7009
 4522TIP3   OH213529   4.805   2.174   4.747 -0.3681  0.6680 -0.0379
 4522TIP3    H113530   4.775   2.154   4.836  0.4174  0.2656  0.1485
 4522TIP3    H213531   4.819   2.269   4.748  0.3980  0.5674  0.5291
 4523TIP3   OH213532   1.746   0.341   1.488 -0.3849 -0.0568 -0.1655
 4523TIP3    H113533   1.806   0.361   1.416 -1.2221  0.7702 -0.6522
 4523TIP3    H213534   1.729   0.248   1.479  0.8548 -0.3210  0.0120
 4524TIP3   OH213535   1.024   4.612   3.550  0.3256 -0.4151  0.4368
 4524TIP3    H113536   1.052   4.575   3.634 -0.3951  3.2474  2.5181
 4524TIP3    H213537   0.932   4.589   3.543 -0.0441  0.5929  1.5657
 4525TIP3   OH213538   6.090   0.730   3.301  0.5896  0.5067  0.4866
 4525TIP3    H113539   6.036   0.806   3.324 -0.6423  0.3198 -1.5278
 4525TIP3    H213540   6.140   0.760   3.225 -0.2714 -0.8094 -0.6401
 4526TIP3   OH213541   2.363   1.941   0.442  0.4011  0.2213 -0.4872
 4526TIP3    H113542   2.322   1.999   0.377 -0.3216  0.1317 -0.1162
 4526TIP3    H213543   2.419   1.883   0.390  0.3329  0.5782 -0.9654
 4527TIP3   OH213544   1.403   6.020   5.457  0.3670 -0.1674  0.1512
 4527TIP3    H113545   1.379   6.107   5.424  0.6687 -0.4388 -0.8204
 4527TIP3    H213546   1.493   6.007   5.427  0.0959 -1.0897 -0.3003
 4528TIP3   OH213547   4.380   1.762   4.014 -0.0412  0.3368  0.2602
 4528TIP3    H113548   4.357   1.851   4.039  3.6725  1.1726  1.3074
 4528TIP3    H213549   4.378   1.713   4.096  0.2752  0.0743  0.1152
 4529TIP3   OH213550   6.679   0.204   2.221  0.1558  0.3262  0.0453
 4529TIP3    H113551   6.679   0.300   2.221 -2.0619  0.3732 -0.0260
 4529TIP3    H213552   6.606   0.180   2.164  1.0297 -1.4491 -0.4135
 4530TIP3   OH213553   1.591   0.621   1.230 -0.2930  0.1187  0.4300
 4530TIP3    H113554   1.596   0.672   1.149 -0.2546  1.3030  1.1669
 4530TIP3    H213555   1.515   0.655   1.276 -0.7627 -1.0588  0.5713
 4531TIP3   OH213556   1.138   1.107   5.620 -0.6354 -0.3063  0.4550
 4531TIP3    H113557   1.222   1.115   5.574 -0.2452 -0.8028  1.0690
 4531TIP3    H213558   1.162   1.093   5.711 -1.4028  2.9634  1.2846
 4532TIP3   OH213559   3.701   4.824   4.267 -1.0435 -0.1976  0.1244
 4532TIP3    H113560   3.722   4.823   4.173 -0.0569 -0.5334  0.3369
 4532TIP3    H213561   3.609   4.851   4.271 -0.0964  3.9160 -0.7854
 4533TIP3   OH213562   3.247   1.452   0.572  0.1212  0.1586 -0.0352
 4533TIP3    H113563   3.222   1.362   0.595 -1.1308  0.2524 -0.8770
 4533TIP3    H213564   3.336   1.462   0.605  0.7453 -1.7960 -0.9808
 4534TIP3   OH213565   1.060   2.857   5.406 -0.3913 -0.0975 -0.5500
 4534TIP3    H113566   1.085   2.909   5.482 -0.9271 -1.0425  0.3038
 4534TIP3    H213567   1.033   2.921   5.341  0.0071  0.7306  0.0814
 4535TIP3   OH213568   1.573   2.621   2.137  0.3000 -0.1125  0.0926
 4535TIP3    H113569   1.536   2.667   2.212  2.8347  0.9929  0.7856
 4535TIP3    H213570   1.585   2.689   2.071  3.2415  0.1827  0.7942
 4536TIP3   OH213571   0.078   5.264   1.988  0.0859  0.4862  0.0427
 4536TIP3    H113572   0.167   5.231   1.997 -0.3579 -0.2917  2.4026
 4536TIP3    H213573   0.022   5.190   2.015 -1.2091  1.3875 -0.0687
 4537TIP3   OH213574   1.264   3.545   0.291  0.1483  0.3999 -0.3244
 4537TIP3    H113575   1.338   3.489   0.314 -0.2319 -0.1614 -0.4701
 4537TIP3    H213576   1.188   3.487   0.292 -0.3025  0.9870 -0.1125
 4538TIP3   OH213577   6.633   3.586   3.286  0.2937  0.4775  0.7045
 4538TIP3    H113578   6.641   3.594   3.191  1.9353  1.3909  0.8857
 4538TIP3    H213579   6.557   3.640   3.308  1.2612  2.1690  0.1178
 4539TIP3   OH213580   2.088   0.602   2.636  0.4487 -0.1843  0.0890
 4539TIP3    H113581   2.153   0.576   2.570  0.4930 -0.6494  0.3074
 4539TIP3    H213582   2.069   0.693   2.617  1.0421 -0.0934 -0.0868
 4540TIP3   OH213583   4.160   5.042   1.295  0.2868 -0.2017  0.3833
 4540TIP3    H113584   4.247   5.001   1.298  1.0374  1.3498  1.3504
 4540TIP3    H213585   4.133   5.049   1.387 -1.0806 -1.0667  0.0678
 4541TIP3   OH213586   7.168   5.676   1.568  0.1148 -0.7264 -0.5696
 4541TIP3    H113587   7.227   5.617   1.615  0.8380 -0.9095 -1.6631
 4541TIP3    H213588   7.085   5.670   1.615  0.6945 -1.2109  0.4221
 4542TIP3   OH213589   3.338   6.764   4.494 -0.3612 -0.5618 -0.1255
 4542TIP3    H113590   3.347   6.768   4.399  2.2202 -0.5737  0.0585
 4542TIP3    H213591   3.388   6.686   4.520  1.1262  0.8066  1.4034
 4543TIP3   OH213592   4.731   4.772   4.146  0.1431 -0.6752  0.1526
 4543TIP3    H113593   4.788   4.719   4.202  1.2734 -0.0928 -0.4122
 4543TIP3    H213594   4.706   4.713   4.075 -0.0716 -0.9717  0.4704
 4544TIP3   OH213595   3.521   5.662   2.792  0.6372  0.4616  0.7463
 4544TIP3    H113596   3.608   5.625   2.800  0.3356 -0.5632 -0.4524
 4544TIP3    H213597   3.485   5.624   2.712 -1.3411 -0.0078  1.7829
 4545TIP3   OH213598   0.809   5.588   0.506  0.0503 -0.4446  0.2231
 4545TIP3    H113599   0.748   5.623   0.441 -0.5590 -0.7887  0.6002
 4545TIP3    H213600   0.896   5.608   0.470 -0.2323 -2.1080 -1.5377
 4546TIP3   OH213601   4.456   0.721   4.424  0.0051 -0.2776  0.4860
 4546TIP3    H113602   4.412   0.640   4.396 -1.2180  0.7826 -0.7991
 4546TIP3    H213603   4.405   0.751   4.499 -0.4506  0.0718  0.0398
 4547TIP3   OH213604   4.882   1.734   4.730 -0.4427 -0.0804 -0.1431
 4547TIP3    H113605   4.862   1.655   4.780  0.7396  0.2722  0.9624
 4547TIP3    H213606   4.866   1.806   4.791  2.8403  0.2773  0.4921
 4548TIP3   OH213607   5.023   0.159   3.907  0.0104  0.1529  0.3541
 4548TIP3    H113608   4.954   0.225   3.908  0.8938  1.0987  1.1351
 4548TIP3    H213609   5.003   0.104   3.831  0.5247  2.6862 -1.7250
 4549TIP3   OH213610   5.311   2.808   2.602  0.2596 -0.0396  0.5043
 4549TIP3    H113611   5.354   2.761   2.674  0.7993 -0.2132  0.0741
 4549TIP3    H213612   5.358   2.780   2.524 -1.2517 -0.9362 -0.1018
 4550TIP3   OH213613   5.729   3.091   4.988 -0.1880 -0.0339  0.3219
 4550TIP3    H113614   5.713   3.098   4.894 -0.1840  2.0946  0.4339
 4550TIP3    H213615   5.813   3.135   5.002 -1.0136  1.2426  1.5152
 4551TIP3   OH213616   2.447   0.419   1.382 -0.0745 -0.3630 -0.4826
 4551TIP3    H113617   2.496   0.497   1.408  1.8345 -1.8878  0.7984
 4551TIP3    H213618   2.389   0.402   1.455 -0.6143 -0.0615 -0.8368
 4552TIP3   OH213619   5.793   0.641   2.480  0.1593 -0.5631  0.3810
 4552TIP3    H113620   5.818   0.549   2.471  1.2284 -0.3054  0.5976
 4552TIP3    H213621   5.840   0.671   2.558 -1.9486 -0.4205  1.7028
 4553TIP3   OH213622   4.296   5.324   4.967  0.1037 -0.5931 -0.0148
 4553TIP3    H113623   4.273   5.411   4.936  1.5049  0.8331  2.5975
 4553TIP3    H213624   4.359   5.292   4.903  1.0965  1.2079 -0.0121
 4554TIP3   OH213625   2.829   6.646   5.528 -0.1729 -0.4837  0.3907
 4554TIP3    H113626   2.920   6.673   5.518 -0.1336  0.0971  1.9662
 4554TIP3    H213627   2.832   6.550   5.530  0.2770 -0.4937 -0.5332
 4555TIP3   OH213628   2.647   2.132   4.220 -0.0092  0.5604 -0.4257
 4555TIP3    H113629   2.666   2.224   4.234  1.2105  0.2650 -0.0687
 4555TIP3    H213630   2.708   2.104   4.152 -1.1302  0.2721 -1.3454
 4556TIP3   OH213631   0.332   3.116   4.178  0.1656 -0.0517  0.1701
 4556TIP3    H113632   0.283   3.058   4.237  0.9432 -0.8403  0.0569
 4556TIP3    H213633   0.423   3.089   4.188  0.7151  1.8842  0.9262
 4557TIP3   OH213634   0.574   1.278   1.308 -0.2790  0.0440 -0.0840
 4557TIP3    H113635   0.549   1.196   1.266  0.4294 -0.4218  0.3795
 4557TIP3    H213636   0.507   1.341   1.280 -1.1766 -0.8266  0.0333
 4558TIP3   OH213637   4.546   5.266   3.358 -0.1467 -0.0647  0.2026
 4558TIP3    H113638   4.508   5.287   3.272  0.3469 -1.6405 -0.4386
 4558TIP3    H213639   4.489   5.311   3.421 -1.8155 -0.6232 -0.8294
 4559TIP3   OH213640   1.265   0.798   1.576 -0.1291  0.4356  0.7266
 4559TIP3    H113641   1.172   0.801   1.553 -0.0216 -0.9631  0.0608
 4559TIP3    H213642   1.309   0.773   1.495  0.7006 -0.2007  1.3688
 4560TIP3   OH213643   4.748   5.208   3.083  0.0973 -0.0148 -0.2972
 4560TIP3    H113644   4.829   5.162   3.105 -0.0524  0.1151  0.5411
 4560TIP3    H213645   4.773   5.301   3.078 -0.3225  0.2682  1.7888
 4561TIP3   OH213646   4.025   2.547   3.017  0.1426  0.1623 -0.2317
 4561TIP3    H113647   4.057   2.634   3.044 -0.1325  0.4940 -0.9523
 4561TIP3    H213648   4.099   2.507   2.972 -0.4622  0.9922 -2.0396
 4562TIP3   OH213649   2.432   6.108   1.289  0.1051  0.0213 -0.0401
 4562TIP3    H113650   2.391   6.040   1.343 -1.9301  0.8391 -0.4865
 4562TIP3    H213651   2.414   6.081   1.199 -0.1287  0.8103 -0.2338
 4563TIP3   OH213652   0.214   2.139   1.628  0.0943 -0.0973 -0.2868
 4563TIP3    H113653   0.142   2.077   1.642  0.6662 -0.9675 -1.1324
 4563TIP3    H213654   0.268   2.100   1.560  0.2252  1.5484 -1.1969
 4564TIP3   OH213655   4.371   2.947   0.345 -0.5952  0.3510 -0.0046
 4564TIP3    H113656   4.288   2.948   0.297  0.3463  0.5986 -1.7137
 4564TIP3    H213657   4.368   2.866   0.396 -1.6376  0.0673 -0.4769
 4565TIP3   OH213658   0.155   2.540   2.369 -0.0309  0.0993 -0.7289
 4565TIP3    H113659   0.076   2.488   2.383  0.1976 -0.4744 -1.5050
 4565TIP3    H213660   0.203   2.493   2.301  1.8440 -0.5223  0.9616
 4566TIP3   OH213661   3.926   5.016   5.129  0.1451 -0.0229  0.2703
 4566TIP3    H113662   3.859   5.065   5.177  0.8588  0.4622  0.7964
 4566TIP3    H213663   3.877   4.962   5.067 -0.8042 -0.7390  1.6050
 4567TIP3   OH213664   1.728   2.477   4.833  0.7193 -0.2190  0.2115
 4567TIP3    H113665   1.648   2.439   4.868 -0.4149  1.8590  0.0235
 4567TIP3    H213666   1.757   2.538   4.901  0.2942  1.4561 -1.0719
 4568TIP3   OH213667   3.983   3.180   2.962  0.6211  0.1778  0.3595
 4568TIP3    H113668   4.024   3.265   2.951  1.9425 -0.5824 -0.8046
 4568TIP3    H213669   3.913   3.178   2.897 -1.3534  1.4217  2.2610
 4569TIP3   OH213670   4.583   6.752   0.021 -0.0678  0.8200  0.3557
 4569TIP3    H113671   4.553   6.666   0.051  1.1496  0.1347 -0.3568
 4569TIP3    H213672   4.672   6.759   0.054  0.6300  0.8639 -1.4485
 4570TIP3   OH213673   4.287   2.794   3.351  0.0320  0.4390 -0.1983
 4570TIP3    H113674   4.233   2.859   3.307  0.6642  2.1589  1.4246
 4570TIP3    H213675   4.373   2.836   3.360  0.6911 -0.9320  0.2145
 4571TIP3   OH213676   0.484   5.357   4.687  1.0671 -0.1746 -0.0723
 4571TIP3    H113677   0.466   5.296   4.758  0.7174 -1.2542 -1.0588
 4571TIP3    H213678   0.539   5.424   4.726  0.0617 -0.1979  1.4652
 4572TIP3   OH213679   2.797   5.943   2.166 -0.6062  0.0261 -0.1873
 4572TIP3    H113680   2.741   5.932   2.089  0.5938  0.7432 -1.2031
 4572TIP3    H213681   2.854   6.017   2.144  2.4708 -2.1877 -0.2761
 4573TIP3   OH213682   7.004   2.059   3.568 -0.3917  0.2232 -0.2216
 4573TIP3    H113683   6.976   2.142   3.607 -2.2324 -0.3446 -0.2525
 4573TIP3    H213684   7.075   2.083   3.509  0.7262  1.4502  1.5210
 4574TIP3   OH213685   2.143   1.680   2.459  0.0907 -0.6052 -0.1211
 4574TIP3    H113686   2.098   1.759   2.489 -2.1727 -1.3052 -1.4067
 4574TIP3    H213687   2.234   1.692   2.486 -0.6502  1.3441  1.7942
 4575TIP3   OH213688   6.037   4.492   1.521 -0.0554  0.5344  0.0393
 4575TIP3    H113689   6.080   4.560   1.469  0.3508 -0.1708 -0.5540
 4575TIP3    H213690   6.010   4.426   1.458 -2.3956  1.1268  0.3299
 4576TIP3   OH213691   5.807   0.519   1.761  0.0603  0.1601 -0.4572
 4576TIP3    H113692   5.785   0.491   1.672 -0.4311  1.7453 -0.8645
 4576TIP3    H213693   5.722   0.534   1.803  0.1817 -2.9075  1.1327
 4577TIP3   OH213694   5.171   2.367   2.071  0.1046  0.0049  0.4763
 4577TIP3    H113695   5.166   2.451   2.117 -0.1918 -1.1529  2.7154
 4577TIP3    H213696   5.264   2.342   2.079  0.0709 -0.1560  0.3602
 4578TIP3   OH213697   2.721   2.923   1.066  0.0292  0.8394  0.0705
 4578TIP3    H113698   2.682   2.836   1.053 -0.6656  1.1765 -0.1284
 4578TIP3    H213699   2.816   2.906   1.069 -0.1020  0.0652  0.1218
 4579TIP3   OH213700   6.827   5.504   3.006  0.3542 -0.4021  0.4487
 4579TIP3    H113701   6.885   5.516   3.082  1.3141  0.4575 -0.3848
 4579TIP3    H213702   6.876   5.542   2.933 -1.7085  1.3040 -0.1167
 4580TIP3   OH213703   2.627   6.664   1.637 -0.7304 -0.1207 -0.5725
 4580TIP3    H113704   2.666   6.727   1.698 -1.2616 -0.0129 -0.3443
 4580TIP3    H213705   2.627   6.709   1.553 -0.4386 -0.0928 -0.5619
 4581TIP3   OH213706   1.812   3.850   3.860  0.3355  0.4618  0.0451
 4581TIP3    H113707   1.774   3.932   3.892  1.7953  1.0324  0.3948
 4581TIP3    H213708   1.901   3.873   3.836  0.4101 -0.7805 -0.9936
 4582TIP3   OH213709   5.335   3.655   5.259 -0.5653  0.2537 -0.1806
 4582TIP3    H113710   5.270   3.724   5.258  0.5062  1.3014 -0.7663
 4582TIP3    H213711   5.295   3.583   5.210 -1.5904  0.5423  0.2111
 4583TIP3   OH213712   4.737   4.159   4.109 -0.2721 -0.2379  0.0909
 4583TIP3    H113713   4.776   4.233   4.063  0.6223 -0.5534  0.3205
 4583TIP3    H213714   4.804   4.091   4.106 -1.1208 -1.0832 -0.2185
 4584TIP3   OH213715   3.739   5.983   2.521  0.4708  0.1139 -0.2013
 4584TIP3    H113716   3.802   5.920   2.558  1.4060  0.2627 -1.4570
 4584TIP3    H213717   3.670   5.988   2.586  0.8864 -1.4237  0.4249
 4585TIP3   OH213718   2.887   2.341   2.119  0.0249 -0.1722  0.2866
 4585TIP3    H113719   2.851   2.281   2.183  0.4901  0.9228  1.6087
 4585TIP3    H213720   2.846   2.425   2.138  1.1889  0.4723  0.0476
 4586TIP3   OH213721   4.196   2.284   2.425 -0.0177  0.1868  0.2575
 4586TIP3    H113722   4.114   2.243   2.395  0.9479 -1.2739 -0.5280
 4586TIP3    H213723   4.261   2.214   2.419  1.2548  1.2522  1.0914
 4587TIP3   OH213724   5.325   4.390   0.092  0.3210 -0.0659 -0.3972
 4587TIP3    H113725   5.235   4.373   0.067 -0.1753  1.0263  0.5373
 4587TIP3    H213726   5.335   4.347   0.177  0.8185 -0.5570 -0.7002
 4588TIP3   OH213727   4.072   2.712   2.461  0.5283 -0.2388  0.5759
 4588TIP3    H113728   4.074   2.741   2.369  1.0094 -1.1033  0.3021
 4588TIP3    H213729   4.164   2.707   2.486  0.5610 -2.6265  0.2349
 4589TIP3   OH213730   2.375   3.147   0.242 -0.0894 -0.4174  0.1567
 4589TIP3    H113731   2.432   3.195   0.182 -0.3978 -0.8467 -0.4931
 4589TIP3    H213732   2.316   3.097   0.185 -1.1234  0.0174  0.8010
 4590TIP3   OH213733   1.146   4.926   2.705  0.0580  0.2327  0.1216
 4590TIP3    H113734   1.054   4.951   2.720 -0.0682  0.4444 -0.9030
 4590TIP3    H213735   1.173   4.882   2.785 -0.8197  0.5342  0.5925
 4591TIP3   OH213736   5.776   5.998   5.793  0.3233  0.3666 -0.7588
 4591TIP3    H113737   5.837   5.950   5.849  0.1535  0.0111 -0.8784
 4591TIP3    H213738   5.719   6.044   5.855  0.1936  0.0465 -0.6400
 4592TIP3   OH213739   1.198   6.380   0.610 -0.3118 -0.4123 -0.3963
 4592TIP3    H113740   1.133   6.363   0.678 -0.2880  0.7725 -0.0552
 4592TIP3    H213741   1.163   6.336   0.532 -1.3314 -0.1317 -0.1131
 4593TIP3   OH213742   4.404   4.394   4.685 -0.0129 -0.1049  0.5239
 4593TIP3    H113743   4.366   4.313   4.717  0.9677 -0.2700  1.3387
 4593TIP3    H213744   4.410   4.450   4.763  0.6764  0.1913  0.2715
 4594TIP3   OH213745   6.589   6.708   1.059  0.0766  0.2338 -0.4642
 4594TIP3    H113746   6.520   6.772   1.041 -1.9581 -1.0665  1.9469
 4594TIP3    H213747   6.541   6.629   1.087  2.5333 -1.1037  0.2733
 4595TIP3   OH213748   2.477   4.139   1.474 -0.3163 -0.3632 -0.1925
 4595TIP3    H113749   2.560   4.187   1.485  0.2663 -1.5420  0.7020
 4595TIP3    H213750   2.430   4.152   1.556  0.2091 -1.9568  0.3996
 4596TIP3   OH213751   1.716   1.688   3.974 -0.4268  0.0844  0.4048
 4596TIP3    H113752   1.789   1.740   4.006 -1.5789  1.4895  0.8617
 4596TIP3    H213753   1.695   1.629   4.046 -0.0949  0.0549  0.4773
 4597TIP3   OH213754   6.448   0.330   5.074  0.1104 -0.4512 -0.4371
 4597TIP3    H113755   6.378   0.361   5.017  0.0903 -0.7386 -0.5673
 4597TIP3    H213756   6.441   0.235   5.072 -1.8865 -0.5037  2.4888
 4598TIP3   OH213757   4.049   3.716   3.190  0.4096  0.1227  0.2850
 4598TIP3    H113758   4.067   3.713   3.096 -2.0458 -0.5286 -0.2343
 4598TIP3    H213759   4.010   3.802   3.203 -2.0363 -0.8816  0.0652
 4599TIP3   OH213760   2.970   2.612   1.627  0.6192  0.1322  0.1436
 4599TIP3    H113761   2.885   2.575   1.600  0.0587  1.3776  0.1299
 4599TIP3    H213762   3.035   2.557   1.582 -0.2205  0.1504 -1.1674
 4600TIP3   OH213763   0.891   6.580   2.882 -0.4483 -0.0861 -0.4921
 4600TIP3    H113764   0.886   6.674   2.866  1.5355  0.9336  3.4325
 4600TIP3    H213765   0.983   6.557   2.864 -0.3388 -0.6979  0.7383
 4601TIP3   OH213766   2.678   5.671   3.364 -0.4375 -0.6275 -0.3114
 4601TIP3    H113767   2.623   5.704   3.293 -0.1593 -0.6801 -0.5553
 4601TIP3    H213768   2.760   5.719   3.355 -0.5983 -0.2264  0.3235
 4602TIP3   OH213769   2.972   1.745   2.265  0.0247 -0.3026 -0.4845
 4602TIP3    H113770   2.939   1.678   2.205  1.5602 -0.7614 -0.8427
 4602TIP3    H213771   2.980   1.824   2.212  0.2135 -0.3887 -0.5853
 4603TIP3   OH213772   3.757   2.597   3.393 -0.0189  0.4000 -0.1490
 4603TIP3    H113773   3.788   2.682   3.424 -0.1051  0.5728 -0.5343
 4603TIP3    H213774   3.703   2.617   3.316 -1.9175  0.2226  1.0487
 4604TIP3   OH213775   5.329   5.366   5.067 -0.6400  0.1713  0.5198
 4604TIP3    H113776   5.420   5.378   5.041 -1.5106  1.0604 -2.4993
 4604TIP3    H213777   5.328   5.283   5.115  1.4089 -1.0182 -1.3208
 4605TIP3   OH213778   3.512   1.130   2.010  0.5873  0.3153  0.7925
 4605TIP3    H113779   3.419   1.146   1.999  0.5934 -1.1362 -2.7468
 4605TIP3    H213780   3.518   1.037   2.034  1.1178  0.3422  0.7850
 4606TIP3   OH213781   4.951   4.092   1.024  0.8665  0.3773 -0.1539
 4606TIP3    H113782   4.879   4.134   0.977  1.0038  0.0440 -0.6734
 4606TIP3    H213783   4.961   4.007   0.982  0.6011 -0.1817  0.8875
 4607TIP3   OH213784   6.896   1.347   4.359 -0.7228  0.0042 -0.1718
 4607TIP3    H113785   6.962   1.391   4.305 -0.4370  1.5039  1.3260
 4607TIP3    H213786   6.908   1.383   4.446 -3.0066 -0.2747  0.3317
 4608TIP3   OH213787   4.421   3.293   1.285 -0.4318 -0.3135 -0.0668
 4608TIP3    H113788   4.454   3.241   1.212  0.9116  1.2170 -0.5986
 4608TIP3    H213789   4.361   3.355   1.245  1.1147  1.2351 -0.0720
 4609TIP3   OH213790   2.626   0.468   4.896  0.6471  0.3870  0.3888
 4609TIP3    H113791   2.670   0.386   4.871 -1.0412 -0.5146  0.1947
 4609TIP3    H213792   2.634   0.524   4.819  0.3568 -0.2559 -0.1205
 4610TIP3   OH213793   6.721   3.116   4.621 -0.2917 -0.5671 -0.4111
 4610TIP3    H113794   6.638   3.149   4.655  0.4073 -1.5053  2.5865
 4610TIP3    H213795   6.702   3.028   4.590 -0.3372 -1.1298  1.1056
 4611TIP3   OH213796   4.307   5.254   1.509  0.2678 -0.0650  1.2708
 4611TIP3    H113797   4.231   5.196   1.514 -0.2076  0.2336 -1.1961
 4611TIP3    H213798   4.374   5.200   1.467  1.0531  0.0503  2.3560
 4612TIP3   OH213799   2.689   0.999   1.449 -0.0700  0.2825 -0.4400
 4612TIP3    H113800   2.603   1.040   1.439 -1.3012 -1.3019  2.4202
 4612TIP3    H213801   2.712   0.970   1.361 -2.2126  1.2288 -1.3872
 4613TIP3   OH213802   0.896   4.397   0.997 -0.4201  0.1137  0.0714
 4613TIP3    H113803   0.892   4.479   1.046  0.0828  0.9206 -1.2120
 4613TIP3    H213804   0.839   4.338   1.046  2.1731 -0.0118  3.2480
 4614TIP3   OH213805   2.294   4.817   3.886 -0.2447 -0.6597 -0.9481
 4614TIP3    H113806   2.316   4.784   3.798 -0.5187  0.2879 -1.3866
 4614TIP3    H213807   2.206   4.854   3.876 -0.2539 -0.4891 -0.2832
 4615TIP3   OH213808   6.115   3.154   3.806 -0.0502 -0.4306 -0.5329
 4615TIP3    H113809   6.093   3.096   3.733 -1.4237  0.4517 -0.8567
 4615TIP3    H213810   6.135   3.238   3.765 -1.4136  0.2372  0.1163
 4616TIP3   OH213811   4.573   3.766   0.293 -0.6059  0.0529  0.2976
 4616TIP3    H113812   4.554   3.832   0.227  0.2697  1.8375  1.7481
 4616TIP3    H213813   4.487   3.737   0.323 -1.0474  1.6044  0.6260
 4617TIP3   OH213814   3.744   0.439   4.366 -0.0916  0.3869 -0.0499
 4617TIP3    H113815   3.705   0.375   4.307  0.2351  1.3622 -1.3622
 4617TIP3    H213816   3.690   0.518   4.356 -0.3656  0.4139  1.3842
 4618TIP3   OH213817   5.317   5.730   5.221  0.2260  0.2952  0.0261
 4618TIP3    H113818   5.249   5.793   5.245 -0.0117  0.1661 -0.2988
 4618TIP3    H213819   5.295   5.652   5.272  0.6013  0.5105  0.5351
 4619TIP3   OH213820   3.980   5.930   0.520 -0.6499 -0.7556 -0.0648
 4619TIP3    H113821   4.022   5.852   0.556  0.0755 -1.6027 -2.5219
 4619TIP3    H213822   3.951   5.903   0.432 -0.7962  1.6012 -0.8198
 4620TIP3   OH213823   6.888   4.098   0.870 -0.0527  0.4388 -0.2260
 4620TIP3    H113824   6.924   4.121   0.785 -0.7362  2.0622 -0.1204
 4620TIP3    H213825   6.797   4.074   0.852  0.0276 -0.0070 -0.0463
 4621TIP3   OH213826   5.730   5.735   0.105 -0.0156 -0.1087 -0.5275
 4621TIP3    H113827   5.811   5.755   0.059 -1.2369  3.0329 -1.5457
 4621TIP3    H213828   5.690   5.665   0.054  1.9107 -1.6600 -0.0507
 4622TIP3   OH213829   1.932   5.316   4.447 -0.5572 -0.1973 -0.2636
 4622TIP3    H113830   1.921   5.329   4.353  0.7076 -1.1572 -0.5748
 4622TIP3    H213831   2.019   5.277   4.456 -1.2011 -1.4026  1.1862
 4623TIP3   OH213832   5.217   0.943   5.038  0.1025 -0.3441 -0.0988
 4623TIP3    H113833   5.255   0.935   5.125 -0.0583  0.0544  0.0110
 4623TIP3    H213834   5.125   0.962   5.054  0.5760  2.4699 -0.3028
 4624TIP3   OH213835   2.019   1.525   2.256 -0.5483  0.2099  0.3131
 4624TIP3    H113836   2.070   1.546   2.177  0.3027 -1.2332  0.4323
 4624TIP3    H213837   2.039   1.597   2.317  0.0038  0.5429 -0.2441
 4625TIP3   OH213838   0.187   6.003   3.753  0.4192 -0.1170  0.7060
 4625TIP3    H113839   0.161   6.088   3.718  1.5481  0.5101  1.3510
 4625TIP3    H213840   0.273   5.987   3.715 -0.3331 -1.6180 -0.4662
 4626TIP3   OH213841   6.792   2.445   3.381  0.1541 -0.2944  0.4710
 4626TIP3    H113842   6.853   2.372   3.378 -0.9562 -1.2189 -0.2930
 4626TIP3    H213843   6.843   2.520   3.350  0.5138 -1.3402 -1.6222
 4627TIP3   OH213844   0.154   2.012   2.761 -0.2103 -0.3017  0.5684
 4627TIP3    H113845   0.094   1.970   2.822  0.3775 -1.9754  0.0417
 4627TIP3    H213846   0.239   2.009   2.805 -0.3104  1.2590  0.9339
 4628TIP3   OH213847   2.911   4.422   2.806 -0.3876  0.3400  0.0397
 4628TIP3    H113848   2.922   4.411   2.711  0.1990  0.8206  0.0518
 4628TIP3    H213849   2.858   4.346   2.832 -1.4148  0.7394 -0.8266
 4629TIP3   OH213850   1.836   5.136   5.442  0.0249  0.7206  0.1492
 4629TIP3    H113851   1.869   5.176   5.361  0.0585 -0.2278 -0.3138
 4629TIP3    H213852   1.742   5.150   5.438  0.0993  1.2850  0.2872
 4630TIP3   OH213853   2.121   5.584   1.732 -0.1226 -0.0182  0.5227
 4630TIP3    H113854   2.103   5.522   1.802  1.3305 -0.8639  0.1914
 4630TIP3    H213855   2.047   5.574   1.672 -1.0720  0.2827  1.6208
 4631TIP3   OH213856   3.818   6.090   4.627  0.7482  0.1973 -0.1746
 4631TIP3    H113857   3.729   6.125   4.628  0.3087 -0.8993  0.0877
 4631TIP3    H213858   3.821   6.032   4.551  0.2982 -2.0409  1.4153
 4632TIP3   OH213859   1.826   5.505   3.080  0.1716  0.0434 -0.1666
 4632TIP3    H113860   1.844   5.539   3.167  0.1127 -2.8577  1.0676
 4632TIP3    H213861   1.910   5.471   3.049 -0.0584 -0.0117 -0.7555
 4633TIP3   OH213862   0.670   6.311   1.787 -0.3903  0.0969 -0.2728
 4633TIP3    H113863   0.586   6.350   1.814 -0.8413  0.3138 -1.8534
 4633TIP3    H213864   0.709   6.377   1.729 -0.5560 -1.2267 -1.9628
 4634TIP3   OH213865   5.033   1.875   2.105 -0.4721  0.5722  0.0297
 4634TIP3    H113866   4.966   1.823   2.149 -0.0143  0.9523  1.2191
 4634TIP3    H213867   5.029   1.961   2.148  1.7723  0.1630  1.2399
 4635TIP3   OH213868   3.588   1.067   1.125  0.1726  0.3189 -0.3334
 4635TIP3    H113869   3.632   1.151   1.131  0.0493  0.2970  1.3158
 4635TIP3    H213870   3.653   1.003   1.156 -0.4477  0.0922  0.5356
 4636TIP3   OH213871   2.175   6.288   2.958 -0.1527 -0.0349  0.0902
 4636TIP3    H113872   2.081   6.288   2.939  0.1380  0.6518 -1.5636
 4636TIP3    H213873   2.190   6.207   3.005 -1.7782  0.4524  1.5826
 4637TIP3   OH213874   2.300   1.809   5.757 -0.0465 -0.1385  0.0712
 4637TIP3    H113875   2.282   1.896   5.792  1.1400 -0.0727  0.5945
 4637TIP3    H213876   2.274   1.749   5.827 -0.7629 -0.2067 -0.2470
 4638TIP3   OH213877   3.271   4.269   4.348  0.1478 -0.0099  0.7272
 4638TIP3    H113878   3.238   4.248   4.435  0.0456 -0.2165  0.6384
 4638TIP3    H213879   3.363   4.292   4.362 -0.2093  1.3224  1.0953
 4639TIP3   OH213880   4.847   4.792   3.771  0.2935 -0.2826  0.3237
 4639TIP3    H113881   4.788   4.856   3.730  0.8762 -0.7609 -1.3608
 4639TIP3    H213882   4.805   4.708   3.756 -0.1646 -0.3844  1.9975
 4640TIP3   OH213883   1.034   5.184   2.469 -0.3385 -0.3899  0.0408
 4640TIP3    H113884   0.947   5.159   2.440 -0.9109  0.9880  0.4866
 4640TIP3    H213885   1.025   5.199   2.563  0.3291 -0.0452  0.0579
 4641TIP3   OH213886   0.925   1.385   2.760  0.0680 -0.1453 -0.3952
 4641TIP3    H113887   0.924   1.419   2.850 -0.0074 -1.2579  0.0442
 4641TIP3    H213888   0.835   1.357   2.744 -0.0445  0.5508 -1.0352
 4642TIP3   OH213889   3.998   5.996   2.206 -0.0342  0.2316  0.5474
 4642TIP3    H113890   4.066   6.058   2.181  1.5389 -1.3046  0.7786
 4642TIP3    H213891   3.963   6.030   2.289  0.3662  1.1161  0.3592
 4643TIP3   OH213892   1.556   4.327   0.877  0.1707 -0.0188  0.3225
 4643TIP3    H113893   1.501   4.404   0.895 -2.0376 -0.5742 -3.1402
 4643TIP3    H213894   1.630   4.361   0.827  0.2718  0.0979  0.5497
 4644TIP3   OH213895   5.666   4.779   0.698 -0.0628  0.0944 -0.0628
 4644TIP3    H113896   5.584   4.728   0.701  0.7235 -1.1707  1.5414
 4644TIP3    H213897   5.725   4.725   0.646 -0.1203  0.8599 -0.9499
 4645TIP3   OH213898   1.694   1.741   5.121  0.0947 -0.4155 -0.3725
 4645TIP3    H113899   1.614   1.745   5.173 -0.4200  0.0176 -1.1856
 4645TIP3    H213900   1.674   1.790   5.042  1.7259  1.1704  0.1428
 4646TIP3   OH213901   3.581   5.849   4.668 -0.3195  0.3993  0.0310
 4646TIP3    H113902   3.499   5.831   4.622 -0.1320 -0.6386  0.0808
 4646TIP3    H213903   3.644   5.786   4.631  0.7599  1.8833 -0.7986
 4647TIP3   OH213904   0.097   2.874   2.144  0.2350  0.5532 -0.5446
 4647TIP3    H113905   0.181   2.831   2.127  0.5482  0.2538  1.4534
 4647TIP3    H213906   0.035   2.828   2.088  0.5528 -2.6658  1.4748
 4648TIP3   OH213907   1.663   5.765   3.314  0.0575 -0.1509 -0.0427
 4648TIP3    H113908   1.642   5.855   3.291 -0.8786 -0.1303  0.8630
 4648TIP3    H213909   1.673   5.765   3.409  1.5308 -0.7145 -0.1694
 4649TIP3   OH213910   3.058   6.728   1.091 -0.2530  0.2048  0.1661
 4649TIP3    H113911   3.009   6.809   1.082 -0.7530 -0.0274  0.7265
 4649TIP3    H213912   3.047   6.683   1.007  0.9605  1.2060 -0.5680
 4650TIP3   OH213913   3.222   2.334   3.685 -0.8160  0.3394  0.1665
 4650TIP3    H113914   3.271   2.308   3.763 -1.5004  1.3293  0.9512
 4650TIP3    H213915   3.277   2.400   3.643 -0.2813 -0.4527 -0.3989
 4651TIP3   OH213916   0.641   1.856   5.877  0.5835 -0.4995  0.7239
 4651TIP3    H113917   0.697   1.836   5.951  2.1016  1.3062  0.1570
 4651TIP3    H213918   0.660   1.787   5.813  0.3024 -1.2821  1.4781
 4652TIP3   OH213919   2.725   6.459   2.431  0.2041  0.0319 -0.2013
 4652TIP3    H113920   2.631   6.440   2.428 -0.2516  2.0835 -1.7273
 4652TIP3    H213921   2.764   6.396   2.370  0.2576 -2.4641  2.2365
 4653TIP3   OH213922   4.940   4.442   0.902  0.1323  0.2524 -0.2649
 4653TIP3    H113923   4.861   4.393   0.925  0.9062 -0.6822  0.4651
 4653TIP3    H213924   4.926   4.469   0.811  0.0674 -2.1049 -1.0029
 4654TIP3   OH213925   3.094   2.193   1.929  0.0551  0.1153  0.0081
 4654TIP3    H113926   3.182   2.226   1.910 -0.2384  0.1058 -1.4626
 4654TIP3    H213927   3.049   2.267   1.971 -0.6677  1.8559 -3.4426
 4655TIP3   OH213928   2.199   6.381   5.407 -0.2037 -0.0558 -0.0002
 4655TIP3    H113929   2.183   6.315   5.340  2.3004 -1.5994  0.7869
 4655TIP3    H213930   2.171   6.340   5.489  0.3433  0.3017  0.3739
 4656TIP3   OH213931   2.779   1.644   1.240  0.0395 -0.2037  0.4899
 4656TIP3    H113932   2.817   1.608   1.160  1.9717  0.1495  1.1894
 4656TIP3    H213933   2.735   1.570   1.281 -1.3173 -0.3042 -1.0455
 4657TIP3   OH213934   0.695   2.197   3.750 -0.3804  0.3826  0.2509
 4657TIP3    H113935   0.628   2.203   3.682 -0.6164 -0.5958  0.3784
 4657TIP3    H213936   0.778   2.208   3.704 -0.4973 -0.9034 -0.3284
 4658TIP3   OH213937   5.690   3.981   1.123  0.2699  0.1031  0.5370
 4658TIP3    H113938   5.762   3.920   1.106  0.0206 -0.3188  0.9650
 4658TIP3    H213939   5.710   4.018   1.209 -0.1937 -0.2819  0.8211
 4659TIP3   OH213940   5.096   6.374   0.381  0.2646 -0.4879  0.2196
 4659TIP3    H113941   5.064   6.304   0.325 -0.5261  0.0751 -0.0588
 4659TIP3    H213942   5.066   6.454   0.338  0.4482 -0.0090  0.9629
 4660TIP3   OH213943   1.142   5.092   2.978  0.4523  0.5692 -0.4975
 4660TIP3    H113944   1.220   5.080   3.033 -1.4587  0.5238  2.4516
 4660TIP3    H213945   1.112   5.004   2.960  0.5466  0.5994 -0.8017
 4661TIP3   OH213946   5.488   2.819   3.626 -0.3014  0.2150 -0.4958
 4661TIP3    H113947   5.503   2.881   3.554 -1.5763  1.3090  0.1559
 4661TIP3    H213948   5.483   2.873   3.704  0.0482 -0.8732  0.3091
 4662TIP3   OH213949   7.078   5.350   4.791 -0.5105 -0.4820  0.3624
 4662TIP3    H113950   7.170   5.368   4.776 -0.8756  0.4629 -0.8598
 4662TIP3    H213951   7.064   5.263   4.754 -0.1108 -0.6469  0.5934
 4663TIP3   OH213952   5.468   1.998   3.367  0.0060  0.2309 -0.4484
 4663TIP3    H113953   5.517   1.929   3.322 -0.0591 -1.6462  2.1325
 4663TIP3    H213954   5.521   2.077   3.355  0.9435 -0.5936 -2.0855
 4664TIP3   OH213955   0.853   3.774   0.896  0.0109 -0.1094 -0.1078
 4664TIP3    H113956   0.919   3.743   0.958 -0.1705 -1.2905 -0.4764
 4664TIP3    H213957   0.880   3.863   0.874  1.2975 -0.4631 -0.0194
 4665TIP3   OH213958   6.112   6.010   2.580  0.5839  0.2389  0.1131
 4665TIP3    H113959   6.023   5.983   2.558  0.9710 -0.4181 -0.7517
 4665TIP3    H213960   6.158   5.929   2.600  1.0102  0.5626  0.4799
 4666TIP3   OH213961   1.293   4.490   4.880 -0.2720  0.1694  0.0099
 4666TIP3    H113962   1.304   4.548   4.804 -0.1653  0.4462  0.2366
 4666TIP3    H213963   1.366   4.512   4.937  2.1011 -2.8106 -1.5610
 4667TIP3   OH213964   5.350   3.904   2.380  0.0801  0.3290 -0.2011
 4667TIP3    H113965   5.331   3.997   2.376 -0.2056  0.2591 -0.5301
 4667TIP3    H213966   5.375   3.880   2.291 -0.3537 -0.0069 -0.2411
 4668TIP3   OH213967   4.684   3.841   1.053  0.0903 -0.2873  0.0678
 4668TIP3    H113968   4.615   3.890   1.009 -0.1526  0.5128  1.2972
 4668TIP3    H213969   4.764   3.866   1.007  0.1395  2.1713  1.3206
 4669TIP3   OH213970   0.361   5.919   1.822  0.2339 -0.4660 -0.2459
 4669TIP3    H113971   0.344   5.961   1.738  0.8468 -0.4240 -0.3540
 4669TIP3    H213972   0.454   5.933   1.838  0.1029 -0.3662  0.5009
 4670TIP3   OH213973   6.852   4.274   3.679  0.4390 -0.3833 -0.0938
 4670TIP3    H113974   6.788   4.267   3.750 -1.3251  2.6989 -1.2624
 4670TIP3    H213975   6.830   4.202   3.619 -0.4189 -0.7335  0.6236
 4671TIP3   OH213976   2.158   6.259   1.963  0.4322  0.3299  0.3207
 4671TIP3    H113977   2.210   6.334   1.934  0.2737  1.1676  2.0172
 4671TIP3    H213978   2.182   6.188   1.905  2.2713  1.1220  0.0448
 4672TIP3   OH213979   2.952   6.753   1.970  0.1642  0.1084  0.3793
 4672TIP3    H113980   2.915   6.838   1.947  0.0845  0.0465  0.2759
 4672TIP3    H213981   3.034   6.773   2.015  0.9669  0.2066 -1.0663
 4673TIP3   OH213982   1.594   5.190   3.284 -0.5794 -0.5882  0.0084
 4673TIP3    H113983   1.525   5.253   3.306  1.5547  1.7414  0.4945
 4673TIP3    H213984   1.622   5.156   3.369 -2.9124 -3.7873 -0.3120
 4674TIP3   OH213985   6.952   4.158   0.609 -0.2679  0.7073  0.2171
 4674TIP3    H113986   6.996   4.223   0.554 -0.4050 -0.1917 -0.9909
 4674TIP3    H213987   6.874   4.134   0.560  0.5656 -1.5000 -0.1122
 4675TIP3   OH213988   6.201   0.345   5.427 -0.0764 -0.0298  0.4466
 4675TIP3    H113989   6.293   0.322   5.419 -0.3128 -0.9799  0.4363
 4675TIP3    H213990   6.200   0.421   5.486  0.6687 -0.2424  0.7366
 4676TIP3   OH213991   6.128   0.099   3.072  0.1346 -0.2131 -0.7477
 4676TIP3    H113992   6.078   0.156   3.014  1.0166  1.4935  0.0878
 4676TIP3    H213993   6.187   0.051   3.014  1.2637  1.7299 -1.2663
 4677TIP3   OH213994   3.891   1.932   3.244 -0.0861 -0.6100 -0.1727
 4677TIP3    H113995   3.824   1.934   3.312  1.1291 -2.1346  1.1797
 4677TIP3    H213996   3.872   1.852   3.194  0.3635 -0.7566 -0.1234
 4678TIP3   OH213997   7.065   0.997   5.768 -0.1035  0.4400 -0.4159
 4678TIP3    H113998   7.110   1.080   5.787  0.6777  0.1824 -1.1158
 4678TIP3    H213999   7.091   0.940   5.840  0.6267  0.3228 -0.7639
 4679TIP3   OH214000   3.054   2.371   2.387 -0.0841  0.2186  0.4390
 4679TIP3    H114001   3.026   2.340   2.301  1.2219  1.5044 -0.5086
 4679TIP3    H214002   3.070   2.465   2.375  3.1167 -0.0963  1.2115
 4680TIP3   OH214003   6.141   1.524   4.346 -0.8504  0.1018 -0.7586
 4680TIP3    H114004   6.182   1.455   4.295  0.8720  0.9645 -0.6203
 4680TIP3    H214005   6.053   1.492   4.364 -0.4444 -1.5789 -1.5840
 4681TIP3   OH214006   3.346   3.086   1.479 -0.8395  0.1126  0.5781
 4681TIP3    H114007   3.437   3.106   1.501 -0.7845 -0.2328  0.6645
 4681TIP3    H214008   3.298   3.164   1.505 -0.3972  0.8455 -0.6667
 4682TIP3   OH214009   3.213   6.088   4.109 -0.1306 -0.6493 -0.1537
 4682TIP3    H114010   3.287   6.065   4.165  0.2040  2.3552  0.8356
 4682TIP3    H214011   3.250   6.096   4.021  0.6769  0.3940  0.2589
 4683TIP3   OH214012   2.943   5.230   2.158 -0.2657  0.5143  0.0805
 4683TIP3    H114013   2.988   5.210   2.240  0.4745 -0.4816 -0.5415
 4683TIP3    H214014   3.012   5.264   2.101 -0.5046 -0.0756 -0.5643
 4684TIP3   OH214015   0.312   3.576   4.837 -0.3864 -0.4541 -0.4876
 4684TIP3    H114016   0.320   3.610   4.748 -0.4037 -0.1505 -0.3747
 4684TIP3    H214017   0.334   3.651   4.893 -2.1921 -0.1026 -0.2011
 4685TIP3   OH214018   5.730   0.680   3.281  0.0697 -0.5744 -0.2161
 4685TIP3    H114019   5.703   0.592   3.256 -0.1053 -0.5547 -0.0993
 4685TIP3    H214020   5.730   0.679   3.377  1.2199 -0.7975 -0.2080
 4686TIP3   OH214021   2.002   2.628   2.543  0.6624  0.6433 -0.1203
 4686TIP3    H114022   2.011   2.605   2.450  0.6316 -0.8879  0.2373
 4686TIP3    H214023   2.061   2.569   2.589 -0.2375  0.5452  0.9505
 4687TIP3   OH214024   2.332   6.715   2.173  0.0197 -0.0971 -0.3893
 4687TIP3    H114025   2.401   6.661   2.134 -0.9527 -0.3227 -1.8738
 4687TIP3    H214026   2.252   6.689   2.127 -1.0653  0.1927  1.2617
 4688TIP3   OH214027   4.436   0.972   5.250  1.1127 -0.0580 -0.0209
 4688TIP3    H114028   4.434   1.068   5.252  1.7339 -0.0500  0.3847
 4688TIP3    H214029   4.460   0.950   5.160  1.5909  0.1829  0.0448
 4689TIP3   OH214030   5.699   5.406   0.423 -0.6725 -0.5008  0.3319
 4689TIP3    H114031   5.707   5.329   0.368 -0.4922  0.1521 -0.5807
 4689TIP3    H214032   5.789   5.430   0.444 -0.5123  1.3127 -2.0667
 4690TIP3   OH214033   6.628   3.881   0.591 -0.1281 -0.1217  0.2169
 4690TIP3    H114034   6.566   3.944   0.553 -0.5384 -1.1008 -0.8192
 4690TIP3    H214035   6.698   3.875   0.526  0.2360 -0.2495  0.6185
 4691TIP3   OH214036   5.830   4.907   1.413 -0.1083 -0.1165  0.3149
 4691TIP3    H114037   5.756   4.967   1.404  0.2112  0.4533  1.2735
 4691TIP3    H214038   5.792   4.827   1.450 -0.2665  0.1388  0.7120
 4692TIP3   OH214039   6.163   0.326   0.606 -0.0524  0.2330  0.2951
 4692TIP3    H114040   6.106   0.371   0.544  1.8449  0.2189 -1.5820
 4692TIP3    H214041   6.147   0.370   0.689 -1.2252  1.6277 -0.6081
 4693TIP3   OH214042   5.323   1.734   5.880 -0.0055  0.4067  0.6964
 4693TIP3    H114043   5.405   1.689   5.901  0.0287 -0.9468 -1.9181
 4693TIP3    H214044   5.261   1.664   5.860 -0.4689  1.3954 -1.7432
 4694TIP3   OH214045   6.797   3.247   0.473  0.2528  0.6002 -0.2287
 4694TIP3    H114046   6.868   3.249   0.537 -0.2270 -0.9982  0.4178
 4694TIP3    H214047   6.717   3.253   0.526 -0.1682 -1.1867 -0.5683
 4695TIP3   OH214048   0.375   2.460   5.638  0.5076 -0.6283 -0.1954
 4695TIP3    H114049   0.436   2.465   5.564  0.2250  2.0659 -0.3643
 4695TIP3    H214050   0.421   2.409   5.704  2.9140  1.0849 -0.4067
 4696TIP3   OH214051   0.999   4.678   4.199  0.0720 -0.0929  0.0677
 4696TIP3    H114052   1.017   4.702   4.108 -0.1248  0.4589  0.1731
 4696TIP3    H214053   0.970   4.587   4.194 -0.6175  0.1448 -0.4978
 4697TIP3   OH214054   2.455   5.606   4.906 -0.1268 -0.1351  0.5594
 4697TIP3    H114055   2.476   5.693   4.870  0.5035  0.0854  1.4228
 4697TIP3    H214056   2.532   5.553   4.885 -0.6123 -0.5641 -0.1759
 4698TIP3   OH214057   3.709   1.858   2.578  0.3301  0.2929  0.3535
 4698TIP3    H114058   3.701   1.940   2.530 -0.9076 -0.3634 -0.6426
 4698TIP3    H214059   3.633   1.807   2.550  1.5144 -1.5230  0.2793
 4699TIP3   OH214060   2.656   3.577   4.315  0.4932 -0.1036  0.1062
 4699TIP3    H114061   2.583   3.518   4.330 -0.1006  0.6531  0.2351
 4699TIP3    H214062   2.616   3.658   4.283  1.1934  0.6202  1.0158
 4700TIP3   OH214063   1.179   6.250   5.505  0.4215 -0.4218  0.3776
 4700TIP3    H114064   1.132   6.240   5.422  0.5147 -2.5302  0.5351
 4700TIP3    H214065   1.128   6.315   5.554 -1.0015 -0.9457 -0.3693
 4701TIP3   OH214066   3.634   1.837   1.208  0.3910  0.6175  0.8209
 4701TIP3    H114067   3.668   1.862   1.294 -1.4639  2.7328  1.0327
 4701TIP3    H214068   3.623   1.920   1.162 -0.1653 -0.3565 -0.8882
 4702TIP3   OH214069   2.287   1.953   4.184 -0.4073  0.0757  0.3478
 4702TIP3    H114070   2.284   1.873   4.131 -0.5409  0.0141  0.4485
 4702TIP3    H214071   2.361   2.002   4.147  0.4405 -0.6276  1.0543
 4703TIP3   OH214072   3.975   2.266   4.253 -0.0726 -0.1846 -1.1209
 4703TIP3    H114073   4.056   2.283   4.205 -0.4572 -1.6575 -2.3584
 4703TIP3    H214074   3.997   2.195   4.313 -0.4702 -0.7292 -1.6025
 4704TIP3   OH214075   6.867   1.674   3.838  0.6705 -0.1622 -0.1631
 4704TIP3    H114076   6.878   1.747   3.899  0.8066  2.0308 -2.6155
 4704TIP3    H214077   6.892   1.710   3.753 -1.4183 -2.4384 -1.8940
 4705TIP3   OH214078   5.347   6.161   1.367  0.2134  0.2366 -0.1674
 4705TIP3    H114079   5.408   6.162   1.294  1.3377  1.0159  0.7500
 4705TIP3    H214080   5.402   6.147   1.444 -0.9799 -0.9189  0.5213
 4706TIP3   OH214081   2.232   1.112   5.781  0.0123  0.1754  0.7976
 4706TIP3    H114082   2.234   1.136   5.688 -1.8963  0.5275  0.8064
 4706TIP3    H214083   2.220   1.017   5.780 -0.1417  0.1963  0.6865
 4707TIP3   OH214084   2.180   1.991   1.538  0.5739  0.2031 -0.4796
 4707TIP3    H114085   2.198   1.995   1.444 -1.4292  0.9156 -0.8920
 4707TIP3    H214086   2.184   2.081   1.568 -0.6777  0.2221 -0.3112
 4708TIP3   OH214087   1.072   4.402   2.642 -0.1692 -0.6589 -0.5415
 4708TIP3    H114088   1.049   4.372   2.554 -1.0270 -2.2330  0.1937
 4708TIP3    H214089   1.159   4.366   2.658  0.3267  0.2839 -1.0174
 4709TIP3   OH214090   5.233   5.493   5.335 -0.0284 -0.2764 -0.0192
 4709TIP3    H114091   5.301   5.445   5.288 -0.8412 -1.7194  0.2035
 4709TIP3    H214092   5.156   5.436   5.330 -1.1027  1.1118  0.1010
 4710TIP3   OH214093   2.541   3.121   2.539  0.3568 -0.0169 -0.1641
 4710TIP3    H114094   2.471   3.163   2.589  1.3672  0.7531  0.6467
 4710TIP3    H214095   2.499   3.046   2.497 -1.0503  0.6894 -0.0739
 4711TIP3   OH214096   4.513   5.564   1.044  0.3367  0.2006  0.4738
 4711TIP3    H114097   4.460   5.565   1.123  0.6177 -0.2206  0.6650
 4711TIP3    H214098   4.450   5.550   0.973  0.2271 -0.6335  0.7271
 4712TIP3   OH214099   3.802   4.337   1.686  0.1767 -0.1047  0.4130
 4712TIP3    H114100   3.863   4.398   1.645 -0.3919  1.2778  1.5328
 4712TIP3    H214101   3.813   4.352   1.780 -1.7964  0.1428  0.6501
 4713TIP3   OH214102   0.182   4.533   1.953 -0.0644 -0.0500  0.0296
 4713TIP3    H114103   0.098   4.562   1.988 -1.1074 -1.2806 -1.3190
 4713TIP3    H214104   0.159   4.461   1.894  1.9407 -0.3525 -0.4325
 4714TIP3   OH214105   6.012   4.032   5.763 -0.3570  0.1956  0.1331
 4714TIP3    H114106   6.076   4.085   5.716  0.3424  0.3765  1.2700
 4714TIP3    H214107   6.027   3.943   5.730  0.0159  0.3382 -0.0985
 4715TIP3   OH214108   5.175   5.260   2.628 -0.5946  0.5177  0.5243
 4715TIP3    H114109   5.255   5.233   2.671 -0.3555 -0.1841 -0.3268
 4715TIP3    H214110   5.105   5.237   2.689 -0.3222 -1.1707  0.2352
 4716TIP3   OH214111   4.317   3.469   5.576  0.0064 -0.2634  0.0192
 4716TIP3    H114112   4.253   3.525   5.620  0.2834 -0.6626  0.9530
 4716TIP3    H214113   4.287   3.466   5.485 -1.5697 -0.8125  0.5149
 4717TIP3   OH214114   1.009   0.910   2.063  0.9590 -0.3126 -0.3364
 4717TIP3    H114115   0.977   0.931   2.151 -0.3929  0.1922 -0.9105
 4717TIP3    H214116   0.945   0.848   2.029  1.8591 -1.0446 -0.7214
 4718TIP3   OH214117   5.456   1.079   5.759 -0.0967  0.3818  0.2340
 4718TIP3    H114118   5.508   1.018   5.810  0.7015  1.2909  0.5254
 4718TIP3    H214119   5.403   1.126   5.823 -0.3294  0.3645  0.0600
 4719TIP3   OH214120   6.541   4.036   1.106 -0.7226  0.3966 -0.1231
 4719TIP3    H114121   6.596   4.010   1.032 -1.8312 -0.2626 -0.7346
 4719TIP3    H214122   6.601   4.034   1.181 -0.0243 -0.8413 -0.6799
 4720TIP3   OH214123   6.685   5.476   5.462  0.0575 -0.6928 -0.6208
 4720TIP3    H114124   6.753   5.479   5.395 -0.6864  0.2045 -1.3509
 4720TIP3    H214125   6.619   5.416   5.428  0.5546 -1.7308  0.1830
 4721TIP3   OH214126   7.091   3.770   5.621 -0.0055 -0.2315  0.1329
 4721TIP3    H114127   7.016   3.759   5.679  0.2781  0.1981  0.5882
 4721TIP3    H214128   7.152   3.826   5.670  0.9586 -1.2156  0.1055
 4722TIP3   OH214129   6.366   0.980   3.714 -0.5763 -0.1156 -0.1442
 4722TIP3    H114130   6.442   0.961   3.659  0.8692 -0.2160  1.7829
 4722TIP3    H214131   6.324   0.895   3.727 -1.2785 -0.0092 -1.4952
 4723TIP3   OH214132   0.610   1.207   3.114 -0.5878 -0.3630  0.3543
 4723TIP3    H114133   0.635   1.184   3.024 -0.0423 -1.0458  0.6661
 4723TIP3    H214134   0.693   1.214   3.161 -0.8993 -1.4246  1.1238
 4724TIP3   OH214135   2.542   0.066   3.226 -0.1659  0.3231  0.7894
 4724TIP3    H114136   2.495   0.138   3.268  0.3103  1.1164  0.0066
 4724TIP3    H214137   2.624   0.059   3.275 -0.8254 -0.6996  1.8077
 4725TIP3   OH214138   0.898   5.800   4.277  0.3930  0.1936 -0.0096
 4725TIP3    H114139   0.816   5.751   4.270  0.4527 -0.1061  1.2291
 4725TIP3    H214140   0.877   5.886   4.240  0.3873 -0.8138 -2.5229
 4726TIP3   OH214141   3.418   2.004   0.524  0.1614 -0.4887 -0.5831
 4726TIP3    H114142   3.412   2.062   0.600 -1.8881 -2.3244  0.7931
 4726TIP3    H214143   3.346   2.032   0.467  0.7329 -0.1085 -1.1307
 4727TIP3   OH214144   0.444   2.680   0.129  0.6499 -0.1639  0.4589
 4727TIP3    H114145   0.464   2.587   0.137 -0.1360 -0.4850 -0.9527
 4727TIP3    H214146   0.366   2.683   0.074  1.4661  1.3866 -0.7050
 4728TIP3   OH214147   2.693   1.802   2.309 -0.4124  0.3373 -0.4425
 4728TIP3    H114148   2.735   1.872   2.359 -0.2381 -1.4995  2.2096
 4728TIP3    H214149   2.765   1.743   2.287 -0.6709  0.5636 -1.9781
 4729TIP3   OH214150   5.132   6.209   0.728  0.3330 -0.1347  0.0441
 4729TIP3    H114151   5.123   6.206   0.823 -1.2445 -1.3028 -0.1115
 4729TIP3    H214152   5.141   6.118   0.701  1.4289  0.2233 -0.8998
 4730TIP3   OH214153   7.019   0.561   2.306  0.6523  0.7042 -0.2096
 4730TIP3    H114154   7.013   0.476   2.351 -0.3373  1.3597  0.9495
 4730TIP3    H214155   7.058   0.540   2.221 -0.9588 -1.1593 -0.5724
 4731TIP3   OH214156   0.785   1.515   3.224  0.0034 -0.0474  0.4661
 4731TIP3    H114157   0.838   1.462   3.165 -1.3801 -1.8205  0.7037
 4731TIP3    H214158   0.775   1.599   3.179  2.1959  0.0326  0.0296
 4732TIP3   OH214159   5.871   3.638   1.261 -0.1443  0.0138 -0.6736
 4732TIP3    H114160   5.905   3.615   1.348  0.5502 -1.7650 -1.3603
 4732TIP3    H214161   5.926   3.710   1.232 -0.6796  0.9504  0.5199
 4733TIP3   OH214162   3.241   6.093   5.589 -0.1589  0.7009  0.2647
 4733TIP3    H114163   3.246   6.054   5.502  0.0384  0.5024  0.3635
 4733TIP3    H214164   3.313   6.157   5.591  0.8567 -0.4237  0.8327
 4734TIP3   OH214165   6.081   2.985   3.545  0.1819  0.2607 -0.4079
 4734TIP3    H114166   6.127   2.907   3.577 -0.2173 -0.1759 -0.8931
 4734TIP3    H214167   5.989   2.959   3.543  0.0262  0.8135 -0.3780
 4735TIP3   OH214168   3.355   0.790   2.700  0.1763  0.2696 -0.3828
 4735TIP3    H114169   3.392   0.780   2.787  1.3120 -2.2595 -1.0839
 4735TIP3    H214170   3.428   0.818   2.645 -0.3449  1.0434 -0.7082
 4736TIP3   OH214171   5.612   3.730   0.246 -0.1771 -0.5358  0.0101
 4736TIP3    H114172   5.650   3.789   0.311 -0.8020 -0.8331  0.6552
 4736TIP3    H214173   5.518   3.746   0.251 -0.3283 -1.3829 -0.0114
 4737TIP3   OH214174   7.091   6.305   4.836  0.3894 -0.4413 -0.4092
 4737TIP3    H114175   7.065   6.277   4.748  1.3724  0.3078 -0.9684
 4737TIP3    H214176   7.044   6.388   4.849  0.9093 -0.1108 -0.5973
 4738TIP3   OH214177   2.458   3.633   1.791 -0.5843 -0.2165  0.1477
 4738TIP3    H114178   2.544   3.593   1.783 -1.4677 -2.0107 -0.8924
 4738TIP3    H214179   2.431   3.650   1.700 -1.3080  0.3574  0.4617
 4739TIP3   OH214180   5.067   1.766   1.200 -0.2255 -0.1238 -0.1770
 4739TIP3    H114181   5.024   1.686   1.233  1.1589 -1.9739 -2.5011
 4739TIP3    H214182   4.995   1.820   1.168 -1.1350 -1.0140  0.3049
 4740TIP3   OH214183   1.266   1.863   2.619 -0.0602  0.0420  1.0416
 4740TIP3    H114184   1.183   1.895   2.585  0.4864  0.7534  0.3298
 4740TIP3    H214185   1.243   1.788   2.673 -1.3968  1.5983  2.7425
 4741TIP3   OH214186   7.118   3.935   0.965  0.0104 -1.0957  0.3035
 4741TIP3    H114187   7.203   3.958   0.928  0.7231 -0.6984  2.0454
 4741TIP3    H214188   7.059   4.004   0.936  0.9152  0.0859  1.1470
 4742TIP3   OH214189   5.368   5.906   3.419  0.3895 -0.1823 -0.0006
 4742TIP3    H114190   5.289   5.922   3.471  1.4087  0.4370  1.4185
 4742TIP3    H214191   5.438   5.897   3.484  1.9737  1.9409 -1.2740
 4743TIP3   OH214192   2.344   4.940   5.727 -0.2109  0.5165 -0.1553
 4743TIP3    H114193   2.351   4.863   5.671 -2.1761 -1.6514  2.3381
 4743TIP3    H214194   2.256   4.974   5.712 -0.3417  0.6116  0.7601
 4744TIP3   OH214195   0.265   5.685   1.970  0.3406 -0.3264  0.4852
 4744TIP3    H114196   0.170   5.693   1.980  0.3402  1.0658 -0.3095
 4744TIP3    H214197   0.290   5.759   1.915  1.6835 -1.6519 -0.7817
 4745TIP3   OH214198   2.526   3.188   4.514  0.2912  0.4836  0.0977
 4745TIP3    H114199   2.607   3.210   4.560  0.4072 -0.9076  0.6066
 4745TIP3    H214200   2.520   3.093   4.520 -2.2219  0.6255  1.5945
 4746TIP3   OH214201   5.590   3.394   4.861  0.0556  0.1413 -0.1883
 4746TIP3    H114202   5.586   3.441   4.944 -1.0792 -0.5949  0.2053
 4746TIP3    H214203   5.666   3.337   4.870 -0.3729 -0.3325  0.5825
 4747TIP3   OH214204   0.374   3.888   5.844 -0.1982 -0.1598 -0.1429
 4747TIP3    H114205   0.357   3.794   5.833 -0.6899  0.0283 -1.1158
 4747TIP3    H214206   0.438   3.909   5.777  1.3509 -0.1543  1.2904
 4748TIP3   OH214207   0.440   5.998   0.211  0.4277  0.2598 -0.1136
 4748TIP3    H114208   0.482   5.995   0.125  0.2524 -0.2929 -0.1805
 4748TIP3    H214209   0.510   6.025   0.271  1.1341 -1.5163 -0.0775
 4749TIP3   OH214210   5.649   3.737   4.868 -0.0399  0.3679  0.1497
 4749TIP3    H114211   5.735   3.695   4.870  0.7952  1.9705  1.2843
 4749TIP3    H214212   5.597   3.689   4.932  1.6401  2.3016  3.2492
 4750TIP3   OH214213   0.272   4.427   0.408 -0.3435 -0.7941  0.1086
 4750TIP3    H114214   0.360   4.425   0.370 -1.4617  1.1077 -2.9081
 4750TIP3    H214215   0.281   4.481   0.486  1.0182  0.0808 -0.6216
 4751TIP3   OH214216   1.560   4.140   4.180  0.3300 -0.1100 -0.1454
 4751TIP3    H114217   1.564   4.089   4.100 -0.4519  0.4619 -0.5692
 4751TIP3    H214218   1.567   4.076   4.250 -3.4315 -1.2684 -0.5625
 4752TIP3   OH214219   1.928   3.081   1.725  0.2089  0.3266 -0.2580
 4752TIP3    H114220   1.856   3.121   1.774  1.5963  0.1678  2.0723
 4752TIP3    H214221   1.924   2.988   1.747  1.0205  0.2931 -0.2076
 4753TIP3   OH214222   4.801   3.333   4.145  0.2772 -0.4245 -0.0991
 4753TIP3    H114223   4.827   3.259   4.199  0.1995  0.2360  0.8575
 4753TIP3    H214224   4.739   3.382   4.198  2.2832  1.7974  0.4019
 4754TIP3   OH214225   1.683   1.256   0.211 -0.3872 -0.1986  0.4532
 4754TIP3    H114226   1.622   1.229   0.143  0.0475 -1.0279  0.3747
 4754TIP3    H214227   1.628   1.296   0.278 -0.9575 -0.4435  0.1428
 4755TIP3   OH214228   3.612   5.170   1.263 -0.0818 -0.4754 -0.5558
 4755TIP3    H114229   3.527   5.145   1.228 -0.8590  1.1652  0.0717
 4755TIP3    H214230   3.647   5.232   1.199 -0.9133  1.4890  0.7872
 4756TIP3   OH214231   5.583   6.435   1.007 -0.6126 -0.2632  0.7827
 4756TIP3    H114232   5.647   6.364   1.006 -0.7150 -0.3563  0.5008
 4756TIP3    H214233   5.509   6.400   0.956  0.3494  0.9707 -1.5950
 4757TIP3   OH214234   1.803   1.844   1.620 -0.2038 -0.1874 -0.1753
 4757TIP3    H114235   1.767   1.785   1.553 -0.1792 -0.2680 -0.1177
 4757TIP3    H214236   1.898   1.837   1.610 -0.1755  1.5704 -1.6972
 4758TIP3   OH214237   4.787   0.656   1.303  0.0111 -0.7445  0.5910
 4758TIP3    H114238   4.735   0.698   1.233  0.7743  1.8390  1.4432
 4758TIP3    H214239   4.789   0.722   1.373  2.0693 -1.8987  1.7013
 4759TIP3   OH214240   1.118   3.980   4.050  0.0802 -0.0526  0.5206
 4759TIP3    H114241   1.082   4.063   4.019 -0.9676 -0.3978  0.7428
 4759TIP3    H214242   1.059   3.914   4.014  0.0465 -0.5919  1.5329
 4760TIP3   OH214243   1.011   5.638   4.074 -0.0265  0.5192  0.4089
 4760TIP3    H114244   0.991   5.544   4.067 -0.7810  0.6329  0.8956
 4760TIP3    H214245   0.963   5.667   4.151  1.4063  1.0001  1.1531
 4761TIP3   OH214246   5.692   0.437   3.107  0.5525 -0.3827 -0.1911
 4761TIP3    H114247   5.786   0.456   3.101  1.0776 -2.4866  0.2109
 4761TIP3    H214248   5.688   0.341   3.112 -1.6206 -0.3311 -0.0194
 4762TIP3   OH214249   5.869   3.662   5.651  0.0252 -0.6819  0.2853
 4762TIP3    H114250   5.808   3.603   5.606  0.7946 -0.6461 -0.8353
 4762TIP3    H214251   5.874   3.739   5.595 -2.0090  1.1116  2.3991
 4763TIP3   OH214252   2.506   2.356   2.892 -0.1920 -0.1552  1.2666
 4763TIP3    H114253   2.517   2.446   2.921 -1.6842  0.3329  0.4435
 4763TIP3    H214254   2.440   2.320   2.951 -0.4737 -0.3260  0.8523
 4764TIP3   OH214255   5.624   6.568   2.252 -0.0745 -0.6053  0.5571
 4764TIP3    H114256   5.711   6.586   2.217 -0.8705  1.2166 -0.5945
 4764TIP3    H214257   5.580   6.652   2.252 -2.1701 -1.6364  0.1833
 4765TIP3   OH214258   6.002   3.794   4.582  0.0233  0.0276 -0.3177
 4765TIP3    H114259   5.953   3.758   4.508  0.2224 -1.0907  0.0783
 4765TIP3    H214260   5.936   3.810   4.649 -0.0261  0.1623 -0.3966
 4766TIP3   OH214261   1.380   6.190   1.174  0.1285  0.5748  0.6000
 4766TIP3    H114262   1.448   6.142   1.126 -0.5486  0.1125  0.0848
 4766TIP3    H214263   1.366   6.139   1.254  0.2274  0.5520  0.6030
 4767TIP3   OH214264   5.786   3.475   2.417 -0.5361  0.0562 -0.1795
 4767TIP3    H114265   5.726   3.508   2.484 -0.3370  0.1522 -0.0485
 4767TIP3    H214266   5.744   3.395   2.384 -1.0478  0.4591 -0.5328
 4768TIP3   OH214267   2.759   0.445   1.761  0.4554 -0.6427  0.3227
 4768TIP3    H114268   2.795   0.530   1.735  0.8628 -1.1067 -0.7141
 4768TIP3    H214269   2.692   0.465   1.826 -1.2364  0.7154 -1.6983
 4769TIP3   OH214270   5.705   1.770   2.114  0.1338  0.1470  0.1797
 4769TIP3    H114271   5.657   1.824   2.050  2.1994 -1.3344 -2.8786
 4769TIP3    H214272   5.790   1.812   2.121  0.6114 -0.8367  0.3852
 4770TIP3   OH214273   5.475   4.525   1.356  0.8095  0.0138  0.2712
 4770TIP3    H114274   5.557   4.569   1.333  0.3004  0.7280 -0.2319
 4770TIP3    H214275   5.422   4.529   1.276  0.6427 -1.2970  0.2960
 4771TIP3   OH214276   2.439   3.366   1.649  0.1545  0.1552 -0.0801
 4771TIP3    H114277   2.522   3.339   1.609  0.7400  1.5430  0.1403
 4771TIP3    H214278   2.436   3.319   1.732  0.0405 -0.9579 -0.6898
 4772TIP3   OH214279   4.460   4.234   1.403  0.0888  0.1413  0.4766
 4772TIP3    H114280   4.370   4.227   1.374  0.6853 -0.8826 -1.2549
 4772TIP3    H214281   4.502   4.155   1.371  1.4357  0.2018  1.9512
 4773TIP3   OH214282   3.163   4.863   1.277 -0.3966 -0.0879  0.3216
 4773TIP3    H114283   3.193   4.773   1.273  0.6521  0.2855 -2.0386
 4773TIP3    H214284   3.222   4.906   1.338 -0.6894 -0.8794  1.1924
 4774TIP3   OH214285   0.756   6.327   3.981  0.0805  0.3509 -0.4544
 4774TIP3    H114286   0.758   6.401   4.042  1.8562 -0.4806  0.5554
 4774TIP3    H214287   0.689   6.269   4.017  0.4997  0.2734  0.2097
 4775TIP3   OH214288   2.530   3.206   3.847  0.1387  0.3269  0.4365
 4775TIP3    H114289   2.518   3.232   3.756  1.1503  1.5010  0.6079
 4775TIP3    H214290   2.570   3.119   3.842 -0.9213 -0.1426 -0.2003
 4776TIP3   OH214291   6.655   2.820   0.063  0.3231 -0.1290  0.0400
 4776TIP3    H114292   6.677   2.727   0.061 -0.2822 -0.3456  1.7784
 4776TIP3    H214293   6.597   2.832  -0.012  0.9541 -0.9913 -0.6134
 4777TIP3   OH214294   5.394   4.684   1.048 -0.6868  0.5939 -0.5208
 4777TIP3    H114295   5.327   4.636   1.096 -1.5824  0.7122 -1.6015
 4777TIP3    H214296   5.421   4.754   1.108 -0.8103 -0.0472  0.3003
 4778TIP3   OH214297   6.098   6.214   0.117 -0.0018  0.0023  0.2955
 4778TIP3    H114298   6.007   6.194   0.140  0.1625 -1.1013  0.0356
 4778TIP3    H214299   6.105   6.309   0.126 -1.4951  0.2524 -0.7724
 4779TIP3   OH214300   5.023   2.786   0.521 -0.4627 -0.7081 -0.2247
 4779TIP3    H114301   5.086   2.802   0.591 -2.1559 -0.0668  1.2411
 4779TIP3    H214302   5.027   2.691   0.507 -0.8485 -1.0296  1.5657
 4780TIP3   OH214303   1.260   1.503   5.782 -0.0482  0.5940 -0.4509
 4780TIP3    H114304   1.303   1.538   5.860  0.9638  0.4304 -0.9191
 4780TIP3    H214305   1.225   1.580   5.737 -1.7720  0.5939  0.7835
 4781TIP3   OH214306   3.252   2.309   5.112 -0.0002 -0.0383 -0.1017
 4781TIP3    H114307   3.276   2.334   5.023 -0.6993  0.4881 -0.1574
 4781TIP3    H214308   3.335   2.287   5.154  0.1937 -2.1779 -1.4229
 4782TIP3   OH214309   6.707   5.538   0.108  0.3324 -0.8206  0.2484
 4782TIP3    H114310   6.655   5.485   0.048  0.7688 -0.6718 -0.2730
 4782TIP3    H214311   6.643   5.598   0.148  0.1588 -0.3229 -0.7292
 4783TIP3   OH214312   2.394   2.349   1.028  0.1688 -0.1381  0.8573
 4783TIP3    H114313   2.299   2.346   1.013  0.4047  1.0351 -1.4410
 4783TIP3    H214314   2.424   2.260   1.010 -0.3349 -0.1106 -0.2385
 4784TIP3   OH214315   0.588   3.066   2.787  0.3435 -0.1897  0.0764
 4784TIP3    H114316   0.502   3.036   2.755 -0.2081  0.6620  0.7248
 4784TIP3    H214317   0.588   3.043   2.880  0.8185 -0.1715  0.0835
 4785TIP3   OH214318   6.785   2.563   5.603  0.1693 -0.3181 -0.3079
 4785TIP3    H114319   6.872   2.537   5.571  0.0124  1.2115 -2.2144
 4785TIP3    H214320   6.773   2.652   5.568 -1.8329 -0.1716  0.6177
 4786TIP3   OH214321   4.737   2.422   4.345  0.2438 -0.0126 -1.0092
 4786TIP3    H114322   4.697   2.501   4.308 -2.6243 -1.2362 -0.8501
 4786TIP3    H214323   4.665   2.380   4.393  1.6319 -2.7247 -1.1389
 4787TIP3   OH214324   0.558   2.171   3.497  0.1303  0.6957 -0.4028
 4787TIP3    H114325   0.651   2.165   3.473 -0.2009 -0.7986 -1.4274
 4787TIP3    H214326   0.517   2.213   3.421 -0.4595 -1.3408 -1.2726
 4788TIP3   OH214327   0.315   4.553   0.628 -0.3103  0.2377  0.0990
 4788TIP3    H114328   0.245   4.585   0.685  1.1306  0.0747  2.0698
 4788TIP3    H214329   0.396   4.587   0.667  0.8536 -1.0449 -1.0591
 4789TIP3   OH214330   0.205   1.898   0.592  0.2360 -0.3013 -0.2250
 4789TIP3    H114331   0.119   1.940   0.595 -0.5814 -1.8193 -1.3609
 4789TIP3    H214332   0.240   1.910   0.681 -3.1381 -3.6464  1.8521
 4790TIP3   OH214333   2.536   5.211   4.014 -0.4975 -0.4076  0.5130
 4790TIP3    H114334   2.550   5.117   4.004 -0.2420 -0.4449  1.2209
 4790TIP3    H214335   2.573   5.249   3.935  1.0039 -0.7470  1.0332
 4791TIP3   OH214336   6.659   0.284   4.790  0.4605 -0.6517  0.0529
 4791TIP3    H114337   6.598   0.219   4.825  0.0104  0.4512  1.4226
 4791TIP3    H214338   6.746   0.249   4.809  0.2240 -0.2202  2.0846
 4792TIP3   OH214339   1.228   1.732   5.567  0.4645  0.6823  0.2148
 4792TIP3    H114340   1.288   1.784   5.514  1.1129 -0.0198  0.2391
 4792TIP3    H214341   1.186   1.672   5.505  0.1917  0.7996  0.2839
 4793TIP3   OH214342   1.857   6.217   5.191 -0.4894 -0.2967  0.4680
 4793TIP3    H114343   1.861   6.121   5.190 -0.8179 -0.3128  0.4514
 4793TIP3    H214344   1.800   6.239   5.118  1.0251  0.0037 -0.6680
 4794TIP3   OH214345   2.137   4.224   5.425  0.2128  0.3089  0.6618
 4794TIP3    H114346   2.146   4.148   5.367  0.5709 -0.3440  1.5579
 4794TIP3    H214347   2.050   4.214   5.464  0.8911 -0.5602  2.0282
 4795TIP3   OH214348   6.378   0.104   3.727  0.1538  0.4307 -0.5597
 4795TIP3    H114349   6.286   0.099   3.750 -0.1020 -1.8129 -1.8357
 4795TIP3    H214350   6.382   0.171   3.659 -0.5618  0.3922 -0.6432
 4796TIP3   OH214351   0.156   4.586   1.511  0.0882 -0.0942  0.7643
 4796TIP3    H114352   0.084   4.597   1.573 -2.5930  2.9566 -2.4430
 4796TIP3    H214353   0.205   4.668   1.515 -0.1965  0.2167 -1.0573
 4797TIP3   OH214354   6.431   4.293   0.791  0.4313 -0.3390 -0.1975
 4797TIP3    H114355   6.470   4.380   0.782 -0.8294  0.1820 -0.8821
 4797TIP3    H214356   6.419   4.281   0.885  1.8460 -0.3472 -0.0023
 4798TIP3   OH214357   2.755   0.758   1.876 -0.5075 -0.4258 -0.3040
 4798TIP3    H114358   2.728   0.749   1.968 -3.1590 -1.8770 -1.1253
 4798TIP3    H214359   2.838   0.710   1.871 -0.3915 -0.4680  1.2676
 4799TIP3   OH214360   6.465   0.446   4.166 -0.2748 -0.0315  0.5795
 4799TIP3    H114361   6.483   0.520   4.108  0.3879  0.1385  0.9829
 4799TIP3    H214362   6.472   0.369   4.110 -0.5862  0.1873  0.2369
 4800TIP3   OH214363   2.130   4.733   1.187 -0.2798 -0.1313 -0.4596
 4800TIP3    H114364   2.063   4.777   1.240  0.3873 -0.8494  1.0426
 4800TIP3    H214365   2.081   4.664   1.141 -0.8227  0.2976 -0.5374
 4801TIP3   OH214366   4.459   4.666   5.335 -0.1932 -0.2511  0.3237
 4801TIP3    H114367   4.445   4.578   5.369  0.3924 -0.8022 -0.8082
 4801TIP3    H214368   4.544   4.692   5.370 -0.0950 -0.3772  0.1801
 4802TIP3   OH214369   2.776   5.544   1.611  0.0332  0.3619 -0.3997
 4802TIP3    H114370   2.785   5.629   1.653  1.3507 -0.6704  1.5646
 4802TIP3    H214371   2.696   5.507   1.648  1.1160 -0.4865  1.2132
 4803TIP3   OH214372   3.665   0.765   1.196  0.5746 -0.4549 -0.8397
 4803TIP3    H114373   3.592   0.730   1.144  0.9101  0.5524 -2.0461
 4803TIP3    H214374   3.625   0.785   1.281 -0.4668 -0.3571 -1.3251
 4804TIP3   OH214375   5.342   1.293   3.523 -0.1062  0.2468 -0.4474
 4804TIP3    H114376   5.336   1.199   3.512  1.0002  0.2133 -0.8880
 4804TIP3    H214377   5.251   1.322   3.535 -0.3242 -1.0460  1.4233
 4805TIP3   OH214378   4.707   6.606   4.862  0.0108 -0.0316 -0.1542
 4805TIP3    H114379   4.719   6.576   4.952  1.1154 -0.7448 -0.5134
 4805TIP3    H214380   4.743   6.695   4.861 -0.9621  0.3841  0.3317
 4806TIP3   OH214381   1.719   2.689   1.480  0.4305 -0.7384 -0.3716
 4806TIP3    H114382   1.635   2.693   1.434  0.5180 -1.2539 -0.5739
 4806TIP3    H214383   1.718   2.604   1.524  1.2739 -1.1889 -1.1926
 4807TIP3   OH214384   7.221   6.421   1.741 -0.3605 -0.0120  0.5550
 4807TIP3    H114385   7.262   6.504   1.714 -0.1513 -0.0019  0.8960
 4807TIP3    H214386   7.138   6.447   1.780 -0.2889  0.0410  0.6737
 4808TIP3   OH214387   3.869   4.226   3.083  0.5342  0.4944  0.0936
 4808TIP3    H114388   3.840   4.303   3.133 -0.3833  0.1132  0.1685
 4808TIP3    H214389   3.788   4.179   3.063  0.7646  1.0691 -2.5240
 4809TIP3   OH214390   6.666   6.333   5.106 -0.2926  0.2740  0.3534
 4809TIP3    H114391   6.698   6.346   5.196 -0.6594 -1.3709  0.7664
 4809TIP3    H214392   6.644   6.421   5.075  3.9876  1.5289  0.2376
 4810TIP3   OH214393   5.962   0.203   4.999  0.1679  0.3356 -0.3398
 4810TIP3    H114394   5.946   0.294   4.974  1.4580  0.3833 -1.1045
 4810TIP3    H214395   5.905   0.152   4.941 -0.5587  0.6467  0.0909
 4811TIP3   OH214396   5.584   1.899   4.771  0.0554 -0.4110  0.6032
 4811TIP3    H114397   5.598   1.805   4.761 -1.1747 -0.5487 -0.0232
 4811TIP3    H214398   5.673   1.937   4.770  0.5162 -1.4408 -0.4981
 4812TIP3   OH214399   5.794   3.332   2.772 -0.0497 -0.1335  0.1270
 4812TIP3    H114400   5.710   3.377   2.784  0.2072  0.7918 -1.2732
 4812TIP3    H214401   5.860   3.394   2.802  0.2470  0.0118 -0.7928
 4813TIP3   OH214402   4.515   2.756   3.146 -0.5301 -0.3407  0.3860
 4813TIP3    H114403   4.576   2.821   3.112 -0.7624 -0.7129 -0.7569
 4813TIP3    H214404   4.466   2.803   3.215  1.7942 -0.3615  2.1648
 4814TIP3   OH214405   6.450   1.001   0.757 -0.3346  0.2093  0.0594
 4814TIP3    H114406   6.521   1.037   0.704  0.3413 -1.1154  0.0052
 4814TIP3    H214407   6.382   0.977   0.694  0.4585 -1.3465 -0.2644
 4815TIP3   OH214408   1.054   0.082   2.573 -0.3273 -0.2092 -0.8107
 4815TIP3    H114409   1.119   0.142   2.610 -1.3357 -0.0686  0.8091
 4815TIP3    H214410   0.970   0.118   2.600 -0.9893 -1.7789 -0.6920
 4816TIP3   OH214411   1.312   4.867   0.253 -0.5597  0.0234  0.2202
 4816TIP3    H114412   1.249   4.938   0.239  0.3211  0.8652  0.4456
 4816TIP3    H214413   1.387   4.890   0.199 -0.7488 -1.4166 -0.7176
 4817TIP3   OH214414   7.006   3.200   2.462  0.0598 -0.2808  0.5621
 4817TIP3    H114415   7.016   3.127   2.523  0.4918 -1.0010 -0.3480
 4817TIP3    H214416   6.918   3.189   2.425 -0.3597  0.3839  1.3157
 4818TIP3   OH214417   4.534   0.431   3.832  0.0409  0.2579  0.8973
 4818TIP3    H114418   4.534   0.524   3.814  0.3215  0.3130  1.1549
 4818TIP3    H214419   4.483   0.422   3.913 -0.4183  0.1291  0.5902
 4819TIP3   OH214420   2.860   1.097   5.572  0.0976 -0.1769 -0.1603
 4819TIP3    H114421   2.933   1.034   5.571 -0.6112 -1.1905  2.7022
 4819TIP3    H214422   2.782   1.042   5.582 -0.8279  1.0341 -0.5850
 4820TIP3   OH214423   6.896   5.444   0.273  0.1962  0.1705 -0.2388
 4820TIP3    H114424   6.897   5.515   0.337  0.2125 -0.5028  0.5207
 4820TIP3    H214425   6.821   5.464   0.217  0.7377  1.2609 -0.5878
 4821TIP3   OH214426   4.526   5.357   4.520 -0.2240  0.3661  0.4415
 4821TIP3    H114427   4.458   5.423   4.532 -0.0862  0.7473 -0.7209
 4821TIP3    H214428   4.608   5.406   4.524  0.0424 -0.1985  2.5414
 4822TIP3   OH214429   6.267   3.386   0.297  0.2979  0.4713  0.4255
 4822TIP3    H114430   6.234   3.384   0.207  0.7394  0.6954  0.2549
 4822TIP3    H214431   6.355   3.422   0.289  0.8440 -0.7403  0.7931
 4823TIP3   OH214432   2.245   0.472   3.505 -0.5562 -0.1125  0.3169
 4823TIP3    H114433   2.232   0.553   3.555 -1.0218 -0.3742  0.6230
 4823TIP3    H214434   2.177   0.475   3.437 -1.6330 -1.0075  1.3154
 4824TIP3   OH214435   3.100   2.057   4.746  0.1388  0.2095 -0.0926
 4824TIP3    H114436   3.032   2.098   4.693 -1.0776  0.0162  1.2444
 4824TIP3    H214437   3.165   2.126   4.760 -0.4184  0.7892 -0.3391
 4825TIP3   OH214438   0.096   1.178   2.075  0.1610 -0.1954  0.2130
 4825TIP3    H114439   0.005   1.174   2.048  0.4229  2.0605 -1.2491
 4825TIP3    H214440   0.103   1.262   2.122  1.4092 -0.4905  0.5807
 4826TIP3   OH214441   4.701   6.201   1.084 -0.1088  0.4378  0.0622
 4826TIP3    H114442   4.629   6.248   1.125 -0.8549  0.7896 -1.5626
 4826TIP3    H214443   4.731   6.259   1.014  1.7215  0.2661  0.6390
 4827TIP3   OH214444   6.663   4.761   2.877 -1.3300 -0.3374 -0.1293
 4827TIP3    H114445   6.656   4.689   2.814  1.5326 -0.2929 -0.5962
 4827TIP3    H214446   6.693   4.836   2.825 -0.3582  0.0995  1.0287
 4828TIP3   OH214447   3.370   0.086   0.920  0.2286 -0.3731 -0.4286
 4828TIP3    H114448   3.326   0.022   0.865  1.4545  0.2549 -2.2379
 4828TIP3    H214449   3.311   0.099   0.994 -1.0477 -1.9436 -1.1053
 4829TIP3   OH214450   5.897   5.987   5.544 -0.7090  0.3366  0.5725
 4829TIP3    H114451   5.836   5.998   5.617 -0.7902  1.1554  0.3929
 4829TIP3    H214452   5.979   5.960   5.585 -0.7714  0.7305  0.9646
 4830TIP3   OH214453   4.361   2.120   1.651 -0.0214 -0.3556  0.1749
 4830TIP3    H114454   4.372   2.044   1.708 -2.1818  0.0826  1.2940
 4830TIP3    H214455   4.416   2.102   1.575  0.2076 -2.6133  0.8167
 4831TIP3   OH214456   6.357   6.087   2.812  0.2819 -0.2336 -0.4962
 4831TIP3    H114457   6.356   6.074   2.718 -0.6572  1.0871 -0.7030
 4831TIP3    H214458   6.271   6.125   2.832 -0.0485 -1.6568  1.0828
 4832TIP3   OH214459   2.992   6.795   5.757 -0.6102 -0.1466 -0.0863
 4832TIP3    H114460   2.944   6.828   5.681  1.2794  0.2785 -1.1715
 4832TIP3    H214461   3.057   6.736   5.720  0.0421 -0.3022  1.2638
 4833TIP3   OH214462   0.931   5.364   1.530  0.3717  0.0591 -0.0236
 4833TIP3    H114463   0.897   5.403   1.610 -1.2590 -1.1930 -0.0591
 4833TIP3    H214464   0.987   5.292   1.560 -0.6521 -0.7462  0.0452
 4834TIP3   OH214465   4.023   3.407   0.674  0.0284  0.1873  0.4520
 4834TIP3    H114466   4.041   3.445   0.760  0.8969 -3.4871  2.0605
 4834TIP3    H214467   4.106   3.412   0.628 -0.0007  0.6412  0.4402
 4835TIP3   OH214468   5.623   0.727   0.507  0.5710  0.1414  0.3185
 4835TIP3    H114469   5.646   0.774   0.427 -2.2957  1.4878  0.1666
 4835TIP3    H214470   5.696   0.667   0.522  1.7649  0.7239 -2.6141
 4836TIP3   OH214471   7.169   5.496   2.022  0.1927  0.8061  0.7486
 4836TIP3    H114472   7.214   5.413   2.007  0.8941  1.6482 -2.7243
 4836TIP3    H214473   7.234   5.552   2.064  1.1274  0.8014 -0.6320
 4837TIP3   OH214474   2.282   2.939   4.927 -0.3602 -0.0496  0.3076
 4837TIP3    H114475   2.213   2.879   4.899 -1.4817  1.1755  0.3873
 4837TIP3    H214476   2.239   3.024   4.937  1.4467  1.1419 -1.1943
 4838TIP3   OH214477   2.758   1.268   5.312  0.1227  0.4717 -0.1264
 4838TIP3    H114478   2.833   1.311   5.354  0.1570 -0.5677  0.9050
 4838TIP3    H214479   2.781   1.176   5.309 -1.5725 -0.0640  1.3036
 4839TIP3   OH214480   6.529   2.060   5.624 -0.1690  0.0593 -0.2278
 4839TIP3    H114481   6.487   2.012   5.696  0.1497 -1.3424 -0.9545
 4839TIP3    H214482   6.504   2.152   5.640  0.4202 -0.0992  2.0392
 4840TIP3   OH214483   2.507   2.610   2.983 -0.2605 -0.1082  0.3376
 4840TIP3    H114484   2.513   2.701   2.953 -1.4128 -0.1622 -0.1298
 4840TIP3    H214485   2.537   2.613   3.073 -0.0057  0.6946  0.2362
 4841TIP3   OH214486   3.395   2.314   0.019  0.1247 -1.0471  0.7814
 4841TIP3    H114487   3.409   2.244   0.084 -1.8222 -1.3805  0.8856
 4841TIP3    H214488   3.339   2.274  -0.047 -0.3349  0.1803  0.4148
 4842TIP3   OH214489   4.491   1.245   3.879  0.2976 -0.1898 -0.5878
 4842TIP3    H114490   4.514   1.326   3.833 -0.6853  0.1232 -0.5451
 4842TIP3    H214491   4.429   1.273   3.947  0.3915 -0.8977 -0.2028
 4843TIP3   OH214492   1.665   0.808   0.549 -0.2544 -0.1552 -0.2430
 4843TIP3    H114493   1.595   0.868   0.576  0.6680  0.9971 -0.3035
 4843TIP3    H214494   1.682   0.754   0.626  0.6799  1.4549  0.7567
 4844TIP3   OH214495   2.489   4.166   3.887 -0.0230  0.0647  0.3338
 4844TIP3    H114496   2.455   4.079   3.904  0.1588  0.2437  1.7132
 4844TIP3    H214497   2.545   4.156   3.810 -0.4895 -0.8959  0.1111
 4845TIP3   OH214498   0.829   1.259   2.138 -0.1712 -0.1454  0.1109
 4845TIP3    H114499   0.870   1.323   2.079  2.7054 -1.8887  0.0091
 4845TIP3    H214500   0.789   1.194   2.081  1.9632 -1.4290 -0.0480
 4846TIP3   OH214501   5.949   6.626   5.476  0.7804  0.6300 -0.3171
 4846TIP3    H114502   5.970   6.616   5.384 -2.2444 -0.8220 -0.9758
 4846TIP3    H214503   5.877   6.689   5.478  1.1970  1.1146  1.1342
 4847TIP3   OH214504   0.721   2.809   2.230 -0.6174  0.3031 -0.5306
 4847TIP3    H114505   0.673   2.854   2.299  0.9002 -1.2739  1.6858
 4847TIP3    H214506   0.813   2.832   2.245 -0.1836 -0.5840 -1.6217
 4848TIP3   OH214507   7.166   5.014   2.045 -0.5856 -0.1832  0.0510
 4848TIP3    H114508   7.087   4.961   2.061 -0.0515 -1.2890 -0.8029
 4848TIP3    H214509   7.228   4.952   2.006 -0.3966  1.3542 -2.2503
 4849TIP3   OH214510   1.764   3.121   2.792 -0.4936 -0.2189 -0.2353
 4849TIP3    H114511   1.765   3.210   2.756  0.3403  0.0037  0.3042
 4849TIP3    H214512   1.697   3.124   2.860  0.3127  0.3512  0.5743
 4850TIP3   OH214513   4.249   6.333   5.277 -0.2315 -0.2902  0.9908
 4850TIP3    H114514   4.272   6.327   5.184  2.2249 -1.9834  1.6347
 4850TIP3    H214515   4.198   6.254   5.294 -0.9954  0.1994  1.0470
 4851TIP3   OH214516   4.206   5.046   2.915 -0.1074  0.5826  0.6796
 4851TIP3    H114517   4.254   5.128   2.917  0.7117  0.3219 -2.7742
 4851TIP3    H214518   4.270   4.979   2.937 -0.3333  0.6563  1.6341
 4852TIP3   OH214519   0.239   0.202   0.935  0.4560 -0.1377 -0.2473
 4852TIP3    H114520   0.269   0.155   0.857 -1.3900  0.0062 -1.0772
 4852TIP3    H214521   0.232   0.134   1.003 -2.4641 -1.2345 -1.5066
 4853TIP3   OH214522   3.552   4.378   3.021 -0.0561 -0.6756 -0.1032
 4853TIP3    H114523   3.518   4.406   3.107  1.5847 -2.1137  1.0716
 4853TIP3    H214524   3.594   4.457   2.986 -0.4812 -0.1409  0.5439
 4854TIP3   OH214525   4.936   6.706   2.668 -0.5110 -0.0353  0.7582
 4854TIP3    H114526   4.920   6.612   2.678 -0.4195 -0.2556 -0.8582
 4854TIP3    H214527   4.990   6.713   2.589  0.2521  1.3199  1.3568
 4855TIP3   OH214528   1.455   6.463   0.639  0.4952 -0.0012  0.0057
 4855TIP3    H114529   1.361   6.443   0.648  0.2764  1.4922  1.2599
 4855TIP3    H214530   1.496   6.377   0.632 -0.9214 -0.7024 -0.1812
 4856TIP3   OH214531   2.668   5.344   5.806  0.4035 -0.0229  0.5188
 4856TIP3    H114532   2.690   5.287   5.880 -1.8783 -0.6105  0.8059
 4856TIP3    H214533   2.573   5.341   5.800  0.2842  2.6559 -0.3748
 4857TIP3   OH214534   5.713   0.514   2.774 -0.0696  0.2843 -0.4933
 4857TIP3    H114535   5.771   0.573   2.726 -0.0532  1.2611  0.6902
 4857TIP3    H214536   5.772   0.455   2.821 -0.0772  0.0228 -0.8032
 4858TIP3   OH214537   1.435   4.633   2.930  0.5905 -0.0255 -1.1942
 4858TIP3    H114538   1.443   4.598   3.019 -1.3184 -0.1356 -1.0348
 4858TIP3    H214539   1.525   4.651   2.904  1.4324 -2.5354 -0.2737
 4859TIP3   OH214540   3.845   6.546   3.186 -0.2291  0.0642  0.1410
 4859TIP3    H114541   3.860   6.626   3.236 -1.2476 -0.0286  0.6232
 4859TIP3    H214542   3.810   6.577   3.102  0.2434  0.1621 -0.0215
 4860TIP3   OH214543   4.898   1.362   4.556 -0.3795  0.0710 -0.3589
 4860TIP3    H114544   4.828   1.297   4.557  1.2228 -1.7266 -0.5191
 4860TIP3    H214545   4.874   1.423   4.627 -0.5799 -2.2301  1.7014
 4861TIP3   OH214546   1.031   2.018   2.867  1.0182 -0.3143  0.0210
 4861TIP3    H114547   1.049   1.996   2.775  0.4548 -0.8512  0.0344
 4861TIP3    H214548   0.975   2.096   2.862 -0.5574 -1.4070 -0.1665
 4862TIP3   OH214549   7.226   0.882   1.050 -0.2822  0.2293 -0.0190
 4862TIP3    H114550   7.150   0.922   1.006 -0.6716  0.2347  0.6506
 4862TIP3    H214551   7.207   0.891   1.143  0.8451  0.8034  0.1659
 4863TIP3   OH214552   5.411   2.395   1.007 -0.0993 -0.0089  0.0068
 4863TIP3    H114553   5.480   2.442   1.054  0.0772  3.1871 -2.9810
 4863TIP3    H214554   5.330   2.438   1.036 -0.4561 -1.0656  0.6102
 4864TIP3   OH214555   3.337   4.494   0.867  0.2037  0.2726  0.2827
 4864TIP3    H114556   3.322   4.452   0.952  1.2680  0.1008  0.4008
 4864TIP3    H214557   3.394   4.568   0.887 -0.5387  0.9628 -0.1185
 4865TIP3   OH214558   3.900   5.181   3.020  0.3216  0.5238  0.0530
 4865TIP3    H114559   3.844   5.139   2.955 -0.0788  0.2374  0.5691
 4865TIP3    H214560   3.988   5.178   2.982  0.2087 -0.2968 -0.1583
 4866TIP3   OH214561   3.039   1.450   4.727 -0.0619  0.0061  0.2392
 4866TIP3    H114562   3.119   1.482   4.685 -1.2855  2.1409 -0.6291
 4866TIP3    H214563   3.026   1.509   4.802 -2.1148  1.3878 -1.1030
 4867TIP3   OH214564   6.823   2.573   1.307  0.7583 -0.1974 -0.0990
 4867TIP3    H114565   6.829   2.610   1.219  0.4433  0.4925  0.1662
 4867TIP3    H214566   6.731   2.581   1.330  0.7385 -0.8720  0.0910
 4868TIP3   OH214567   2.872   4.280   5.600  0.1186  0.1228  0.1917
 4868TIP3    H114568   2.839   4.218   5.535 -0.6099 -1.9809  2.3835
 4868TIP3    H214569   2.960   4.250   5.620  0.4133  0.8687  0.0311
 4869TIP3   OH214570   5.687   2.960   5.326 -0.5708 -0.5246  0.3127
 4869TIP3    H114571   5.675   3.055   5.326  0.3319 -0.4066  0.6129
 4869TIP3    H214572   5.779   2.947   5.349 -0.3906 -1.4288 -0.8241
 4870TIP3   OH214573   2.987   0.965   0.613 -0.4323 -0.4927 -0.5592
 4870TIP3    H114574   3.018   0.878   0.588  1.4485  0.2183 -0.8992
 4870TIP3    H214575   2.963   0.957   0.705 -3.1037 -2.0326 -1.2961
 4871TIP3   OH214576   3.501   2.969   0.649 -0.2839  0.7393 -0.1776
 4871TIP3    H114577   3.581   2.919   0.659 -1.3773 -1.5103 -1.8088
 4871TIP3    H214578   3.519   3.029   0.577 -1.0784 -2.3559 -3.1985
 4872TIP3   OH214579   0.287   1.089   3.937  0.5471 -0.1928  0.4110
 4872TIP3    H114580   0.367   1.068   3.888  1.0148  0.5900  0.8212
 4872TIP3    H214581   0.265   1.008   3.982 -0.4052 -1.2106 -1.7819
 4873TIP3   OH214582   5.245   2.203   4.165  0.2625 -0.8760 -0.5010
 4873TIP3    H114583   5.247   2.174   4.073 -1.2765 -0.2808 -0.7498
 4873TIP3    H214584   5.249   2.122   4.215  0.8063 -1.2301 -1.1039
 4874TIP3   OH214585   0.514   6.356   2.715 -0.8951  0.3141  0.2822
 4874TIP3    H114586   0.433   6.390   2.677  0.0269  1.7346 -0.4955
 4874TIP3    H214587   0.550   6.299   2.648 -0.2814  1.2408 -0.1988
 4875TIP3   OH214588   7.018   5.112   3.543 -0.2752  0.3258  0.4567
 4875TIP3    H114589   7.011   5.021   3.515 -0.4354  0.5290 -0.1845
 4875TIP3    H214590   6.937   5.153   3.513  0.3756  0.9888 -0.4520
 4876TIP3   OH214591   2.371   0.141   5.815  0.7305  0.0411  0.2845
 4876TIP3    H114592   2.378   0.158   5.722  2.6659  0.8798  0.5292
 4876TIP3    H214593   2.277   0.141   5.833  0.3708  1.4819 -1.3647
 4877TIP3   OH214594   1.191   2.634   3.332  0.0126  0.3808 -0.0620
 4877TIP3    H114595   1.280   2.637   3.295  0.9977  0.1094  2.1100
 4877TIP3    H214596   1.205   2.628   3.426 -2.3530  1.0767  0.3977
 4878TIP3   OH214597   5.098   5.087   0.254  0.0529  0.3060  0.0725
 4878TIP3    H114598   5.122   4.996   0.234  1.4631  0.5166  0.6715
 4878TIP3    H214599   5.156   5.111   0.327  1.2424  2.3809 -1.4513
 4879TIP3   OH214600   2.850   2.847   5.403  0.2719 -0.1351 -0.7094
 4879TIP3    H114601   2.859   2.807   5.317 -0.9573  0.7049 -1.2473
 4879TIP3    H214602   2.763   2.886   5.403  1.2663  2.2853 -0.1224
 4880TIP3   OH214603   2.060   6.603   5.331  0.1780 -0.1325 -0.4170
 4880TIP3    H114604   2.045   6.637   5.242  1.1271  0.1102 -0.4930
 4880TIP3    H214605   2.115   6.526   5.317  1.8199  0.9162  0.0720
 4881TIP3   OH214606   0.440   2.718   2.291  0.1482 -0.1266 -0.1351
 4881TIP3    H114607   0.387   2.673   2.226  0.6674 -0.4818 -0.3147
 4881TIP3    H214608   0.527   2.725   2.250 -0.0682  1.5993 -0.3897
 4882TIP3   OH214609   6.213   1.826   1.365 -0.3025 -0.0740 -0.1362
 4882TIP3    H114610   6.198   1.752   1.424  0.0830 -0.0404  0.0049
 4882TIP3    H214611   6.248   1.786   1.285  0.4113  0.0029  0.1325
 4883TIP3   OH214612   5.860   1.329   1.879  0.1253  0.2575  0.2726
 4883TIP3    H114613   5.789   1.264   1.875  0.0470  0.3715 -0.3494
 4883TIP3    H214614   5.826   1.398   1.936 -0.2844  0.3296 -0.0554
 4884TIP3   OH214615   5.455   3.346   1.158  0.2604 -0.0389  0.2178
 4884TIP3    H114616   5.526   3.283   1.144 -1.1609 -1.7013  0.1701
 4884TIP3    H214617   5.461   3.405   1.083  1.3110 -0.4325 -0.0237
 4885TIP3   OH214618   2.825   3.043   0.274 -0.5080  0.0500  0.5154
 4885TIP3    H114619   2.784   3.129   0.285  1.0296  0.9753 -0.6600
 4885TIP3    H214620   2.915   3.055   0.302  0.0369 -0.8679 -0.7526
 4886TIP3   OH214621   1.664   6.037   5.325  0.4320 -0.1120 -0.0582
 4886TIP3    H114622   1.739   6.004   5.276 -0.3138 -1.2112 -0.4961
 4886TIP3    H214623   1.602   6.066   5.258  0.2106  0.2192  0.2822
 4887TIP3   OH214624   3.862   2.026   1.517 -0.1361 -0.5626 -0.3163
 4887TIP3    H114625   3.893   1.961   1.580 -1.0293 -0.1657  0.5530
 4887TIP3    H214626   3.929   2.093   1.517 -0.5770 -0.0863  0.9702
 4888TIP3   OH214627   6.876   5.497   3.744  0.4445  0.6747 -0.2953
 4888TIP3    H114628   6.851   5.470   3.832 -0.0485  1.2163 -0.2587
 4888TIP3    H214629   6.947   5.439   3.719 -0.8077 -0.8810 -0.3669
 4889TIP3   OH214630   5.401   1.905   3.612  0.2876 -0.6656  0.1874
 4889TIP3    H114631   5.386   1.999   3.621  0.7059 -0.7032  1.6716
 4889TIP3    H214632   5.443   1.895   3.527  0.2809  0.4967  0.0295
 4890TIP3   OH214633   6.316   1.633   2.522 -0.3518  0.0226 -0.1134
 4890TIP3    H114634   6.230   1.610   2.486 -0.4673  1.9870 -1.2681
 4890TIP3    H214635   6.331   1.722   2.490  0.8810  0.7802  2.3780
 4891TIP3   OH214636   5.092   1.758   4.543 -0.3695  0.2965  0.3289
 4891TIP3    H114637   5.054   1.777   4.629 -1.1943  0.4804 -0.0699
 4891TIP3    H214638   5.085   1.841   4.494  1.4788  0.6473  0.5648
 4892TIP3   OH214639   4.872   4.697   0.998  0.2025 -0.7387 -0.0226
 4892TIP3    H114640   4.827   4.730   0.919 -0.6214 -0.3107  0.6112
 4892TIP3    H214641   4.919   4.620   0.967  0.4395 -0.1977 -1.0835
 4893TIP3   OH214642   6.012   4.114   1.459 -0.1045  0.1696  0.0365
 4893TIP3    H114643   5.996   4.156   1.544 -0.0119 -0.5068  0.3990
 4893TIP3    H214644   6.012   4.186   1.396  0.7611  0.8030  0.7306
 4894TIP3   OH214645   4.866   0.093   3.503  0.2569 -0.0477 -0.3931
 4894TIP3    H114646   4.960   0.077   3.504  0.7922  2.5990 -1.0751
 4894TIP3    H214647   4.832   0.033   3.436  1.5966 -0.3050 -0.8695
 4895TIP3   OH214648   7.107   0.780   4.648 -0.1490  0.0202  0.5256
 4895TIP3    H114649   7.076   0.804   4.560  1.2721  0.0373  0.0069
 4895TIP3    H214650   7.063   0.697   4.666 -0.7682  0.2115 -0.0265
 4896TIP3   OH214651   6.392   3.777   3.738  0.0939 -0.3411 -0.6284
 4896TIP3    H114652   6.306   3.749   3.705 -0.9892  2.2582 -0.2590
 4896TIP3    H214653   6.388   3.872   3.738  2.7401 -0.1491  0.1342
 4897TIP3   OH214654   0.641   3.906   1.847 -0.3458  0.3650 -0.7916
 4897TIP3    H114655   0.575   3.923   1.914 -0.1774  1.2832 -0.8521
 4897TIP3    H214656   0.630   3.813   1.826 -0.3865  0.0543  0.5163
 4898TIP3   OH214657   0.478   2.103   5.380  0.5290 -0.1187 -0.3418
 4898TIP3    H114658   0.536   2.178   5.363  0.6706  0.1663  1.3048
 4898TIP3    H214659   0.532   2.041   5.429 -0.5893  0.2721  1.4623
 4899TIP3   OH214660   2.958   2.551   3.220 -0.1418 -0.5335  0.6974
 4899TIP3    H114661   2.901   2.606   3.272  0.1149 -0.7708  1.2320
 4899TIP3    H214662   2.911   2.541   3.137  0.1603  1.1250  0.2857
 4900TIP3   OH214663   3.488   6.715   1.497 -0.3765  0.0267 -0.7235
 4900TIP3    H114664   3.420   6.738   1.560  0.2064  2.5139 -0.9184
 4900TIP3    H214665   3.570   6.739   1.540  0.3025 -1.3659 -1.1637
 4901TIP3   OH214666   0.298   6.246   3.260  0.5007  0.1253 -0.3704
 4901TIP3    H114667   0.329   6.164   3.221 -2.4139 -1.7380  0.8660
 4901TIP3    H214668   0.325   6.241   3.351 -1.6756 -0.6497  0.2743
 4902TIP3   OH214669   4.708   1.136   1.752  0.0933  0.3626  0.2146
 4902TIP3    H114670   4.698   1.187   1.833  0.5080 -0.5626  0.8665
 4902TIP3    H214671   4.675   1.194   1.683 -1.5793  0.6435  1.2090
 4903TIP3   OH214672   5.932   4.627   1.745  0.6052 -0.3094 -0.1139
 4903TIP3    H114673   5.994   4.615   1.817 -0.0898 -0.0885  0.5323
 4903TIP3    H214674   5.964   4.569   1.676  0.7947 -1.1626  0.6847
 4904TIP3   OH214675   3.380   6.189   2.332 -0.0358  0.7822  0.1273
 4904TIP3    H114676   3.324   6.131   2.383 -0.0403  0.8083  0.1517
 4904TIP3    H214677   3.320   6.249   2.288 -0.1985 -0.5345 -1.5494
 4905TIP3   OH214678   0.632   3.924   3.892 -0.7413  0.0299 -0.1868
 4905TIP3    H114679   0.647   3.939   3.986  0.4354 -2.6604  0.1475
 4905TIP3    H214680   0.560   3.861   3.889 -1.6519  1.0783 -1.1867
 4906TIP3   OH214681   0.393   4.934   0.378  0.4489 -0.4876  0.5151
 4906TIP3    H114682   0.397   4.985   0.459 -1.3601  0.5415  0.0029
 4906TIP3    H214683   0.314   4.882   0.385 -0.4074  0.5172 -1.0572
 4907TIP3   OH214684   4.832   4.211   1.691 -0.0587  0.2043  0.5433
 4907TIP3    H114685   4.754   4.190   1.640 -0.5975  2.6398  0.2301
 4907TIP3    H214686   4.905   4.201   1.630 -0.4147  0.4347  0.0790
 4908TIP3   OH214687   1.274   0.463   1.065  0.1623 -0.4360 -0.2481
 4908TIP3    H114688   1.244   0.389   1.013  2.1979 -0.5017 -1.4267
 4908TIP3    H214689   1.319   0.520   1.003  0.2658  0.8854  0.9720
 4909TIP3   OH214690   6.351   4.074   5.018 -0.2545 -0.3371 -0.5756
 4909TIP3    H114691   6.417   4.006   5.033 -1.4833 -1.4299  0.0999
 4909TIP3    H214692   6.324   4.062   4.927  1.4479  1.0551 -1.3281
 4910TIP3   OH214693   6.768   5.234   3.459 -0.0514  0.3484 -0.3096
 4910TIP3    H114694   6.708   5.259   3.388  0.2153  0.2417 -0.5735
 4910TIP3    H214695   6.713   5.186   3.521 -0.3277  0.6149 -0.3460
 4911TIP3   OH214696   1.976   4.764   4.607 -0.0906  0.0655  0.0551
 4911TIP3    H114697   2.055   4.811   4.583 -0.4699  1.1885  0.9651
 4911TIP3    H214698   1.987   4.677   4.567  1.5520  0.2194  0.1190
 4912TIP3   OH214699   4.650   3.285   4.999 -0.8076  0.3581 -0.0216
 4912TIP3    H114700   4.606   3.230   4.934 -1.1922  0.3832  0.2132
 4912TIP3    H214701   4.581   3.309   5.061 -0.3633 -0.0161  0.6326
 4913TIP3   OH214702   2.381   1.101   5.249  0.3209  0.4930 -0.5124
 4913TIP3    H114703   2.295   1.117   5.288  0.8869 -1.1636  1.6052
 4913TIP3    H214704   2.440   1.157   5.299  0.7144  0.3711 -0.8418
 4914TIP3   OH214705   4.744   0.367   4.508  0.4389  0.6116  0.7213
 4914TIP3    H114706   4.771   0.439   4.452  0.8329  0.4559  0.7090
 4914TIP3    H214707   4.826   0.324   4.534  0.1564 -0.5371 -0.2080
 4915TIP3   OH214708   5.493   4.023   3.807  0.4156 -0.1991 -0.0953
 4915TIP3    H114709   5.570   4.075   3.783  1.1613 -1.1846  0.0604
 4915TIP3    H214710   5.529   3.952   3.860 -0.5509 -0.9345 -0.4066
 4916TIP3   OH214711   2.437   2.677   2.575  0.6137 -0.1219  0.0873
 4916TIP3    H114712   2.357   2.633   2.605 -0.1190  0.8044 -0.4333
 4916TIP3    H214713   2.500   2.606   2.564 -0.1833 -0.9042  0.3569
 4917TIP3   OH214714   6.203   1.827   5.910 -0.2032 -0.5544 -0.0629
 4917TIP3    H114715   6.145   1.887   5.864 -0.6524 -0.3028  0.8086
 4917TIP3    H214716   6.226   1.760   5.845 -1.2376 -0.4977 -0.4994
 4918TIP3   OH214717   4.317   0.810   2.993 -0.7245 -0.5626 -0.1313
 4918TIP3    H114718   4.364   0.867   3.054 -1.0972  0.0702 -0.4227
 4918TIP3    H214719   4.229   0.805   3.029 -0.8108 -0.5943 -0.3465
 4919TIP3   OH214720   6.620   5.874   3.479 -0.2574 -0.4494 -0.4522
 4919TIP3    H114721   6.574   5.946   3.522  0.8120 -0.3081  0.5102
 4919TIP3    H214722   6.568   5.796   3.500 -0.5209 -0.1823 -0.1029
 4920TIP3   OH214723   0.705   5.010   5.012  0.2763 -0.4765 -0.2830
 4920TIP3    H114724   0.713   4.916   4.995  0.2027 -0.1237 -2.6717
 4920TIP3    H214725   0.624   5.036   4.966  0.0971  0.6978  0.6410
 4921TIP3   OH214726   3.842   5.581   5.439  0.0243  0.3448  0.1837
 4921TIP3    H114727   3.876   5.530   5.513 -1.4246 -0.3103  0.4299
 4921TIP3    H214728   3.890   5.548   5.363 -1.2737 -1.8543  0.2486
 4922TIP3   OH214729   5.259   5.236   1.420  0.1689  0.1547  0.4614
 4922TIP3    H114730   5.202   5.219   1.345  0.7758 -3.6730  0.6659
 4922TIP3    H214731   5.343   5.263   1.380 -0.4030  1.3363 -0.0095
 4923TIP3   OH214732   5.861   1.864   4.031  0.1253 -0.9742  0.1823
 4923TIP3    H114733   5.897   1.780   4.004  0.6075 -1.1162  1.1997
 4923TIP3    H214734   5.937   1.917   4.054 -0.2381 -0.8045  1.0491
 4924TIP3   OH214735   4.338   2.549   3.101 -0.1272 -0.6428  0.2361
 4924TIP3    H114736   4.306   2.495   3.173 -0.1290 -0.7297  0.1706
 4924TIP3    H214737   4.392   2.616   3.143  0.8448 -1.3975  0.2313
 4925TIP3   OH214738   4.095   0.027   1.676  0.0941  0.2631  0.4609
 4925TIP3    H114739   4.172   0.046   1.729  0.7007 -1.7699  0.3599
 4925TIP3    H214740   4.103  -0.065   1.652 -1.2463  0.5748 -1.4189
 4926TIP3   OH214741   1.429   6.476   1.459  0.5168 -0.2722  0.1487
 4926TIP3    H114742   1.368   6.414   1.420 -1.1058  2.1878 -1.4885
 4926TIP3    H214743   1.481   6.509   1.386  2.3020 -0.6570  1.1869
 4927TIP3   OH214744   6.319   1.061   2.248 -0.1409 -0.7750  0.2402
 4927TIP3    H114745   6.228   1.037   2.260 -0.3604 -0.3663 -0.5035
 4927TIP3    H214746   6.325   1.149   2.285 -0.2439 -0.4877 -0.4089
 4928TIP3   OH214747   0.632   0.222   1.102  0.4959 -0.3868  0.3307
 4928TIP3    H114748   0.703   0.281   1.077  0.3033 -0.7054 -1.0583
 4928TIP3    H214749   0.553   0.276   1.100  0.1430 -0.9030 -2.1301
 4929TIP3   OH214750   2.587   3.769   3.574 -0.0585  0.4588  0.3734
 4929TIP3    H114751   2.588   3.743   3.482 -0.3140  1.8647 -0.0449
 4929TIP3    H214752   2.667   3.730   3.611  0.6253  0.7985 -0.7095
 4930TIP3   OH214753   2.825   5.720   4.610 -0.0661 -0.9014 -0.4762
 4930TIP3    H114754   2.806   5.787   4.544 -0.2258 -1.3168 -0.8562
 4930TIP3    H214755   2.917   5.698   4.595  0.8271  1.1580  1.4070
 4931TIP3   OH214756   5.369   3.341   2.372 -0.1271 -0.2346  0.2058
 4931TIP3    H114757   5.368   3.360   2.278 -2.2347  0.4823  0.3270
 4931TIP3    H214758   5.450   3.381   2.403  1.2338 -1.4883 -1.4442
 4932TIP3   OH214759   4.303   2.722   2.148 -0.4011 -0.1628  0.4461
 4932TIP3    H114760   4.383   2.764   2.117 -1.0656 -0.5048 -1.8912
 4932TIP3    H214761   4.257   2.791   2.195  0.2846  0.6464 -0.0452
 4933TIP3   OH214762   6.676   1.623   1.044  0.0012  0.0014 -0.3142
 4933TIP3    H114763   6.676   1.707   1.091  4.1470 -1.2891  2.6190
 4933TIP3    H214764   6.744   1.633   0.978 -0.1376 -0.7696 -0.5752
 4934TIP3   OH214765   2.318   4.295   5.804  0.2015 -0.0049 -0.0646
 4934TIP3    H114766   2.241   4.244   5.777  0.1242  1.1991 -2.3835
 4934TIP3    H214767   2.388   4.267   5.746  0.8508  0.6802  0.3630
 4935TIP3   OH214768   3.863   0.758   4.078 -0.0317  0.3776  0.2615
 4935TIP3    H114769   3.916   0.807   4.016  0.1358 -0.6340 -0.4348
 4935TIP3    H214770   3.786   0.732   4.027  0.8155 -1.7740 -0.0351
 4936TIP3   OH214771   3.173   5.785   2.509 -0.6148 -0.0633 -0.0166
 4936TIP3    H114772   3.214   5.842   2.574  0.1401  0.1578 -0.6706
 4936TIP3    H214773   3.111   5.841   2.464 -0.2815  0.1035 -0.2764
 4937TIP3   OH214774   0.859   2.190   4.667  0.3303  0.0152 -0.5417
 4937TIP3    H114775   0.811   2.273   4.675  1.1644  0.4210  0.5399
 4937TIP3    H214776   0.821   2.148   4.590 -2.0032  0.1422  0.4537
 4938TIP3   OH214777   4.440   4.069   3.108  0.2252  0.4492 -0.2126
 4938TIP3    H114778   4.402   4.040   3.026 -0.1250  0.4542 -0.0559
 4938TIP3    H214779   4.382   4.033   3.176  1.0284 -0.3289  0.0728
 4939TIP3   OH214780   2.360   3.741   2.274  0.5408  0.1971 -0.2772
 4939TIP3    H114781   2.276   3.771   2.310  0.7746  0.3978  0.1185
 4939TIP3    H214782   2.353   3.646   2.269  0.6624  0.1249  0.7356
 4940TIP3   OH214783   6.991   2.608   3.842 -0.4484 -0.2938  0.5990
 4940TIP3    H114784   6.919   2.641   3.788 -1.3207 -2.8825  0.0559
 4940TIP3    H214785   6.956   2.607   3.931  0.0169  1.3185  0.8262
 4941TIP3   OH214786   3.063   5.798   3.060  0.1459 -0.4128 -0.2940
 4941TIP3    H114787   3.081   5.803   3.154  0.5355 -0.4150 -0.3654
 4941TIP3    H214788   2.995   5.864   3.045 -0.5151 -0.9980  0.1270
 4942TIP3   OH214789   1.584   4.429   5.266 -0.3774  0.2281  0.5913
 4942TIP3    H114790   1.516   4.362   5.258  0.1097 -0.1610 -0.4449
 4942TIP3    H214791   1.609   4.427   5.358 -1.0806 -0.3037  0.7805
 4943TIP3   OH214792   6.398   2.858   0.482 -0.3244  0.3845  0.5232
 4943TIP3    H114793   6.482   2.867   0.526  0.5773 -0.4880 -0.9525
 4943TIP3    H214794   6.403   2.918   0.407 -1.0791  0.4364  0.5030
 4944TIP3   OH214795   0.677   1.047   1.067 -0.0399 -0.0808 -0.8060
 4944TIP3    H114796   0.729   1.115   1.024  1.7851 -0.5398  0.5090
 4944TIP3    H214797   0.727   1.027   1.147 -2.0052 -0.9560  0.2665
 4945TIP3   OH214798   1.946   3.740   0.190  0.0462 -0.0181  0.0009
 4945TIP3    H114799   1.961   3.716   0.281  0.5769 -0.1651 -0.1239
 4945TIP3    H214800   1.991   3.672   0.140  1.0453  0.8861 -0.3614
 4946TIP3   OH214801   2.495   3.195   3.565  0.3569 -0.2129  0.5701
 4946TIP3    H114802   2.542   3.117   3.535 -2.4369 -1.3583 -1.3689
 4946TIP3    H214803   2.523   3.264   3.505 -0.3885 -0.8885 -0.5981
 4947TIP3   OH214804   7.008   3.915   1.888 -0.2942  0.0333  0.3703
 4947TIP3    H114805   7.026   3.984   1.823 -1.0648 -1.3729 -1.4232
 4947TIP3    H214806   7.037   3.953   1.971  1.0517  1.8041 -0.8126
 4948TIP3   OH214807   4.228   1.832   0.958 -0.1059  0.3681  0.1585
 4948TIP3    H114808   4.213   1.750   1.004  0.2221 -0.0968 -0.5438
 4948TIP3    H214809   4.247   1.896   1.027 -1.5828  0.1558  0.8130
 4949TIP3   OH214810   0.380   4.678   3.878  0.1941 -0.3745  0.3843
 4949TIP3    H114811   0.289   4.653   3.859  0.3230 -0.9587  0.5072
 4949TIP3    H214812   0.407   4.728   3.801 -0.3829  0.2265  0.5619
 4950TIP3   OH214813   6.669   1.521   0.632  0.1292 -0.2302  0.8739
 4950TIP3    H114814   6.643   1.611   0.617  0.1500 -0.2008  1.0084
 4950TIP3    H214815   6.613   1.491   0.704 -2.2678 -1.4071 -1.3116
 4951TIP3   OH214816   5.155   5.861   2.350 -0.3101  0.1723 -0.2644
 4951TIP3    H114817   5.228   5.863   2.413 -0.5723 -1.3956  0.1281
 4951TIP3    H214818   5.111   5.945   2.361 -0.5588 -0.1991  1.9259
 4952TIP3   OH214819   5.807   3.626   2.032 -0.1775  0.0799 -0.0589
 4952TIP3    H114820   5.899   3.627   2.059  0.6030 -1.4025 -2.3956
 4952TIP3    H214821   5.798   3.702   1.975 -1.0968  1.6038  2.0016
 4953TIP3   OH214822   3.026   3.681   3.842 -0.0026 -0.3551 -0.7277
 4953TIP3    H114823   3.044   3.714   3.754  0.1082 -1.6184 -1.1951
 4953TIP3    H214824   3.009   3.587   3.830 -0.3588 -0.4765  0.5497
 4954TIP3   OH214825   5.060   5.164   1.222  0.5639  0.0077  0.4196
 4954TIP3    H114826   4.998   5.093   1.203  1.7647 -0.5164 -2.0078
 4954TIP3    H214827   5.012   5.244   1.199  0.6595 -0.3771 -1.2633
 4955TIP3   OH214828   3.290   1.424   4.338  0.0660 -0.1151  0.4569
 4955TIP3    H114829   3.356   1.460   4.279 -0.7749  0.8832  0.0835
 4955TIP3    H214830   3.324   1.441   4.426 -0.3300  1.7383  0.2991
 4956TIP3   OH214831   2.220   1.596   3.247  0.1918 -0.7863 -0.5431
 4956TIP3    H114832   2.176   1.513   3.266  0.1553 -0.8553 -0.9251
 4956TIP3    H214833   2.175   1.630   3.170 -0.3747  0.0173  0.1127
 4957TIP3   OH214834   3.039   1.407   5.352  0.2475 -1.0992 -0.4536
 4957TIP3    H114835   3.065   1.398   5.260 -2.1327 -1.1220 -1.2058
 4957TIP3    H214836   3.093   1.478   5.386  0.5423 -0.4841 -2.1399
 4958TIP3   OH214837   6.929   2.778   1.791  0.2585 -0.2771 -0.5901
 4958TIP3    H114838   6.900   2.702   1.841 -1.6734  0.5087 -0.4074
 4958TIP3    H214839   6.875   2.776   1.712 -0.4868  1.3714 -0.1603
 4959TIP3   OH214840   2.473   0.000   5.144 -0.0962 -0.6910  0.3789
 4959TIP3    H114841   2.397   0.052   5.172 -0.4811 -1.4530  0.7747
 4959TIP3    H214842   2.544   0.064   5.137 -1.0156  0.2274 -1.0747
 4960TIP3   OH214843   3.803   3.866   4.763  0.4263  0.3666 -0.0610
 4960TIP3    H114844   3.751   3.944   4.782 -1.0099 -0.1164 -1.7292
 4960TIP3    H214845   3.877   3.899   4.712  1.1083  0.9098  1.2559
 4961TIP3   OH214846   5.934   0.725   5.128 -0.3385  0.0914  0.3178
 4961TIP3    H114847   6.007   0.669   5.154  0.6507  1.0547 -0.2808
 4961TIP3    H214848   5.939   0.728   5.033 -1.0105  0.3757  0.2848
 4962TIP3   OH214849   3.281   4.323   5.300 -0.0519 -0.4066 -0.3384
 4962TIP3    H114850   3.290   4.400   5.356  0.5118 -0.9832  0.3923
 4962TIP3    H214851   3.188   4.300   5.304 -0.3713  0.6543 -1.1626
 4963TIP3   OH214852   0.620   5.925   3.404 -0.0028 -0.2858  0.5653
 4963TIP3    H114853   0.634   5.845   3.354 -2.5543 -0.4128 -0.0992
 4963TIP3    H214854   0.652   5.906   3.492  0.0870 -1.7750  0.2233
 4964TIP3   OH214855   0.533   5.602   1.867 -0.7094 -0.5140 -0.4513
 4964TIP3    H114856   0.440   5.604   1.890 -0.4685 -1.2297  0.6909
 4964TIP3    H214857   0.551   5.509   1.852  0.6639 -0.9980  3.2366
 4965TIP3   OH214858   5.130   0.811   0.809  0.1645  0.9745 -0.0406
 4965TIP3    H114859   5.039   0.831   0.829 -0.2536 -2.2675  2.0929
 4965TIP3    H214860   5.126   0.750   0.735  0.5045 -0.0400  0.7672
 4966TIP3   OH214861   1.525   1.800   0.872  0.3025  0.5881 -0.0858
 4966TIP3    H114862   1.512   1.893   0.852  1.7817  1.4865  2.6746
 4966TIP3    H214863   1.468   1.783   0.946  0.1365 -0.7020 -0.4894
 4967TIP3   OH214864   3.016   6.538   1.809 -0.3872 -0.5679 -0.1940
 4967TIP3    H114865   3.005   6.604   1.877 -0.5856 -0.7339 -0.0612
 4967TIP3    H214866   2.927   6.520   1.779 -0.2727 -0.2584 -0.7280
 4968TIP3   OH214867   3.879   5.893   0.285 -0.3535  0.2848  0.4365
 4968TIP3    H114868   3.867   5.800   0.265 -0.8212 -0.4677  3.5877
 4968TIP3    H214869   3.811   5.938   0.236 -0.0513 -0.9904 -1.2329
 4969TIP3   OH214870   1.321   0.618   2.812  0.6311  0.1714  0.2058
 4969TIP3    H114871   1.350   0.528   2.828  0.6175  0.4447  2.0059
 4969TIP3    H214872   1.401   0.665   2.788  0.7406 -0.1866 -0.1395
 4970TIP3   OH214873   1.942   4.899   0.725 -0.3400  0.4914  0.8076
 4970TIP3    H114874   1.905   4.815   0.750 -0.9226  0.8093  1.0331
 4970TIP3    H214875   1.972   4.887   0.635  1.9614 -0.7266  1.6421
 4971TIP3   OH214876   1.411   0.761   5.033 -0.3340 -0.6746  0.2575
 4971TIP3    H114877   1.437   0.827   5.097 -2.0368 -0.5527  0.8644
 4971TIP3    H214878   1.444   0.679   5.069  3.2543 -0.0996 -1.2956
 4972TIP3   OH214879   3.117   4.382   4.166 -0.2255  0.2959 -0.4458
 4972TIP3    H114880   3.190   4.423   4.120  0.3584  0.5046  0.6247
 4972TIP3    H214881   3.156   4.349   4.247 -1.3002  0.3086  0.0913
 4973TIP3   OH214882   4.143   3.661   4.962 -0.6697  0.5949 -0.2630
 4973TIP3    H114883   4.177   3.682   4.875 -0.5300  1.4144 -0.0109
 4973TIP3    H214884   4.128   3.566   4.959  2.1773  0.0607 -0.1936
 4974TIP3   OH214885   2.356   3.825   4.791  0.3761  0.5369  0.2033
 4974TIP3    H114886   2.361   3.798   4.699  0.7523  0.5389  0.2201
 4974TIP3    H214887   2.324   3.914   4.788 -0.8334  0.1114  0.1420
 4975TIP3   OH214888   1.985   2.527   0.717 -0.0360  0.5927  0.1846
 4975TIP3    H114889   1.974   2.587   0.790  0.2410  0.6596  0.1748
 4975TIP3    H214890   2.065   2.557   0.673  0.7563 -0.4405  0.8397
 4976TIP3   OH214891   6.374   3.131   3.146 -0.4513 -0.3508 -0.3873
 4976TIP3    H114892   6.454   3.153   3.194 -0.6910  0.6506 -0.4202
 4976TIP3    H214893   6.304   3.151   3.208 -0.7410  0.4762 -0.9666
 4977TIP3   OH214894   7.083   4.110   5.843 -0.0141 -0.6503  0.4093
 4977TIP3    H114895   7.107   4.018   5.851  1.8345 -0.0497  3.1340
 4977TIP3    H214896   7.132   4.154   5.913 -0.5250  2.4745 -1.0210
 4978TIP3   OH214897   2.262   2.528   0.574  0.1073  0.3001  0.4912
 4978TIP3    H114898   2.337   2.576   0.539  0.3161  0.0080  0.5319
 4978TIP3    H214899   2.301   2.453   0.620 -0.1670  0.6040  1.2230
 4979TIP3   OH214900   3.433   2.926   5.737 -0.2232 -0.2642  0.5537
 4979TIP3    H114901   3.524   2.899   5.748  0.1785 -0.2358 -1.9662
 4979TIP3    H214902   3.388   2.847   5.708 -0.4808  0.2087 -0.3908
 4980TIP3   OH214903   5.620   2.174   1.365  0.1477  0.3496 -0.1251
 4980TIP3    H114904   5.655   2.089   1.391 -1.7311 -0.1968  0.8100
 4980TIP3    H214905   5.527   2.158   1.351 -0.2384  2.2365 -0.0087
 4981TIP3   OH214906   1.297   6.679   1.144 -0.3673 -0.5683 -0.2409
 4981TIP3    H114907   1.304   6.739   1.070  1.9566 -0.2361  0.1796
 4981TIP3    H214908   1.375   6.624   1.138  2.7831  2.6217  4.5309
 4982TIP3   OH214909   1.744   6.476   0.167 -0.2431 -0.4084 -0.5882
 4982TIP3    H114910   1.735   6.411   0.097 -0.2356 -0.2426 -0.7445
 4982TIP3    H214911   1.710   6.557   0.129  1.2840  0.0870 -0.9773
 4983TIP3   OH214912   1.017   3.038   3.015 -0.4131 -0.0560  0.7102
 4983TIP3    H114913   1.082   3.089   2.967  0.3160 -1.6870 -0.1385
 4983TIP3    H214914   1.009   3.082   3.100  0.2591  1.3491  0.0739
 4984TIP3   OH214915   2.492   4.242   5.365  0.0587 -0.1137 -0.6072
 4984TIP3    H114916   2.457   4.161   5.330 -0.5522 -0.3747  0.5565
 4984TIP3    H214917   2.427   4.308   5.342  0.4991  0.0470 -1.4503
 4985TIP3   OH214918   5.647   6.496   2.892 -0.3087 -0.1802 -0.2815
 4985TIP3    H114919   5.583   6.440   2.936  0.2542 -0.8675 -0.3311
 4985TIP3    H214920   5.595   6.544   2.827 -0.6658 -1.3459 -0.8973
 4986TIP3   OH214921   5.837   3.407   1.077 -0.2357 -0.2076  0.7013
 4986TIP3    H114922   5.806   3.318   1.089 -1.6489 -0.0782 -1.5501
 4986TIP3    H214923   5.829   3.447   1.164  1.5076 -2.5117  2.0250
 4987TIP3   OH214924   6.264   0.912   0.556 -0.2481  0.1333 -0.2595
 4987TIP3    H114925   6.242   1.002   0.533 -0.4181  0.3190  0.5799
 4987TIP3    H214926   6.216   0.858   0.494 -1.4007  0.5910  0.2074
 4988TIP3   OH214927   4.286   6.410   5.826  0.1295  0.2860 -0.8776
 4988TIP3    H114928   4.286   6.319   5.796  0.4591  0.1213 -0.3940
 4988TIP3    H214929   4.253   6.406   5.916 -0.8469  0.7710 -1.2108
 4989TIP3   OH214930   3.653   6.154   2.307 -0.1686  0.2220 -0.1992
 4989TIP3    H114931   3.689   6.082   2.360  1.0213  0.7107 -0.3081
 4989TIP3    H214932   3.560   6.134   2.300  0.2189 -1.6982 -0.7934
 4990TIP3   OH214933   3.418   5.033   2.129 -0.1670  0.7553  0.1456
 4990TIP3    H114934   3.374   5.100   2.077 -0.8970  0.6723  0.6441
 4990TIP3    H214935   3.492   5.007   2.075 -1.7670 -0.4651 -1.5902
 4991TIP3   OH214936   6.283   4.679   3.659 -0.0002 -0.3620 -0.0397
 4991TIP3    H114937   6.189   4.685   3.638 -0.4293  0.2882  1.8689
 4991TIP3    H214938   6.286   4.630   3.742  1.4002 -0.8423 -0.3489
 4992TIP3   OH214939   6.228   5.898   5.149 -0.1728  0.3658  0.0077
 4992TIP3    H114940   6.274   5.980   5.132  0.2000  0.4767  1.3860
 4992TIP3    H214941   6.135   5.920   5.141 -0.0720  0.9337  0.3565
 4993TIP3   OH214942   3.117   2.166   0.093 -0.1003  0.0889 -0.4559
 4993TIP3    H114943   3.132   2.227   0.020 -0.6882  0.2594 -0.4407
 4993TIP3    H214944   3.022   2.168   0.106 -0.4714 -2.6557 -2.0224
 4994TIP3   OH214945   1.313   1.214   3.585 -0.5747  0.3231  0.0082
 4994TIP3    H114946   1.261   1.206   3.665  0.6846 -0.0283  0.8156
 4994TIP3    H214947   1.275   1.150   3.525 -1.5909  0.6559  0.2749
 4995TIP3   OH214948   3.940   3.437   2.805 -0.7341 -0.4583  0.2315
 4995TIP3    H114949   3.882   3.375   2.761 -1.1179  0.6057 -0.8390
 4995TIP3    H214950   3.881   3.506   2.836 -0.1772  0.0647  0.1517
 4996TIP3   OH214951   4.903   0.077   4.450 -0.2617  0.1925  0.0210
 4996TIP3    H114952   4.950   0.137   4.391 -0.7263  1.3083  0.7664
 4996TIP3    H214953   4.927   0.105   4.538  1.6962 -2.4434  0.4823
 4997TIP3   OH214954   2.658   0.919   2.925  0.4144  0.0314 -0.5320
 4997TIP3    H114955   2.740   0.967   2.937  1.2192 -1.6460  1.2318
 4997TIP3    H214956   2.633   0.892   3.013 -1.5307 -0.3437 -1.1564
 4998TIP3   OH214957   3.218   6.471   5.676 -0.1246  0.4774  0.0180
 4998TIP3    H114958   3.306   6.438   5.659  0.7126  1.5418  1.9425
 4998TIP3    H214959   3.182   6.410   5.741 -0.7365  0.2016 -0.5634
 4999TIP3   OH214960   3.912   0.605   4.906  0.2029 -0.0883 -0.5787
 4999TIP3    H114961   3.971   0.531   4.917 -1.0201 -0.8087  1.6681
 4999TIP3    H214962   3.952   0.676   4.955 -0.8847 -0.6789  1.2460
 5000TIP3   OH214963   5.491   3.490   0.911  0.0772  0.0631  0.1498
 5000TIP3    H114964   5.458   3.483   0.821 -1.1469 -2.0325  0.7097
 5000TIP3    H214965   5.586   3.499   0.900  0.0516 -1.0823 -1.3491
 5001TIP3   OH214966   1.656   2.449   1.580  0.0896 -0.2119  0.1878
 5001TIP3    H114967   1.575   2.437   1.531 -0.5313  0.1414  1.1001
 5001TIP3    H214968   1.645   2.395   1.658  2.2556 -3.1338 -1.3465
 5002TIP3   OH214969   3.267   6.114   3.855  0.3522  0.1084 -0.2757
 5002TIP3    H114970   3.189   6.113   3.799  1.8972 -0.6870 -2.5360
 5002TIP3    H214971   3.323   6.181   3.816  2.3461 -1.8928 -1.0764
 5003TIP3   OH214972   5.591   4.382   1.160  0.3886  0.5057 -0.1752
 5003TIP3    H114973   5.608   4.410   1.070 -0.4473 -1.0944 -0.8650
 5003TIP3    H214974   5.528   4.311   1.152  1.4059 -0.6648  1.5730
 5004TIP3   OH214975   0.384   2.804   4.453 -0.9750  0.2561  0.0162
 5004TIP3    H114976   0.421   2.881   4.497  0.0111 -0.0672 -0.2249
 5004TIP3    H214977   0.421   2.806   4.365  1.2601 -1.9327  0.7960
 5005TIP3   OH214978   0.753   0.072   4.853  0.8910  0.1080 -0.2052
 5005TIP3    H114979   0.757   0.127   4.775 -3.3380  3.0588  1.2897
 5005TIP3    H214980   0.718  -0.011   4.822  2.3034  0.0373 -1.7824
 5006TIP3   OH214981   4.410   5.734   1.663 -0.1161  0.4088 -0.0168
 5006TIP3    H114982   4.461   5.776   1.593 -0.2506  0.9208  0.1852
 5006TIP3    H214983   4.413   5.641   1.643 -0.8650  0.6196 -1.1892
 5007TIP3   OH214984   0.806   3.964   4.147 -0.1637 -0.5834 -0.1792
 5007TIP3    H114985   0.876   3.963   4.213 -1.9380 -0.1768  1.8316
 5007TIP3    H214986   0.780   4.056   4.142  1.3597 -0.1744 -3.2030
 5008TIP3   OH214987   6.635   0.442   1.193 -0.1692  0.0142 -0.3222
 5008TIP3    H114988   6.687   0.477   1.265  1.4973 -0.5127 -1.2373
 5008TIP3    H214989   6.585   0.371   1.233 -0.7594  0.9676  0.7168
 5009TIP3   OH214990   3.896   6.500   0.336  0.4355 -0.1884  0.3315
 5009TIP3    H114991   3.915   6.548   0.417  0.7346  0.2262  0.0211
 5009TIP3    H214992   3.834   6.557   0.289  0.8339 -0.0799 -0.0630
 5010TIP3   OH214993   3.907   2.381   5.791 -0.3249 -0.4904  0.8386
 5010TIP3    H114994   3.876   2.465   5.825  1.1812  0.4725 -0.0317
 5010TIP3    H214995   3.994   2.400   5.756 -0.2182 -2.2826  0.0136
 5011TIP3   OH214996   3.806   4.311   0.174  0.4520  0.2579 -0.0165
 5011TIP3    H114997   3.723   4.267   0.188  0.6647 -0.2276 -0.2484
 5011TIP3    H214998   3.833   4.341   0.261  1.1951 -1.6823  0.4813
 5012TIP3   OH214999   4.069   1.672   2.726 -0.7240 -0.2011  0.4910
 5012TIP3    H115000   4.054   1.718   2.643  2.6526 -0.3423 -0.3341
 5012TIP3    H215001   4.113   1.737   2.782 -1.8118 -0.5025  1.7458
 5013TIP3   OH215002   5.721   3.268   3.072  0.0444  0.2082 -0.1099
 5013TIP3    H115003   5.716   3.263   2.977 -1.5591  0.7407 -0.0761
 5013TIP3    H215004   5.665   3.197   3.103 -0.2657  0.6816  0.4350
 5014TIP3   OH215005   5.781   1.997   5.422  0.5435  0.1285  0.0650
 5014TIP3    H115006   5.814   2.039   5.501  0.8375 -1.6527  0.9361
 5014TIP3    H215007   5.710   2.054   5.392  0.7650  1.0919  1.3158
 5015TIP3   OH215008   6.216   1.022   1.976 -0.4739  0.1090 -0.4707
 5015TIP3    H115009   6.307   1.035   2.001 -0.5966 -0.0890  0.0812
 5015TIP3    H215010   6.166   1.037   2.056 -0.9823  0.8412 -0.9167
 5016TIP3   OH215011   4.891   2.734   1.052  0.4839 -0.1699  0.0684
 5016TIP3    H115012   4.827   2.742   0.982  1.2041  0.1118 -0.5800
 5016TIP3    H215013   4.848   2.682   1.119 -0.5735  0.3991 -0.1583
 5017TIP3   OH215014   3.395   1.707   0.510  0.0632  0.0887 -0.1767
 5017TIP3    H115015   3.400   1.799   0.481 -0.0083 -0.3042 -1.4910
 5017TIP3    H215016   3.397   1.656   0.429  0.8804 -1.1172  0.5716
 5018TIP3   OH215017   4.632   2.508   3.721 -0.3531  0.3536  0.1670
 5018TIP3    H115018   4.615   2.530   3.630 -1.3324 -1.9898 -0.3093
 5018TIP3    H215019   4.546   2.483   3.756  0.4224 -1.5915  0.8451
 5019TIP3   OH215020   2.856   4.249   4.222  0.3803  0.0164 -0.0838
 5019TIP3    H115021   2.929   4.198   4.186 -0.6190 -0.1318 -1.9829
 5019TIP3    H215022   2.820   4.296   4.147 -2.1344 -0.7141  0.5796
 5020TIP3   OH215023   0.243   5.380   0.419  0.3048  0.1544  0.3788
 5020TIP3    H115024   0.235   5.440   0.345 -2.7738  0.2599  0.6971
 5020TIP3    H215025   0.332   5.344   0.410 -0.0796 -0.2565 -3.6828
 5021TIP3   OH215026   4.481   1.523   2.845  0.1268 -0.0321 -0.6840
 5021TIP3    H115027   4.477   1.607   2.798 -1.7731  0.2563 -0.0793
 5021TIP3    H215028   4.530   1.465   2.786  0.6788  1.2342 -1.5177
 5022TIP3   OH215029   2.385   3.084   1.108 -0.4970  0.3879 -0.1202
 5022TIP3    H115030   2.377   3.000   1.154  0.1999 -0.0142 -0.6966
 5022TIP3    H215031   2.314   3.084   1.045  0.6616 -0.7084 -1.5043
 5023TIP3   OH215032   7.164   1.453   4.728 -0.2428  0.2452  0.1128
 5023TIP3    H115033   7.173   1.414   4.641 -1.2831 -0.9093  0.4866
 5023TIP3    H215034   7.242   1.508   4.738  0.7800 -0.9669 -0.8432
 5024TIP3   OH215035   4.910   1.526   0.128  1.0253  0.0343  0.1151
 5024TIP3    H115036   4.904   1.490   0.040 -0.1531 -0.0211  0.2085
 5024TIP3    H215037   4.900   1.621   0.117  2.5963  0.2135  0.0279
 5025TIP3   OH215038   7.119   4.437   1.307  0.1463  0.2564  0.1597
 5025TIP3    H115039   7.088   4.369   1.247 -0.0924 -0.1990  0.7860
 5025TIP3    H215040   7.214   4.437   1.295  0.1030  0.1713 -0.2159
 5026TIP3   OH215041   1.584   3.728   1.539  0.0244  0.1273 -0.5789
 5026TIP3    H115042   1.504   3.780   1.529 -0.5453 -0.8550 -1.3089
 5026TIP3    H215043   1.560   3.659   1.600  0.3568 -0.1094 -0.7138
 5027TIP3   OH215044   6.094   2.149   4.266  0.2358  0.1780 -0.0889
 5027TIP3    H115045   6.068   2.071   4.217  0.5666 -0.7394  1.1480
 5027TIP3    H215046   6.190   2.148   4.262  0.2310  0.7818 -0.4411
 5028TIP3   OH215047   1.940   4.945   2.064  0.4948  0.4804 -0.0050
 5028TIP3    H115048   1.892   4.914   2.141  0.0850  1.3734  0.1076
 5028TIP3    H215049   1.882   4.926   1.991  0.0083  1.4260  0.1167
 5029TIP3   OH215050   2.293   5.112   2.624  0.6830 -0.6157 -0.0435
 5029TIP3    H115051   2.362   5.046   2.622  0.4328 -0.8694 -1.4005
 5029TIP3    H215052   2.233   5.082   2.692  0.0836 -2.3461 -1.2724
 5030TIP3   OH215053   3.203   3.059   4.294 -0.0722  0.2391 -0.1143
 5030TIP3    H115054   3.218   3.058   4.200 -0.3463 -0.2494 -0.1528
 5030TIP3    H215055   3.260   3.129   4.326 -1.7373  2.0642 -0.9258
 5031TIP3   OH215056   6.358   1.219   0.927  0.3724  0.3298 -0.3020
 5031TIP3    H115057   6.306   1.267   0.863  0.3135  0.2225 -0.3351
 5031TIP3    H215058   6.395   1.146   0.878 -0.9553 -0.6687  0.1284
 5032TIP3   OH215059   1.037   5.794   3.603  0.3078  0.1720 -0.3587
 5032TIP3    H115060   1.021   5.831   3.690  0.2001 -1.3498  0.3182
 5032TIP3    H215061   0.981   5.844   3.544 -0.0745  0.8332  0.5486
 5033TIP3   OH215062   4.455   2.579   1.005  0.6580 -0.4348 -0.3669
 5033TIP3    H115063   4.506   2.567   0.925 -0.5147  0.6553 -1.3017
 5033TIP3    H215064   4.439   2.673   1.010  1.3976 -0.3644  1.6066
 5034TIP3   OH215065   2.205   0.236   1.413 -0.4702 -0.0249  0.3126
 5034TIP3    H115066   2.187   0.307   1.352 -1.0339 -1.5410 -1.4038
 5034TIP3    H215067   2.257   0.174   1.362  0.4070 -0.6341  1.8936
 5035TIP3   OH215068   5.920   1.082   5.300 -0.0710 -0.3888  0.3951
 5035TIP3    H115069   5.863   1.148   5.339  1.3051  0.5784  0.8662
 5035TIP3    H215070   5.905   1.090   5.206 -0.6328 -0.0836  0.5083
 5036TIP3   OH215071   6.653   5.643   4.148  0.2322 -0.2553 -0.8886
 5036TIP3    H115072   6.637   5.617   4.239 -1.1935  0.4255 -0.9156
 5036TIP3    H215073   6.669   5.561   4.102  1.2746 -0.5847  0.0187
 5037TIP3   OH215074   3.462   5.842   0.708 -0.1279 -0.3741  0.0944
 5037TIP3    H115075   3.488   5.930   0.737 -2.0195  0.1805  0.2619
 5037TIP3    H215076   3.545   5.795   0.696  1.0604  1.9043 -1.5542
 5038TIP3   OH215077   1.645   0.120   4.341 -0.6016 -0.0745 -0.0159
 5038TIP3    H115078   1.585   0.190   4.367 -1.7894 -1.2473  0.5574
 5038TIP3    H215079   1.690   0.154   4.264 -0.1736  1.8175  1.0273
 5039TIP3   OH215080   4.464   5.456   1.591  0.4430  0.2659  0.1370
 5039TIP3    H115081   4.531   5.426   1.529  1.4496  0.1302  1.2506
 5039TIP3    H215082   4.392   5.394   1.579  1.0727 -0.4456 -0.1146
 5040TIP3   OH215083   7.156   2.714   5.699  0.0003 -0.1496  0.8310
 5040TIP3    H115084   7.220   2.776   5.665 -0.3151 -0.0040  0.4985
 5040TIP3    H215085   7.200   2.672   5.772  1.1152 -1.2618 -0.4215
 5041TIP3   OH215086   2.148   6.069   4.078  0.0627 -0.2831  0.3112
 5041TIP3    H115087   2.221   6.021   4.040  0.1545 -1.6355  2.0657
 5041TIP3    H215088   2.077   6.005   4.085 -0.4106  0.2975  1.0786
 5042TIP3   OH215089   5.299   1.047   3.275  0.3756  0.1724  0.0940
 5042TIP3    H115090   5.223   1.013   3.322  0.5865  1.1745  1.2050
 5042TIP3    H215091   5.326   0.976   3.217 -1.5482 -0.1093 -0.5031
 5043TIP3   OH215092   4.657   4.402   4.224  0.3709 -0.2884 -0.2963
 5043TIP3    H115093   4.659   4.311   4.193 -0.0688 -0.6382  0.6704
 5043TIP3    H215094   4.699   4.399   4.310  0.5655  0.4689 -0.3568
 5044TIP3   OH215095   4.254   4.489   3.599  0.0020 -0.2951  0.0787
 5044TIP3    H115096   4.286   4.410   3.643  2.0246  0.5268  0.2199
 5044TIP3    H215097   4.281   4.477   3.507 -0.5792 -0.1998 -0.1100
 5045TIP3   OH215098   6.917   3.942   3.871 -0.3038  0.0714 -0.2540
 5045TIP3    H115099   6.873   3.899   3.797 -0.2876  0.4479 -0.4809
 5045TIP3    H215100   6.932   3.870   3.933 -0.3054 -0.2511 -0.6180
 5046TIP3   OH215101   6.843   3.340   4.885  0.1351 -0.0775 -0.2914
 5046TIP3    H115102   6.923   3.354   4.936 -0.0407  0.5989 -0.1949
 5046TIP3    H215103   6.857   3.390   4.805  0.6410 -1.5708 -1.1822
 5047TIP3   OH215104   5.301   0.490   1.666  0.4562 -0.2886 -1.0775
 5047TIP3    H115105   5.366   0.439   1.617  1.3515 -0.2820  0.0531
 5047TIP3    H215106   5.342   0.576   1.678  0.1210 -0.1923 -0.5972
 5048TIP3   OH215107   3.702   3.252   1.011 -0.2021 -0.0576 -0.7620
 5048TIP3    H115108   3.658   3.222   0.932 -1.7852  0.1968 -0.0044
 5048TIP3    H215109   3.671   3.193   1.080  2.8792 -1.7713 -0.6364
 5049TIP3   OH215110   2.102   4.704   4.309  0.9208  0.3938  0.2044
 5049TIP3    H115111   2.126   4.649   4.383  2.3502  1.4758  0.5832
 5049TIP3    H215112   2.160   4.675   4.238  1.1756  0.9133  0.1965
 5050TIP3   OH215113   3.411   4.435   0.305  0.3989 -0.2840 -0.4246
 5050TIP3    H115114   3.382   4.390   0.384  0.8924 -0.3714 -0.2898
 5050TIP3    H215115   3.470   4.373   0.262 -0.1129 -0.3654 -1.0326
 5051TIP3   OH215116   1.419   6.371   2.008 -0.0991  0.4807  0.0139
 5051TIP3    H115117   1.372   6.396   2.088  1.8803  0.2767  1.3029
 5051TIP3    H215118   1.460   6.288   2.029  0.1818  0.2434 -1.3608
 5052TIP3   OH215119   1.396   1.128   2.080  0.1022 -0.1857  0.3129
 5052TIP3    H115120   1.422   1.130   1.987 -0.3576 -0.1305  0.1827
 5052TIP3    H215121   1.331   1.198   2.088 -1.1039 -1.2645  0.2917
 5053TIP3   OH215122   2.868   5.897   3.665 -0.3324  0.2872 -0.0358
 5053TIP3    H115123   2.776   5.910   3.643 -0.2418  1.5241  0.2363
 5053TIP3    H215124   2.866   5.853   3.750 -0.6854  0.8173  0.2386
 5054TIP3   OH215125   6.072   2.277   3.627  0.8903  0.5574  0.6701
 5054TIP3    H115126   6.112   2.195   3.600  0.7096  0.1954  1.4878
 5054TIP3    H215127   6.132   2.312   3.693 -0.4962 -0.3868  2.5137
 5055TIP3   OH215128   1.640   4.992   5.652 -0.4847 -0.2005  0.2121
 5055TIP3    H115129   1.718   4.959   5.696 -0.7712  0.3313  1.1523
 5055TIP3    H215130   1.646   5.087   5.663 -0.4365 -0.0334 -1.1336
 5056TIP3   OH215131   1.481   1.288   0.045  0.1516  0.1373  0.0239
 5056TIP3    H115132   1.471   1.193   0.031  0.1680 -0.3238  2.6195
 5056TIP3    H215133   1.394   1.317   0.075  0.1300  0.9788 -0.8122
 5057TIP3   OH215134   6.032   0.673   5.817 -0.4745 -0.1844  0.3971
 5057TIP3    H115135   5.999   0.666   5.906  0.0200  1.0471  0.6973
 5057TIP3    H215136   5.993   0.598   5.771 -1.2237 -0.4853  1.4836
 5058TIP3   OH215137   5.566   5.169   1.690 -0.2340  0.1199  0.1094
 5058TIP3    H115138   5.513   5.233   1.642 -1.3836  1.5118  3.0097
 5058TIP3    H215139   5.640   5.220   1.723  1.8958 -1.3525 -2.0669
 5059TIP3   OH215140   1.824   3.608   3.989 -0.3970  0.6478 -0.1621
 5059TIP3    H115141   1.808   3.679   3.927  1.5016  2.3759  1.2100
 5059TIP3    H215142   1.918   3.609   4.003 -0.4884 -1.3275  0.8821
 5060TIP3   OH215143   6.691   5.899   2.631  0.5974  0.6657  0.2884
 5060TIP3    H115144   6.664   5.810   2.609  0.7294  0.2587  1.6578
 5060TIP3    H215145   6.683   5.903   2.727  2.1763  1.5850  0.4118
 5061TIP3   OH215146   1.260   2.196   1.924  0.4272  0.6151 -0.0596
 5061TIP3    H115147   1.196   2.267   1.919  0.3738  0.6296  0.7615
 5061TIP3    H215148   1.335   2.235   1.969  0.6918  0.3621 -0.2755
 5062TIP3   OH215149   6.200   2.546   3.228  0.3518 -0.2370 -0.1106
 5062TIP3    H115150   6.165   2.470   3.275 -0.7193 -0.7102 -1.6013
 5062TIP3    H215151   6.294   2.543   3.247  0.0025 -0.4521  1.8742
 5063TIP3   OH215152   4.768   1.598   0.637 -0.5339  1.1339  0.0943
 5063TIP3    H115153   4.763   1.513   0.593  2.0676 -0.1937  2.0796
 5063TIP3    H215154   4.783   1.661   0.566  0.3466 -0.4762 -1.2211
 5064TIP3   OH215155   0.232   6.218   2.147 -0.2230 -0.1608 -0.2276
 5064TIP3    H115156   0.319   6.209   2.107 -0.9052 -1.0975 -1.5861
 5064TIP3    H215157   0.237   6.300   2.195  1.6513 -0.5660  0.3639
 5065TIP3   OH215158   2.999   4.709   5.205 -0.0401 -0.1968  0.1498
 5065TIP3    H115159   2.997   4.736   5.296  2.2208  0.7018 -0.0096
 5065TIP3    H215160   3.008   4.791   5.156  0.3379 -0.7791 -0.7826
 5066TIP3   OH215161   6.555   6.350   0.741 -0.1534 -0.6330 -0.1946
 5066TIP3    H115162   6.590   6.351   0.830  0.1645 -1.0499 -0.3128
 5066TIP3    H215163   6.489   6.281   0.741 -0.6473 -0.1698 -0.1017
 5067TIP3   OH215164   4.585   4.629   1.098  0.3895  0.2708 -0.5824
 5067TIP3    H115165   4.671   4.616   1.138  0.7922  0.2215 -1.4306
 5067TIP3    H215166   4.525   4.576   1.151  1.0068 -0.2891 -0.4323
 5068TIP3   OH215167   3.009   3.844   1.185  0.0167 -0.0500  0.0036
 5068TIP3    H115168   3.040   3.775   1.243  3.3167  0.0886 -1.3619
 5068TIP3    H215169   2.927   3.810   1.149  0.4800 -2.3548  0.9326
 5069TIP3   OH215170   3.495   3.615   2.670 -0.4141  0.6296 -0.2382
 5069TIP3    H115171   3.506   3.657   2.585  1.9177 -2.0563 -1.4641
 5069TIP3    H215172   3.583   3.615   2.708 -0.8998 -0.5170  0.9722
 5070TIP3   OH215173   6.691   6.623   1.495  0.5514 -0.4186  0.3181
 5070TIP3    H115174   6.605   6.658   1.519  0.7745  0.8811 -0.6144
 5070TIP3    H215175   6.750   6.699   1.501  1.3425 -0.9493 -0.4401
 5071TIP3   OH215176   5.213   2.713   2.909  0.3010 -0.5472  0.1591
 5071TIP3    H115177   5.227   2.806   2.893 -0.6167 -0.1251  1.6243
 5071TIP3    H215178   5.141   2.710   2.973 -0.2519 -2.2898 -0.4843
 5072TIP3   OH215179   1.799   0.331   4.475  0.3019 -0.3635  0.6166
 5072TIP3    H115180   1.715   0.304   4.512  1.3475 -0.3935  3.1619
 5072TIP3    H215181   1.864   0.289   4.530  2.0497 -0.9248 -1.7468
 5073TIP3   OH215182   5.662   3.464   0.523  0.3835 -0.5724 -0.1122
 5073TIP3    H115183   5.713   3.391   0.558  0.8503 -0.8183 -1.2770
 5073TIP3    H215184   5.672   3.458   0.429  0.4548  1.0170 -0.2356
 5074TIP3   OH215185   3.628   4.054   4.889 -0.3802  0.1195  0.4432
 5074TIP3    H115186   3.557   4.012   4.937 -0.0149  0.3832  1.2267
 5074TIP3    H215187   3.698   4.063   4.953  0.0680  0.6115 -0.1054
 5075TIP3   OH215188   2.530   0.328   2.072 -0.4208  0.0417  0.1537
 5075TIP3    H115189   2.436   0.340   2.086 -0.5710  0.3752 -0.9541
 5075TIP3    H215190   2.553   0.397   2.009  0.4668 -0.3164  0.0694
 5076TIP3   OH215191   5.459   4.831   4.193  0.4993 -0.3200 -0.2012
 5076TIP3    H115192   5.364   4.840   4.186  0.6520  1.1485 -0.6758
 5076TIP3    H215193   5.494   4.914   4.159  1.9149 -0.3480  1.0775
 5077TIP3   OH215194   1.158   2.633   2.995  0.4186  0.9066  0.0555
 5077TIP3    H115195   1.185   2.544   3.018  1.8073 -0.0829 -4.4055
 5077TIP3    H215196   1.229   2.688   3.027  0.3110  0.2474  1.4972
 5078TIP3   OH215197   4.562   5.887   0.992 -0.4079  0.3482  0.2266
 5078TIP3    H115198   4.539   5.794   0.998  1.0130 -0.1519 -1.1162
 5078TIP3    H215199   4.642   5.896   1.044 -1.4981  1.2433  1.8183
 5079TIP3   OH215200   1.675   5.221   0.171 -0.3702  0.0370  0.5488
 5079TIP3    H115201   1.656   5.259   0.258  0.5527 -1.0584  1.2542
 5079TIP3    H215202   1.626   5.277   0.110 -0.2832  1.4169  1.6776
 5080TIP3   OH215203   0.010   1.291   4.937  0.1905 -0.2070 -0.1400
 5080TIP3    H115204  -0.007   1.352   4.865  0.6993 -0.1042 -0.1756
 5080TIP3    H215205   0.016   1.205   4.896 -1.2947 -0.4064 -0.0002
 5081TIP3   OH215206   0.678   4.201   2.025  0.2965  0.3707  0.0634
 5081TIP3    H115207   0.690   4.172   1.934  0.2658  1.1605 -0.2040
 5081TIP3    H215208   0.739   4.147   2.076  2.0603  1.5211 -0.7288
 5082TIP3   OH215209   0.095   4.056   0.045  0.2517  0.1932  0.1430
 5082TIP3    H115210   0.085   4.033   0.137 -1.8367  1.3845  0.3075
 5082TIP3    H215211   0.157   4.129   0.045  1.4312 -0.7950  0.4127
 5083TIP3   OH215212   1.832   5.159   0.566 -0.2694  0.8154  0.4050
 5083TIP3    H115213   1.892   5.197   0.630 -0.0294  0.0220  0.6744
 5083TIP3    H215214   1.820   5.069   0.596 -1.7764  1.0176  0.4814
 5084TIP3   OH215215   3.092   4.153   3.646  0.0235 -0.8063 -0.3617
 5084TIP3    H115216   3.026   4.222   3.642 -2.0845 -2.7389 -2.0983
 5084TIP3    H215217   3.154   4.175   3.577 -0.9876 -0.9317 -1.3371
 5085TIP3   OH215218   3.582   2.884   4.765  0.1361 -0.6242 -0.0921
 5085TIP3    H115219   3.550   2.899   4.854  1.1833  1.5878 -0.0219
 5085TIP3    H215220   3.516   2.924   4.709  1.3361  1.5130 -0.0709
 5086TIP3   OH215221   6.994   0.219   4.998  0.0231  0.2289  0.3225
 5086TIP3    H115222   7.018   0.311   4.995  0.7878  0.0233 -0.2299
 5086TIP3    H215223   6.966   0.198   4.909  1.2942 -0.4264  0.0464
 5087TIP3   OH215224   6.030   1.367   4.695  0.0806  0.3076 -0.6636
 5087TIP3    H115225   6.095   1.423   4.737  0.7860 -0.6036 -0.5389
 5087TIP3    H215226   6.075   1.285   4.678 -0.1573  0.6118 -3.2243
 5088TIP3   OH215227   1.985   2.777   2.252  0.0697  0.0738  0.4099
 5088TIP3    H115228   1.992   2.682   2.262  0.1247  0.0458  0.0923
 5088TIP3    H215229   1.905   2.791   2.202  1.9261 -0.0198 -2.8689
 5089TIP3   OH215230   2.581   6.478   2.716  0.0815  0.1167  0.3710
 5089TIP3    H115231   2.612   6.432   2.638 -0.3336 -0.4938  0.5664
 5089TIP3    H215232   2.504   6.430   2.744 -0.8673  1.4254  0.0905
 5090TIP3   OH215233   0.251   5.724   5.263 -0.2915  0.1236 -0.0676
 5090TIP3    H115234   0.273   5.750   5.352 -0.8581  1.4071 -0.2774
 5090TIP3    H215235   0.157   5.703   5.267 -0.2170 -0.2651 -0.2707
 5091TIP3   OH215236   5.140   0.486   1.402  0.3011  0.1876 -0.1934
 5091TIP3    H115237   5.101   0.428   1.468  0.8691 -0.2192 -0.2094
 5091TIP3    H215238   5.172   0.561   1.452 -0.4509  0.5050 -0.1745
 5092TIP3   OH215239   6.789   0.553   3.573 -0.3226  0.1442 -0.4143
 5092TIP3    H115240   6.803   0.469   3.618  0.6408  0.8878  0.7271
 5092TIP3    H215241   6.787   0.530   3.480  0.5155 -1.0845 -0.1541
 5093TIP3   OH215242   1.445   6.071   0.360 -0.1327 -0.1890 -0.2425
 5093TIP3    H115243   1.365   6.025   0.381 -0.4462  0.2057 -0.5512
 5093TIP3    H215244   1.428   6.112   0.275  0.8854 -1.2709 -1.0127
 5094TIP3   OH215245   0.605   4.807   2.259  0.4368 -0.9162 -0.0554
 5094TIP3    H115246   0.626   4.715   2.252  1.0078 -0.8147  0.3106
 5094TIP3    H215247   0.621   4.829   2.351  0.8273 -0.3254 -0.2608
 5095TIP3   OH215248   1.278   0.706   0.517  0.0521 -0.2994  0.0562
 5095TIP3    H115249   1.194   0.695   0.471 -0.9202  1.4590  1.2887
 5095TIP3    H215250   1.341   0.657   0.464 -1.4567 -0.3836 -1.7656
 5096TIP3   OH215251   0.516   6.829   0.144 -0.4950 -0.2772 -0.6021
 5096TIP3    H115252   0.578   6.761   0.172 -1.5454 -1.0877 -0.1813
 5096TIP3    H215253   0.468   6.789   0.071  0.7598  1.0514 -2.2204
 5097TIP3   OH215254   5.062   5.413   3.815  0.0957  0.4408  0.5765
 5097TIP3    H115255   5.049   5.396   3.908  0.3019  1.7136  0.8628
 5097TIP3    H215256   5.006   5.489   3.797 -1.8728 -1.2512 -0.9341
 5098TIP3   OH215257   5.301   3.787   4.610  0.2861  0.4027 -0.3457
 5098TIP3    H115258   5.369   3.854   4.601  0.1684  1.2158  3.3994
 5098TIP3    H215259   5.344   3.713   4.652 -0.6383  0.0592  0.0306
 5099TIP3   OH215260   3.426   4.983   1.432  0.0603 -0.0836 -0.0108
 5099TIP3    H115261   3.354   5.045   1.416  0.9026  0.7074 -0.8696
 5099TIP3    H215262   3.499   5.039   1.459  1.0891 -0.6048 -1.6245
 5100TIP3   OH215263   6.697   1.559   1.513  0.2994 -0.2095  0.2867
 5100TIP3    H115264   6.759   1.600   1.453  0.8186  0.8614  1.4957
 5100TIP3    H215265   6.612   1.593   1.487  0.3453 -0.7827 -0.6496
 5101TIP3   OH215266   2.794   1.995   0.439  0.4254 -0.2189  0.3513
 5101TIP3    H115267   2.787   2.017   0.532 -2.2229 -0.6237  0.3216
 5101TIP3    H215268   2.799   2.080   0.395  1.5365 -0.0223  0.8198
 5102TIP3   OH215269   1.680   0.817   4.864  0.2594 -0.4244  0.2859
 5102TIP3    H115270   1.587   0.802   4.882  0.2250  0.4037  0.8207
 5102TIP3    H215271   1.716   0.729   4.855 -0.0751 -0.8705  2.6417
 5103TIP3   OH215272   4.026   1.328   5.545 -0.0267  0.0858 -0.4982
 5103TIP3    H115273   3.992   1.240   5.529  0.1816 -0.2049  0.5670
 5103TIP3    H215274   3.949   1.380   5.568  0.1733 -0.6083  2.0643
 5104TIP3   OH215275   1.339   3.552   5.308 -0.4515 -0.3078 -0.2804
 5104TIP3    H115276   1.334   3.641   5.342  1.4383 -0.1380 -0.3345
 5104TIP3    H215277   1.307   3.497   5.379 -0.8589  0.3468  0.0514
 5105TIP3   OH215278   0.286   3.579   0.933 -0.0187 -0.5583 -0.2835
 5105TIP3    H115279   0.242   3.523   0.997 -0.1932 -0.8873 -0.6832
 5105TIP3    H215280   0.231   3.572   0.854  0.5680 -0.7152 -0.6895
 5106TIP3   OH215281   1.719   0.257   3.668 -0.4454  0.2970 -0.1026
 5106TIP3    H115282   1.697   0.279   3.758  0.0344  1.0561 -0.1658
 5106TIP3    H215283   1.762   0.171   3.675 -1.2840 -0.1038  0.2697
 5107TIP3   OH215284   6.107   0.925   2.599 -0.5305  0.8488  0.4337
 5107TIP3    H115285   6.112   1.019   2.613 -0.4686  0.7542  1.0778
 5107TIP3    H215286   6.014   0.905   2.600 -0.4996  0.7367  1.4709
 5108TIP3   OH215287   5.769   4.162   3.313  0.0041 -0.2391  0.2437
 5108TIP3    H115288   5.833   4.233   3.310 -0.0778 -0.1899 -0.4350
 5108TIP3    H215289   5.700   4.195   3.371 -0.1110  0.3050 -0.1989
 5109TIP3   OH215290   6.894   1.625   4.145 -0.4613  0.1398 -0.0360
 5109TIP3    H115291   6.963   1.587   4.199 -0.7128 -0.0345  0.1678
 5109TIP3    H215292   6.938   1.654   4.065 -0.0603  0.5341  0.3248
 5110TIP3   OH215293   2.611   6.176   0.156 -0.0099 -0.4459  0.4605
 5110TIP3    H115294   2.676   6.201   0.220  0.2298 -0.2741  0.1537
 5110TIP3    H215295   2.531   6.223   0.182  0.2837  0.2107  0.2100
 5111TIP3   OH215296   4.851   5.416   2.502  0.2755  0.8204 -0.5873
 5111TIP3    H115297   4.845   5.325   2.474 -1.6223 -0.0941  2.2834
 5111TIP3    H215298   4.764   5.452   2.482  0.0890  1.1452  0.7437
 5112TIP3   OH215299   2.639   4.357   5.067 -0.2367  0.1516 -0.1033
 5112TIP3    H115300   2.590   4.384   5.145  1.4240 -0.5359  1.2191
 5112TIP3    H215301   2.718   4.411   5.069 -0.1569  0.0975 -1.3194
 5113TIP3   OH215302   6.742   3.676   1.861 -0.2007  0.3492  0.0141
 5113TIP3    H115303   6.689   3.721   1.796 -2.3915 -0.8231  0.8700
 5113TIP3    H215304   6.817   3.734   1.876 -0.6411  1.5548 -2.0679
 5114TIP3   OH215305   6.529   5.244   1.393  0.2408 -0.8260  0.0473
 5114TIP3    H115306   6.436   5.234   1.370 -0.0808  1.8766 -0.2029
 5114TIP3    H215307   6.561   5.155   1.404 -1.9911 -1.8946 -1.4227
 5115TIP3   OH215308   3.469   0.375   0.837 -0.0124  0.3324  0.0510
 5115TIP3    H115309   3.552   0.417   0.862  0.3059  0.5881 -1.3350
 5115TIP3    H215310   3.492   0.284   0.821 -0.0245  0.3711 -0.1912
 5116TIP3   OH215311   3.252   5.370   4.631 -0.2564  0.6635 -0.1278
 5116TIP3    H115312   3.297   5.379   4.547  0.6882  0.4935  0.3508
 5116TIP3    H215313   3.176   5.315   4.611  0.2258  0.2188 -0.7788
 5117TIP3   OH215314   5.305   3.189   0.107  0.1851 -0.2580  0.4399
 5117TIP3    H115315   5.354   3.181   0.025 -0.5200 -1.8082  0.1262
 5117TIP3    H215316   5.372   3.182   0.176  0.7049  0.3842  0.0132
 5118TIP3   OH215317   6.458   4.486   5.319 -0.2463  0.4903 -0.1803
 5118TIP3    H115318   6.503   4.570   5.316  1.8197 -0.5742 -0.8336
 5118TIP3    H215319   6.480   4.444   5.236  0.2351 -1.4090  0.8627
 5119TIP3   OH215320   5.411   3.765   1.067  0.4724 -0.4379 -0.0871
 5119TIP3    H115321   5.449   3.777   1.155 -0.2094 -1.0779  0.3080
 5119TIP3    H215322   5.432   3.674   1.045 -0.3799 -0.6471 -0.0738
 5120TIP3   OH215323   4.635   4.115   5.548  0.1104  0.2826 -0.1401
 5120TIP3    H115324   4.692   4.166   5.605  1.6868 -0.2671 -1.1521
 5120TIP3    H215325   4.629   4.029   5.591  1.7687 -0.3196 -1.0125
 5121TIP3   OH215326   4.754   5.457   4.399  0.2697  0.3922  0.1032
 5121TIP3    H115327   4.784   5.541   4.434 -0.1712  0.0893  1.2478
 5121TIP3    H215328   4.788   5.392   4.460 -0.3959 -0.1687 -0.1164
 5122TIP3   OH215329   6.883   3.543   4.272 -0.5467  0.0398  0.2804
 5122TIP3    H115330   6.826   3.616   4.247 -1.9899 -1.5841 -1.5008
 5122TIP3    H215331   6.858   3.523   4.363  0.1844  1.9719  0.9516
 5123TIP3   OH215332   3.511   3.087   4.429  0.3853 -0.4793 -0.1394
 5123TIP3    H115333   3.455   3.130   4.493 -0.3048 -1.1650 -0.2710
 5123TIP3    H215334   3.588   3.059   4.479  1.2358  1.5626 -0.1935
 5124TIP3   OH215335   4.161   1.185   2.403  0.0737 -0.1023  1.1302
 5124TIP3    H115336   4.161   1.266   2.453 -1.2184 -0.5711  1.9500
 5124TIP3    H215337   4.085   1.137   2.436  1.1379 -1.9029  1.0740
 5125TIP3   OH215338   2.559   0.841   3.188  0.0709  0.0189 -0.2742
 5125TIP3    H115339   2.553   0.891   3.269 -1.3673  1.2623 -1.1124
 5125TIP3    H215340   2.473   0.801   3.178  0.7163 -1.3942 -0.4284
 5126TIP3   OH215341   3.443   6.170   1.482 -0.5056 -0.2039 -0.5606
 5126TIP3    H115342   3.537   6.161   1.466 -0.5720 -0.9250 -0.5396
 5126TIP3    H215343   3.425   6.263   1.466 -0.1197 -0.3871 -2.2782
 5127TIP3   OH215344   5.771   2.783   1.781 -0.1308  0.4296 -0.2428
 5127TIP3    H115345   5.857   2.747   1.802 -0.2251  1.2644  1.7626
 5127TIP3    H215346   5.776   2.875   1.809 -1.2050  0.9069 -1.5020
 5128TIP3   OH215347   1.533   4.537   3.566 -0.7352  0.4416  0.1775
 5128TIP3    H115348   1.542   4.469   3.633 -0.7687  1.9139  1.7133
 5128TIP3    H215349   1.510   4.488   3.486 -1.6059 -1.2752  1.4182
 5129TIP3   OH215350   6.707   0.533   2.857 -0.6601 -0.6297  0.0293
 5129TIP3    H115351   6.640   0.600   2.843 -1.6914 -1.6596 -0.1327
 5129TIP3    H215352   6.659   0.458   2.891  0.3612 -1.5161 -0.4201
 5130TIP3   OH215353   0.581   3.732   4.849  0.2249  0.1019 -0.2988
 5130TIP3    H115354   0.614   3.665   4.909  1.6456  0.1420 -0.9875
 5130TIP3    H215355   0.621   3.710   4.765  2.7510  3.1463 -0.0739
 5131TIP3   OH215356   4.269   0.807   2.263  0.2992  0.6657  0.2067
 5131TIP3    H115357   4.260   0.763   2.178 -1.2615  1.5333 -0.1276
 5131TIP3    H215358   4.186   0.789   2.307  1.4377 -0.5253  1.9536
 5132TIP3   OH215359   0.528   4.348   4.327  0.5128 -0.2651  0.1808
 5132TIP3    H115360   0.598   4.285   4.346  0.9871  0.0151 -0.5759
 5132TIP3    H215361   0.565   4.433   4.352 -0.9532 -0.4348  3.4450
 5133TIP3   OH215362   5.981   4.036   0.623 -0.2814 -0.0876  0.1201
 5133TIP3    H115363   6.037   4.081   0.686 -1.0600 -0.2439  0.9483
 5133TIP3    H215364   6.008   4.070   0.538  1.8741 -1.0231  0.3697
 5134TIP3   OH215365   2.129   6.803   2.510 -0.7247 -0.1516 -0.2908
 5134TIP3    H115366   2.199   6.817   2.445 -1.7808 -3.1439 -2.2847
 5134TIP3    H215367   2.155   6.723   2.556 -1.0742  0.7507  1.5629
 5135TIP3   OH215368   2.290   0.861   4.055 -0.4751 -0.7207 -0.0217
 5135TIP3    H115369   2.312   0.812   3.975 -1.8963  0.8027 -1.4288
 5135TIP3    H215370   2.337   0.944   4.045  0.8152 -1.1954  1.6751
 5136TIP3   OH215371   4.259   6.491   4.143  0.1036 -0.1538 -0.2186
 5136TIP3    H115372   4.247   6.399   4.119 -1.1810 -0.3290  0.9857
 5136TIP3    H215373   4.323   6.488   4.215  1.3112  0.0638 -1.2534
 5137TIP3   OH215374   2.374   6.038   1.029  0.1589 -0.2519 -0.4152
 5137TIP3    H115375   2.347   5.959   0.983 -0.6299 -0.2095 -0.0354
 5137TIP3    H215376   2.433   6.082   0.968  0.4746 -1.0399 -0.7001
 5138TIP3   OH215377   2.188   5.038   4.697 -0.3122  0.1393  0.2009
 5138TIP3    H115378   2.175   5.111   4.757  1.2506  0.0805  0.6403
 5138TIP3    H215379   2.182   5.077   4.610  0.6447  0.8370  0.4312
 5139TIP3   OH215380   0.105   5.004   3.167  0.2646 -0.8626  0.6033
 5139TIP3    H115381   0.094   4.949   3.090 -2.2371 -0.7433  0.7626
 5139TIP3    H215382   0.108   5.094   3.133 -3.8312 -0.5267  0.5950
 5140TIP3   OH215383   3.615   2.393   1.059 -0.4806  0.5236  0.2033
 5140TIP3    H115384   3.675   2.330   1.020 -2.6750  0.8091 -4.2419
 5140TIP3    H215385   3.540   2.340   1.088 -0.0448  0.6199  1.5723
 5141TIP3   OH215386   3.382   2.668   5.028 -0.1560 -0.1358 -0.3906
 5141TIP3    H115387   3.384   2.701   5.118  1.4905  0.3353 -0.5600
 5141TIP3    H215388   3.315   2.721   4.984 -1.3480 -0.7197  0.6510
 5142TIP3   OH215389   3.186   1.726   0.704  0.3319 -0.2717 -0.3438
 5142TIP3    H115390   3.108   1.769   0.667 -1.4877 -2.1726  1.0095
 5142TIP3    H215391   3.252   1.732   0.636 -1.3705  0.4422 -2.0238
 5143TIP3   OH215392   6.420   2.576   2.329 -0.3377  0.1855 -0.4928
 5143TIP3    H115393   6.500   2.563   2.278  0.9520  0.2179  1.4148
 5143TIP3    H215394   6.388   2.662   2.302 -1.0342 -0.7503 -2.8921
 5144TIP3   OH215395   2.406   4.745   2.156 -0.0003  0.3417  0.1055
 5144TIP3    H115396   2.458   4.825   2.158  0.0378  0.3228 -0.1322
 5144TIP3    H215397   2.320   4.773   2.190  0.4730  0.1349  1.5460
 5145TIP3   OH215398   1.458   0.656   3.119 -0.4336  0.3021  0.2673
 5145TIP3    H115399   1.420   0.733   3.161 -0.6024  0.1630  0.3739
 5145TIP3    H215400   1.538   0.687   3.078 -0.4923  0.5298  0.3269
 5146TIP3   OH215401   0.631   4.177   4.717 -0.1856  0.0258 -0.1741
 5146TIP3    H115402   0.683   4.127   4.779 -0.1298 -0.4762 -0.6219
 5146TIP3    H215403   0.688   4.248   4.689 -0.4666  0.7024  0.9071
 5147TIP3   OH215404   0.022   1.474   0.583 -0.7733  0.0101  0.3260
 5147TIP3    H115405   0.060   1.443   0.665 -0.9364  0.8081  0.7175
 5147TIP3    H215406   0.067   1.425   0.515  1.0900  1.0218  0.7650
 5148TIP3   OH215407   5.097   5.442   5.770  0.6175 -0.0049 -0.2196
 5148TIP3    H115408   5.072   5.368   5.714  0.7570  0.2768 -0.6651
 5148TIP3    H215409   5.150   5.497   5.713 -1.1110  1.4556 -0.5310
 5149TIP3   OH215410   1.450   0.966   5.262  0.3971  0.1449  0.3970
 5149TIP3    H115411   1.409   1.032   5.318  0.4137 -0.5389  1.2397
 5149TIP3    H215412   1.438   0.883   5.310  2.0843 -0.1866  0.3169
 5150TIP3   OH215413   6.250   4.852   2.329 -0.5323 -0.2028 -0.4358
 5150TIP3    H115414   6.156   4.837   2.336 -0.6616  0.6571 -0.1788
 5150TIP3    H215415   6.277   4.875   2.418  0.2742 -2.2769 -0.1018
 5151TIP3   OH215416   1.968   1.292   5.304 -0.1220  0.3714 -0.6113
 5151TIP3    H115417   1.934   1.355   5.241 -0.6691  1.4669  0.7384
 5151TIP3    H215418   1.927   1.315   5.387  1.4870 -0.2521  0.4237
 5152TIP3   OH215419   1.406   1.226   2.878 -0.2034  0.3153  0.5698
 5152TIP3    H115420   1.439   1.163   2.941  3.3885  1.7903  0.3665
 5152TIP3    H215421   1.427   1.189   2.792 -0.0716  0.7802  0.3951
 5153TIP3   OH215422   5.822   5.923   4.503 -0.3037 -0.3853  0.3934
 5153TIP3    H115423   5.820   5.947   4.411  2.1452  0.8226  0.5879
 5153TIP3    H215424   5.796   6.002   4.550 -2.7592 -1.3199  0.8136
 5154TIP3   OH215425   3.585   3.733   4.326  0.1840 -0.4123 -0.2073
 5154TIP3    H115426   3.665   3.682   4.343  0.6421  0.3293 -0.0811
 5154TIP3    H215427   3.577   3.790   4.403 -0.2505 -0.2049 -0.4088
 5155TIP3   OH215428   0.559   5.580   5.032  0.6696 -0.3314 -0.0752
 5155TIP3    H115429   0.595   5.578   4.944  0.3028  1.1382 -0.2768
 5155TIP3    H215430   0.468   5.552   5.021  0.6110 -0.1039 -0.1688
 5156TIP3   OH215431   2.490   0.227   2.697  0.4088  0.9019 -0.4229
 5156TIP3    H115432   2.540   0.178   2.762  0.9600  0.7357 -0.9544
 5156TIP3    H215433   2.458   0.303   2.744  1.1240  0.9847 -0.0474
 5157TIP3   OH215434   4.590   0.881   2.374  0.0952  0.4399  0.4648
 5157TIP3    H115435   4.600   0.891   2.279 -0.7197  1.1480  0.4432
 5157TIP3    H215436   4.588   0.970   2.407  2.8912  0.2506  1.4692
 5158TIP3   OH215437   1.432   0.096   4.716  0.5646 -0.2844 -0.3787
 5158TIP3    H115438   1.513   0.045   4.716 -0.7796 -2.5758 -0.7251
 5158TIP3    H215439   1.399   0.089   4.806 -0.5106 -1.6154 -0.8412
 5159TIP3   OH215440   1.776   3.737   4.498 -0.7175 -0.1711  0.2174
 5159TIP3    H115441   1.757   3.749   4.405  2.6153 -2.6603 -1.0216
 5159TIP3    H215442   1.803   3.645   4.505  0.8135  0.3784  3.2975
 5160TIP3   OH215443   4.222   6.680   3.007 -0.5332  0.4339 -0.1340
 5160TIP3    H115444   4.189   6.765   3.037 -0.2571  0.7715 -0.7680
 5160TIP3    H215445   4.311   6.675   3.044 -0.6711  0.2742  0.1765
 5161TIP3   OH215446   6.308   5.428   0.655  0.3012  0.4911  0.2952
 5161TIP3    H115447   6.319   5.364   0.584  2.0072  0.4317  0.5832
 5161TIP3    H215448   6.394   5.468   0.665 -0.2884  1.5407  1.3678
 5162TIP3   OH215449   5.964   0.197   2.856 -0.2756  0.2031 -0.5368
 5162TIP3    H115450   5.904   0.157   2.793 -0.5339  1.2870 -1.0019
 5162TIP3    H215451   6.031   0.238   2.803  1.1500 -1.3152 -0.0129
 5163TIP3   OH215452   2.317   0.655   5.855 -0.1288  0.3044 -0.3960
 5163TIP3    H115453   2.325   0.593   5.782  0.1784  1.3541 -1.2658
 5163TIP3    H215454   2.224   0.649   5.881 -0.0251 -0.7919 -0.1963
 5164TIP3   OH215455   6.355   0.881   5.307  0.1568 -0.4609  0.4561
 5164TIP3    H115456   6.269   0.890   5.347 -0.0130  0.9559 -0.1777
 5164TIP3    H215457   6.360   0.788   5.282 -0.5461 -0.9037  1.8712
 5165TIP3   OH215458   0.808   4.435   3.538  0.5986  0.2620  0.5059
 5165TIP3    H115459   0.720   4.471   3.524 -0.8137 -2.5376  1.5764
 5165TIP3    H215460   0.820   4.373   3.467  1.4102  0.0639  0.8069
 5166TIP3   OH215461   3.865   1.383   3.387  0.1140 -0.3364  0.0798
 5166TIP3    H115462   3.917   1.345   3.315  1.4355  1.1025  0.2226
 5166TIP3    H215463   3.925   1.445   3.430 -0.4987 -1.4151  2.6852
 5167TIP3   OH215464   4.156   6.405   2.912 -0.0716  0.0039  0.0023
 5167TIP3    H115465   4.202   6.478   2.953 -0.3720  0.5816 -0.6521
 5167TIP3    H215466   4.104   6.366   2.982 -1.1776  1.4529  0.0253
 5168TIP3   OH215467   1.014   1.118   5.335  0.0626 -0.3055 -0.1914
 5168TIP3    H115468   1.075   1.177   5.291  0.3848 -0.1788  0.4222
 5168TIP3    H215469   1.049   1.108   5.423 -0.9224 -0.0457  0.2441
 5169TIP3   OH215470   0.592   2.386   1.546  0.0752  0.0892  0.4993
 5169TIP3    H115471   0.536   2.356   1.474  0.4310  0.5306  0.0332
 5169TIP3    H215472   0.541   2.367   1.625 -0.8486  0.7072  0.0711
 5170TIP3   OH215473   1.369   4.952   5.663  0.5202 -0.1259  0.1313
 5170TIP3    H115474   1.339   4.993   5.583 -0.7654  1.9359  1.5745
 5170TIP3    H215475   1.464   4.966   5.663  0.2496  1.9441  0.0451
 5171TIP3   OH215476   4.160   0.603   2.621 -0.1214  0.1441 -0.0353
 5171TIP3    H115477   4.222   0.558   2.678 -0.0008 -2.0934 -1.7791
 5171TIP3    H215478   4.085   0.543   2.614 -0.3634  0.5780 -1.7533
 5172TIP3   OH215479   5.415   4.148   2.815  0.3932 -0.0101 -0.6833
 5172TIP3    H115480   5.417   4.242   2.831  0.8067  0.3709 -2.6422
 5172TIP3    H215481   5.427   4.108   2.901  3.4845  1.7678 -0.1434
 5173TIP3   OH215482   1.493   1.495   5.429 -0.5494 -0.4506 -0.3618
 5173TIP3    H115483   1.408   1.472   5.468 -0.9069  0.4041 -0.6118
 5173TIP3    H215484   1.549   1.515   5.504 -0.3235 -1.7327 -0.1510
 5174TIP3   OH215485   2.315   4.288   0.380  0.2642 -0.4729 -0.1440
 5174TIP3    H115486   2.224   4.259   0.371  0.7258 -2.0206  0.0242
 5174TIP3    H215487   2.336   4.274   0.472  1.6255 -3.1718 -0.7668
 5175TIP3   OH215488   1.393   4.425   0.608  0.1260 -0.2827  0.1118
 5175TIP3    H115489   1.439   4.367   0.548  0.0102  2.9083 -3.4051
 5175TIP3    H215490   1.391   4.509   0.564 -2.6004  1.6465  3.4006
 5176TIP3   OH215491   3.130   5.470   0.725  0.5131  0.5165  0.1650
 5176TIP3    H115492   3.125   5.404   0.794  0.5225  0.2422 -0.0934
 5176TIP3    H215493   3.204   5.525   0.750 -0.9951  1.9588  1.7020
 5177TIP3   OH215494   0.560   6.554   3.294  0.7006  0.2259 -0.0713
 5177TIP3    H115495   0.603   6.548   3.380 -0.4576 -0.9511  0.4754
 5177TIP3    H215496   0.614   6.499   3.237 -0.5681 -2.1856  0.8788
 5178TIP3   OH215497   1.031   4.232   2.163  0.1783  0.4800  0.2076
 5178TIP3    H115498   1.122   4.260   2.157 -0.0215  0.8895 -1.5082
 5178TIP3    H215499   0.983   4.294   2.109 -1.0617 -0.0186  0.6858
 5179TIP3   OH215500   2.457   4.752   4.793  0.3062 -0.3671 -0.4557
 5179TIP3    H115501   2.484   4.672   4.836 -0.9917 -1.5262 -1.6980
 5179TIP3    H215502   2.384   4.785   4.846 -0.8559 -1.4373 -1.3202
 5180TIP3   OH215503   1.682   5.523   3.512 -0.1939 -0.2249 -0.4256
 5180TIP3    H115504   1.686   5.429   3.529 -0.9158 -0.2206 -0.2056
 5180TIP3    H215505   1.732   5.562   3.584  2.4503 -0.5506 -1.9523
 5181TIP3   OH215506   2.798   4.477   5.347  0.2073 -0.2876 -0.0182
 5181TIP3    H115507   2.709   4.488   5.313  0.1568  1.1726  0.5509
 5181TIP3    H215508   2.826   4.565   5.371  1.9294 -0.6846 -0.4598
 5182TIP3   OH215509   5.031   0.696   0.582 -0.0620 -0.9694  0.1340
 5182TIP3    H115510   5.070   0.677   0.496  1.3712  0.2479  0.4687
 5182TIP3    H215511   4.974   0.771   0.566 -2.3460 -2.6629 -0.3258
 5183TIP3   OH215512   5.237   1.760   2.534  0.5709  0.6019 -0.4056
 5183TIP3    H115513   5.147   1.753   2.565  1.2661 -0.3763  1.6290
 5183TIP3    H215514   5.237   1.721   2.447 -1.0509  1.1269 -0.6657
 5184TIP3   OH215515   4.544   4.033   4.561 -0.7349 -0.3853  0.1174
 5184TIP3    H115516   4.521   3.999   4.474 -0.3088 -1.9975  0.5987
 5184TIP3    H215517   4.470   4.089   4.585  0.2322  2.1596 -2.2946
 5185TIP3   OH215518   4.399   1.175   4.358 -0.4034  0.1939 -0.3924
 5185TIP3    H115519   4.474   1.119   4.378 -0.3137  0.8599  1.2680
 5185TIP3    H215520   4.356   1.189   4.442 -2.5534 -0.3391 -1.3182
 5186TIP3   OH215521   5.485   6.195   0.826  0.0826  0.1609 -0.4821
 5186TIP3    H115522   5.552   6.147   0.874  0.6325  1.6245  0.2762
 5186TIP3    H215523   5.446   6.130   0.767  0.7816 -1.1924  0.4982
 5187TIP3   OH215524   6.252   6.581   0.328  0.6369 -0.6944  0.4316
 5187TIP3    H115525   6.159   6.570   0.308  0.1777  2.4519  0.3216
 5187TIP3    H215526   6.295   6.509   0.283 -1.2671  0.5953 -3.9785
 5188TIP3   OH215527   5.699   0.094   0.160 -0.1478 -0.3199  0.1397
 5188TIP3    H115528   5.699   0.016   0.105  2.7934 -0.6849  0.4646
 5188TIP3    H215529   5.708   0.061   0.249 -1.9451  0.3560  0.6195
 5189TIP3   OH215530   6.672   5.772   3.201  0.1242  0.1610  0.0291
 5189TIP3    H115531   6.647   5.819   3.281 -0.7716  0.5049 -0.4365
 5189TIP3    H215532   6.589   5.758   3.154  0.5978 -0.3017 -0.6923
 5190TIP3   OH215533   5.597   1.513   0.711  0.4201 -0.2135  0.2915
 5190TIP3    H115534   5.533   1.576   0.744 -2.0764 -2.0767 -0.6570
 5190TIP3    H215535   5.640   1.480   0.789  1.6733  2.4296  0.8263
 5191TIP3   OH215536   6.417   4.082   0.620 -0.1081 -0.4577  0.9788
 5191TIP3    H115537   6.365   4.130   0.556  0.5918 -0.6090  0.2794
 5191TIP3    H215538   6.442   4.147   0.685  2.1641  0.5689 -0.7808
 5192TIP3   OH215539   1.113   2.654   0.886 -0.0940  0.1393 -0.1651
 5192TIP3    H115540   1.107   2.742   0.922  0.8464 -0.2498  1.0109
 5192TIP3    H215541   1.179   2.661   0.817  1.1481  0.0630  0.9749
 5193TIP3   OH215542   2.628   6.463   5.825 -0.0366  0.1519 -0.2060
 5193TIP3    H115543   2.614   6.514   5.745 -3.4142  0.3761  0.3557
 5193TIP3    H215544   2.652   6.528   5.891  1.7668  0.1011 -0.7711
 5194TIP3   OH215545   4.072   2.441   3.622 -0.4747  0.2220  0.3004
 5194TIP3    H115546   4.068   2.359   3.572 -1.4053  0.5499 -0.1934
 5194TIP3    H215547   4.130   2.498   3.571 -0.3995  0.1168  0.2695
 5195TIP3   OH215548   4.414   2.471   0.415  0.4436  0.0611  0.0453
 5195TIP3    H115549   4.454   2.557   0.410  1.7858 -0.5955 -1.2425
 5195TIP3    H215550   4.390   2.449   0.325  0.6120 -1.1236  0.2692
 5196TIP3   OH215551   0.379   5.699   4.740 -0.0803 -0.0473  0.4832
 5196TIP3    H115552   0.331   5.630   4.786 -0.6780  0.8658  1.2656
 5196TIP3    H215553   0.469   5.667   4.737 -0.4123 -1.0371  0.4576
 5197TIP3   OH215554   0.837   3.613   1.756  0.0842 -0.3019  0.7592
 5197TIP3    H115555   0.892   3.535   1.766 -0.2080 -0.6968 -0.6063
 5197TIP3    H215556   0.781   3.612   1.834 -0.6210 -2.0348  0.2725
 5198TIP3   OH215557   1.450   6.391   2.770  0.1678 -0.1449 -0.3990
 5198TIP3    H115558   1.535   6.348   2.785  0.3914 -0.0598 -1.3242
 5198TIP3    H215559   1.472   6.480   2.745 -0.3116  0.6138  1.7587
 5199TIP3   OH215560   5.430   2.609   5.879  0.1864 -0.4327  0.5957
 5199TIP3    H115561   5.518   2.572   5.886  0.1887 -0.8414 -1.0594
 5199TIP3    H215562   5.437   2.672   5.807 -0.5346  0.6310  1.4326
 5200TIP3   OH215563   5.374   6.744   5.850  0.1369 -0.7630  0.4676
 5200TIP3    H115564   5.292   6.793   5.843  1.1279  0.6531 -2.3551
 5200TIP3    H215565   5.437   6.807   5.885  0.5996 -1.1168  0.2760
 5201TIP3   OH215566   6.168   4.228   0.693 -0.1502  0.2882 -0.1307
 5201TIP3    H115567   6.215   4.239   0.610  1.2806 -0.2943  0.5626
 5201TIP3    H215568   6.230   4.259   0.759 -1.1495  0.4474  0.7609
 5202TIP3   OH215569   1.240   2.645   4.184  0.2555 -0.1989 -0.2178
 5202TIP3    H115570   1.298   2.656   4.108 -2.2714 -1.7617 -2.5681
 5202TIP3    H215571   1.269   2.563   4.224  0.3105 -0.4715 -0.7950
 5203TIP3   OH215572   4.399   2.456   3.838  0.0096  0.2329  0.7612
 5203TIP3    H115573   4.394   2.363   3.815 -0.0898 -0.0435  1.8180
 5203TIP3    H215574   4.350   2.501   3.769  1.4514 -0.3148 -0.6786
 5204TIP3   OH215575   4.895   4.022   1.416  0.3819  0.0843 -0.1506
 5204TIP3    H115576   4.945   4.097   1.447  2.7811 -0.2433 -2.8418
 5204TIP3    H215577   4.930   4.003   1.329 -3.0964 -1.5008 -1.4247
 5205TIP3   OH215578   2.670   3.773   5.410  0.2656 -0.0104 -0.2762
 5205TIP3    H115579   2.647   3.747   5.320 -1.0095 -0.4896  0.1647
 5205TIP3    H215580   2.756   3.733   5.425  0.4895  0.0585 -1.2691
 5206TIP3   OH215581   6.052   5.989   1.456  0.0886 -0.2593  0.2574
 5206TIP3    H115582   6.095   5.974   1.540  0.4182 -0.8686 -0.0092
 5206TIP3    H215583   6.073   6.079   1.432 -0.3281  0.0421  1.0073
 5207TIP3   OH215584   2.200   5.860   2.622 -0.0728  0.4200  0.1530
 5207TIP3    H115585   2.119   5.835   2.667  0.6004 -1.3615  0.4648
 5207TIP3    H215586   2.259   5.787   2.637  0.2619 -0.2555 -3.5401
 5208TIP3   OH215587   2.538   0.681   1.386  0.1962  0.1269  0.0851
 5208TIP3    H115588   2.466   0.724   1.432  0.3094  1.1620 -0.6910
 5208TIP3    H215589   2.514   0.684   1.294  1.4197  0.8834 -0.2363
 5209TIP3   OH215590   0.227   5.112   0.150  0.7126 -0.2432  0.5776
 5209TIP3    H115591   0.313   5.121   0.191  0.8961  0.0884  0.1354
 5209TIP3    H215592   0.213   5.196   0.106  0.5036 -0.5727  0.0071
 5210TIP3   OH215593   1.153   3.567   0.762  0.3853 -0.0443 -0.3362
 5210TIP3    H115594   1.082   3.565   0.698  0.8206 -0.5513 -0.8103
 5210TIP3    H215595   1.231   3.588   0.711  0.5436  0.7545  0.2173
 5211TIP3   OH215596   4.260   2.755   0.511 -0.0602  0.1144  0.7982
 5211TIP3    H115597   4.264   2.704   0.592 -1.7059  1.2561  1.6293
 5211TIP3    H215598   4.168   2.753   0.485  0.3164  0.3751 -0.6837
 5212TIP3   OH215599   0.590   3.626   0.997  0.4081  0.0873  0.4805
 5212TIP3    H115600   0.503   3.587   1.005  0.3829  0.5111  2.7372
 5212TIP3    H215601   0.611   3.616   0.904 -2.4356  0.8759 -0.3467
 5213TIP3   OH215602   3.744   0.240   2.394 -0.3599 -0.2946 -0.4862
 5213TIP3    H115603   3.823   0.228   2.341 -0.1111 -0.2817 -0.1185
 5213TIP3    H215604   3.768   0.210   2.481 -0.3250  0.9914 -0.0237
 5214TIP3   OH215605   5.802   1.091   5.714 -0.1961  0.1032 -0.2221
 5214TIP3    H115606   5.855   1.043   5.651 -0.5468 -1.1759  0.4186
 5214TIP3    H215607   5.819   1.047   5.798 -0.9394  0.7691  0.2911
 5215TIP3   OH215608   4.755   5.432   3.524 -0.1046 -0.2479 -0.3006
 5215TIP3    H115609   4.684   5.399   3.470  1.0972 -0.8064 -1.6024
 5215TIP3    H215610   4.727   5.416   3.614 -1.7252 -0.1800 -0.7690
 5216TIP3   OH215611   4.996   4.564   3.014 -0.3161 -0.0344  0.4658
 5216TIP3    H115612   5.088   4.542   3.030 -0.1238  1.0888  1.0744
 5216TIP3    H215613   4.947   4.493   3.054  0.2741 -1.9903 -2.0807
 5217TIP3   OH215614   0.905   1.007   1.722 -0.7778  0.0400 -0.6972
 5217TIP3    H115615   0.878   0.915   1.719 -1.2816  0.1272 -4.8545
 5217TIP3    H215616   0.822   1.056   1.721 -0.4961  0.5467  0.0764
 5218TIP3   OH215617   7.019   0.443   0.888 -0.6296 -0.2232 -0.2229
 5218TIP3    H115618   6.944   0.489   0.926 -1.0064 -0.0976 -1.0909
 5218TIP3    H215619   7.082   0.436   0.960 -1.1653  0.3422  0.3131
 5219TIP3   OH215620   3.042   6.677   4.272 -0.0252 -0.3063  0.0919
 5219TIP3    H115621   3.019   6.770   4.267  0.3607 -0.2107  0.0831
 5219TIP3    H215622   3.059   6.653   4.181  1.2059 -0.0453  0.2471
 5220TIP3   OH215623   6.266   5.577   4.066 -0.4349  0.1959  0.7608
 5220TIP3    H115624   6.229   5.622   3.990 -1.4813 -1.3397  0.3104
 5220TIP3    H215625   6.354   5.550   4.038 -0.7039 -0.1008  0.1886
 5221TIP3   OH215626   6.531   5.921   0.814 -0.0083  0.3863 -0.1664
 5221TIP3    H115627   6.623   5.900   0.796  0.2845 -0.0911  1.6969
 5221TIP3    H215628   6.491   5.836   0.833 -1.2114  0.4016 -2.3160
 5222TIP3   OH215629   6.533   0.565   3.731 -0.1307  0.2238  0.2776
 5222TIP3    H115630   6.608   0.622   3.717  0.8530 -0.9199  0.7279
 5222TIP3    H215631   6.459   0.613   3.693  0.2626  2.6830  2.3411
 5223TIP3   OH215632   1.538   0.737   3.978  0.2522  0.4727 -0.2760
 5223TIP3    H115633   1.614   0.720   4.034 -0.3402  1.3656  0.8278
 5223TIP3    H215634   1.546   0.829   3.954  0.0766  0.2989 -1.0274
 5224TIP3   OH215635   2.397   1.026   2.936  0.2857 -0.1655 -0.3687
 5224TIP3    H115636   2.388   1.109   2.983 -0.3298  2.6254 -4.8643
 5224TIP3    H215637   2.491   1.007   2.940  0.6222  1.4117 -0.2025
 5225TIP3   OH215638   1.137   6.663   4.078 -0.4151  0.0792  0.2323
 5225TIP3    H115639   1.200   6.680   4.008  0.5618  0.6356  1.2041
 5225TIP3    H215640   1.190   6.662   4.158 -1.3870 -1.2847  0.8984
 5226TIP3   OH215641   2.833   0.796   3.148  0.1754 -0.1371 -0.1251
 5226TIP3    H115642   2.745   0.773   3.179 -1.2749  3.9342 -0.5368
 5226TIP3    H215643   2.887   0.796   3.227 -1.2492  1.1119  0.9274
 5227TIP3   OH215644   1.438   3.991   1.732  0.0873 -0.3885  0.0923
 5227TIP3    H115645   1.414   4.035   1.814 -2.5729 -0.8979 -0.3355
 5227TIP3    H215646   1.429   4.058   1.665  1.4049 -0.2098  0.0623
 5228TIP3   OH215647   4.379   4.178   5.663 -0.4240  0.7773 -0.7211
 5228TIP3    H115648   4.354   4.270   5.663 -0.0051  0.9420 -3.1705
 5228TIP3    H215649   4.466   4.176   5.625 -0.5138 -0.6573 -0.9216
 5229TIP3   OH215650   6.459   1.972   3.173 -0.3787  0.3816 -0.2342
 5229TIP3    H115651   6.414   2.055   3.185  2.1658  1.7721  0.4421
 5229TIP3    H215652   6.456   1.930   3.259  0.0339  0.7144 -0.0540
 5230TIP3   OH215653   0.405   1.565   3.492  0.0439  0.6741  0.0512
 5230TIP3    H115654   0.422   1.650   3.452  0.7666  0.5694  0.1384
 5230TIP3    H215655   0.491   1.528   3.511 -0.0300 -1.6755 -3.2528
 5231TIP3   OH215656   6.071   6.488   3.470  0.0355 -0.5110  0.1187
 5231TIP3    H115657   6.146   6.452   3.422 -1.0705 -0.8106 -1.4654
 5231TIP3    H215658   6.025   6.411   3.505 -0.7573 -0.4916 -0.8412
 5232TIP3   OH215659   4.845   0.911   0.575  0.1611 -0.0812 -0.4217
 5232TIP3    H115660   4.754   0.907   0.546 -0.0446 -1.1159  0.3273
 5232TIP3    H215661   4.888   0.967   0.510 -1.4486  2.3393  0.4495
 5233TIP3   OH215662   4.802   2.612   5.033 -0.1189 -0.0545  0.0072
 5233TIP3    H115663   4.874   2.667   5.066  0.0518 -0.4899  0.3799
 5233TIP3    H215664   4.811   2.615   4.938  0.5633 -0.3125  0.0526
 5234TIP3   OH215665   7.095   6.498   3.761 -0.3477 -0.3181 -0.2382
 5234TIP3    H115666   7.159   6.559   3.726  1.2875 -2.1540 -0.5983
 5234TIP3    H215667   7.047   6.467   3.684 -2.3866  1.7122  0.1118
 5235TIP3   OH215668   1.816   4.655   3.580  0.0614 -0.5281  0.0305
 5235TIP3    H115669   1.757   4.725   3.551  0.0246 -0.5546  0.0403
 5235TIP3    H215670   1.794   4.581   3.523 -0.7598 -0.9140  0.8237
 5236TIP3   OH215671   4.708   5.800   2.334  0.5556  0.8147  0.0629
 5236TIP3    H115672   4.643   5.732   2.316  2.3893 -1.3332  1.1749
 5236TIP3    H215673   4.670   5.879   2.295 -2.1943 -0.5440 -0.2891
 5237TIP3   OH215674   4.746   1.076   4.875  0.0357  0.0493 -0.1914
 5237TIP3    H115675   4.660   1.035   4.867  0.3949 -0.5768 -0.9482
 5237TIP3    H215676   4.729   1.170   4.866 -0.7278  0.0436  1.0140
 5238TIP3   OH215677   2.427   5.213   5.461 -0.2752  0.5378 -0.0395
 5238TIP3    H115678   2.362   5.238   5.526  0.7251  2.9720  0.1222
 5238TIP3    H215679   2.453   5.295   5.419  0.1834 -0.7706 -2.5336
 5239TIP3   OH215680   1.837   3.348   0.955 -0.5042  0.2017  0.6605
 5239TIP3    H115681   1.873   3.261   0.940  0.1600  0.5259  0.2967
 5239TIP3    H215682   1.875   3.376   1.038 -0.8290  0.0936  0.8483
 5240TIP3   OH215683   0.874   6.535   4.704 -0.0127 -0.1083 -0.4752
 5240TIP3    H115684   0.906   6.467   4.643  0.5976  0.0045 -0.2864
 5240TIP3    H215685   0.916   6.615   4.674  0.5179 -0.1022  0.2674
 5241TIP3   OH215686   6.192   3.157   2.878 -0.1275 -0.5943 -0.4063
 5241TIP3    H115687   6.125   3.138   2.943 -0.4687 -0.8229 -0.8216
 5241TIP3    H215688   6.158   3.120   2.797  0.2570 -0.2371 -0.7334
 5242TIP3   OH215689   6.120   6.400   1.303 -0.0713 -0.0082 -0.1632
 5242TIP3    H115690   6.186   6.450   1.351  0.3406 -1.3539  0.7297
 5242TIP3    H215691   6.065   6.362   1.371 -0.7441 -0.2697 -0.8491
 5243TIP3   OH215692   1.438   0.308   2.354  0.0500 -0.2392 -0.3216
 5243TIP3    H115693   1.370   0.250   2.320  0.8298 -0.4856 -1.5465
 5243TIP3    H215694   1.390   0.381   2.393 -1.0258 -2.3579  2.7250
 5244TIP3   OH215695   1.434   5.679   4.106 -0.7269 -0.4508  0.0484
 5244TIP3    H115696   1.503   5.661   4.042  1.8377  1.4731  2.1018
 5244TIP3    H215697   1.369   5.729   4.057  1.2016  1.0530 -1.1112
 5245TIP3   OH215698   3.822   6.719   1.960  0.4998 -0.2508 -0.0726
 5245TIP3    H115699   3.778   6.752   1.882 -0.3734  0.6469  0.7694
 5245TIP3    H215700   3.768   6.646   1.989 -0.3274  0.6845  0.8107
 5246TIP3   OH215701   0.875   4.082   3.550 -0.0926  0.1468  0.5576
 5246TIP3    H115702   0.814   4.010   3.533 -0.5868  0.8762 -0.9042
 5246TIP3    H215703   0.957   4.038   3.573 -0.5576 -0.8867  0.3185
 5247TIP3   OH215704   3.690   6.695   0.945  0.0829 -0.1573  0.7016
 5247TIP3    H115705   3.768   6.658   0.905 -0.5517 -0.6275 -0.1064
 5247TIP3    H215706   3.656   6.756   0.880 -0.3844 -0.1657  0.9336
 5248TIP3   OH215707   6.518   3.522   4.717 -0.3948  0.1025 -0.4509
 5248TIP3    H115708   6.491   3.430   4.718 -0.2824  0.0127 -2.1676
 5248TIP3    H215709   6.447   3.567   4.670  0.0078  0.7232 -0.4798
 5249TIP3   OH215710   0.375   3.408   5.461  0.2413  0.3590 -0.3207
 5249TIP3    H115711   0.440   3.418   5.531 -0.2159  0.4024  0.1003
 5249TIP3    H215712   0.391   3.483   5.403 -0.0235  0.8837  0.2684
 5250TIP3   OH215713   6.132   3.546   5.664 -0.5585 -0.4253 -0.6151
 5250TIP3    H115714   6.168   3.585   5.744 -0.0666  1.2374 -1.5838
 5250TIP3    H215715   6.037   3.555   5.674 -0.4673  2.5259 -1.4107
 5251TIP3   OH215716   6.438   1.916   4.651  0.4023  0.0473  0.0730
 5251TIP3    H115717   6.407   2.007   4.656  2.8006  1.1608 -2.3808
 5251TIP3    H215718   6.390   1.879   4.576  0.8891 -0.0268 -0.2059
 5252TIP3   OH215719   2.387   4.851   1.291 -0.6450 -0.3032 -0.3944
 5252TIP3    H115720   2.408   4.785   1.358 -0.2447  0.6427  0.4471
 5252TIP3    H215721   2.297   4.833   1.266 -1.4914  0.4929  1.8403
 5253TIP3   OH215722   5.316   4.040   3.577 -0.6905  0.9232 -0.0222
 5253TIP3    H115723   5.364   4.013   3.655 -1.9234 -0.6415  0.2583
 5253TIP3    H215724   5.368   4.110   3.539  1.3998 -0.1699  0.6810
 5254TIP3   OH215725   1.060   2.051   2.588  0.1575  0.3766  0.1080
 5254TIP3    H115726   1.010   2.036   2.508  0.7495  1.0223 -0.4034
 5254TIP3    H215727   1.018   2.128   2.628 -0.2719 -0.0766  0.5330
 5255TIP3   OH215728   2.733   6.290   4.112 -0.4016  0.2011  0.5106
 5255TIP3    H115729   2.780   6.288   4.029  0.3630  0.9910  0.8994
 5255TIP3    H215730   2.655   6.343   4.095  0.1280  0.9867  0.4629
 5256TIP3   OH215731   2.888   5.337   4.924 -0.3737  0.1125  0.0432
 5256TIP3    H115732   2.880   5.428   4.953  0.9004  0.1181  0.4220
 5256TIP3    H215733   2.981   5.318   4.927 -0.5725 -1.0770 -0.4720
 5257TIP3   OH215734   3.449   3.959   5.075 -0.0593  0.2419 -0.0582
 5257TIP3    H115735   3.457   4.016   5.152 -0.4087 -2.1301  1.8546
 5257TIP3    H215736   3.359   3.970   5.046  0.0818  1.1794 -0.1711
 5258TIP3   OH215737   5.573   0.348   4.466  0.0131 -0.2398 -0.2173
 5258TIP3    H115738   5.587   0.342   4.561 -3.0172 -0.7166  0.3157
 5258TIP3    H215739   5.651   0.307   4.428  0.4915 -1.7595  2.1420
 5259TIP3   OH215740   4.151   6.648   2.213  0.6204  0.1575  0.6265
 5259TIP3    H115741   4.239   6.654   2.250  0.7603  0.5354  0.2322
 5259TIP3    H215742   4.151   6.709   2.139  0.3686 -0.6391 -0.0502
 5260TIP3   OH215743   3.585   5.911   1.263  0.3450 -0.4753  0.4943
 5260TIP3    H115744   3.635   5.830   1.271  0.4596 -0.4925 -0.3288
 5260TIP3    H215745   3.651   5.980   1.267  0.4044 -0.4840 -0.2419
 5261TIP3   OH215746   6.999   3.710   2.099 -0.0282 -0.1436 -0.0470
 5261TIP3    H115747   7.080   3.659   2.100  0.0100 -0.0889 -0.2210
 5261TIP3    H215748   6.995   3.746   2.010 -0.0474  0.1714  0.0810
 5262TIP3   OH215749   7.037   3.571   0.312 -0.5020  0.6723 -0.3281
 5262TIP3    H115750   7.127   3.550   0.287  0.3937 -2.0280  4.0667
 5262TIP3    H215751   6.983   3.522   0.249  1.2667 -1.3269 -0.3960
 5263TIP3   OH215752   0.756   2.835   3.839  0.1966  0.1674 -0.2731
 5263TIP3    H115753   0.694   2.854   3.770 -0.9660  0.1903  0.7380
 5263TIP3    H215754   0.772   2.919   3.881  1.6754  0.3316 -1.1138
 5264TIP3   OH215755   2.308   5.589   5.804 -0.1690  0.6273 -0.2066
 5264TIP3    H115756   2.303   5.573   5.898 -0.5068 -2.2690 -0.6317
 5264TIP3    H215757   2.238   5.536   5.767  0.6385  0.8665 -2.1944
 5265TIP3   OH215758   4.039   4.045   0.193  0.3146  0.4079  0.3807
 5265TIP3    H115759   3.943   4.041   0.186  0.3549 -1.3962  0.3132
 5265TIP3    H215760   4.070   4.027   0.104  0.6795 -2.9364  1.0414
 5266TIP3   OH215761   5.555   5.530   2.373 -0.2809  0.5538  0.2671
 5266TIP3    H115762   5.573   5.479   2.452 -0.0041  1.4736  0.8203
 5266TIP3    H215763   5.462   5.553   2.379 -0.4828 -0.1133 -0.1357
 5267TIP3   OH215764   6.475   2.722   4.340 -0.4984 -0.1066 -0.4623
 5267TIP3    H115765   6.399   2.771   4.308  0.7539  1.1946 -1.5848
 5267TIP3    H215766   6.438   2.641   4.375 -2.4026  0.5150 -0.9118
 5268TIP3   OH215767   3.537   2.728   3.214 -0.1426  0.1890 -0.5594
 5268TIP3    H115768   3.557   2.818   3.190 -1.4526  0.4688 -0.6963
 5268TIP3    H215769   3.453   2.733   3.259 -1.1080 -1.1396 -2.0923
 5269TIP3   OH215770   2.058   2.633   4.323 -0.1578 -0.2657 -0.3737
 5269TIP3    H115771   2.070   2.658   4.232 -0.0920  1.5868  0.0987
 5269TIP3    H215772   2.143   2.650   4.364 -0.8807  1.4134  0.5268
 5270TIP3   OH215773   6.766   3.404   0.908  0.1819  0.1983  0.5260
 5270TIP3    H115774   6.720   3.457   0.973 -1.7238 -0.6483 -0.0577
 5270TIP3    H215775   6.739   3.442   0.824  0.2241 -0.5694  0.1611
 5271TIP3   OH215776   1.150   5.775   4.407  0.0543  0.6774  0.2117
 5271TIP3    H115777   1.099   5.772   4.488 -0.7883 -2.3888 -0.2787
 5271TIP3    H215778   1.087   5.796   4.339  0.3385  1.1597  0.0934
 5272TIP3   OH215779   7.098   3.896   5.089 -0.7103 -0.3012  0.2318
 5272TIP3    H115780   7.147   3.975   5.114 -0.9577  0.0135 -0.2530
 5272TIP3    H215781   7.165   3.831   5.070 -0.5075 -0.8591  2.5960
 5273TIP3   OH215782   5.272   1.984   5.790 -0.5007 -0.1701 -0.3055
 5273TIP3    H115783   5.292   1.892   5.808 -1.2052 -0.6150 -1.6228
 5273TIP3    H215784   5.298   1.996   5.699  1.3480  1.4852  0.3888
 5274TIP3   OH215785   4.203   2.409   2.711  0.1576 -0.0166 -0.4338
 5274TIP3    H115786   4.273   2.441   2.768 -1.5159  1.8356  0.7404
 5274TIP3    H215787   4.246   2.392   2.627  2.3117 -0.7661  0.7445
 5275TIP3   OH215788   1.381   5.366   3.276 -0.3243 -0.3489  0.4978
 5275TIP3    H115789   1.393   5.418   3.196  0.3034 -1.4288 -0.1315
 5275TIP3    H215790   1.294   5.391   3.308 -0.8990 -0.4277 -0.9301
 5276TIP3   OH215791   4.800   2.580   5.806  0.0150 -0.6802  0.5877
 5276TIP3    H115792   4.848   2.592   5.887 -1.6885  0.8830  1.4276
 5276TIP3    H215793   4.723   2.529   5.831 -0.4229 -0.3640 -0.0777
 5277TIP3   OH215794   5.498   5.875   0.202 -0.5193  0.1427 -0.1603
 5277TIP3    H115795   5.500   5.908   0.111  0.7519  0.2650 -0.1045
 5277TIP3    H215796   5.578   5.823   0.210 -1.2292 -0.8676  0.5427
 5278TIP3   OH215797   4.276   2.562   1.721 -0.1561 -0.5214 -0.2248
 5278TIP3    H115798   4.313   2.527   1.640  1.8005 -0.0477  0.4057
 5278TIP3    H215799   4.350   2.565   1.782 -0.8590  1.9174  0.6529
 5279TIP3   OH215800   2.308   1.768   2.960  0.4086  0.9055 -0.5359
 5279TIP3    H115801   2.242   1.833   2.981  0.6013  0.6711  0.8611
 5279TIP3    H215802   2.302   1.758   2.865 -1.3746  1.0703 -0.4650
 5280TIP3   OH215803   2.883   3.571   3.131 -0.0874 -1.3117 -0.1333
 5280TIP3    H115804   2.849   3.660   3.142 -0.0896 -1.4137  0.7547
 5280TIP3    H215805   2.813   3.524   3.087  0.2613 -0.6624 -1.4663
 5281TIP3   OH215806   0.493   3.853   2.535  0.6987  0.3735 -0.3378
 5281TIP3    H115807   0.400   3.840   2.516  0.5148  1.3625 -0.1537
 5281TIP3    H215808   0.516   3.935   2.492  1.3968  0.3292 -0.0720
 5282TIP3   OH215809   4.279   0.087   3.334  0.0130  0.1877 -1.1072
 5282TIP3    H115810   4.300   0.071   3.242  0.0135 -1.6954 -0.8014
 5282TIP3    H215811   4.183   0.091   3.337  0.0057  0.0210 -1.1453
 5283TIP3   OH215812   2.102   4.216   4.975  0.1994 -0.0878 -0.8094
 5283TIP3    H115813   2.113   4.166   5.056  2.1733 -0.7353 -1.4110
 5283TIP3    H215814   2.013   4.196   4.946 -0.8009  0.6721  1.4926
 5284TIP3   OH215815   1.499   2.805   1.101  0.2999 -0.3208  0.0681
 5284TIP3    H115816   1.429   2.768   1.154  1.5953 -0.5756  1.7031
 5284TIP3    H215817   1.524   2.734   1.042 -1.0371 -0.0982 -0.8045
 5285TIP3   OH215818   0.169   4.090   4.434 -0.0960  0.3836 -0.7805
 5285TIP3    H115819   0.216   4.058   4.511 -2.0638 -1.5346 -0.2626
 5285TIP3    H215820   0.113   4.160   4.467  2.3471  2.8214 -1.4368
 5286TIP3   OH215821   5.711   5.912   2.044  0.1094 -0.0212  0.4057
 5286TIP3    H115822   5.627   5.957   2.055  0.3665  0.4160  0.6183
 5286TIP3    H215823   5.705   5.835   2.102 -0.4254 -0.3994 -0.1472
 5287TIP3   OH215824   1.952   3.105   5.174  0.6523  0.3300  0.4921
 5287TIP3    H115825   1.996   3.190   5.175  0.4138  0.4726 -0.4055
 5287TIP3    H215826   1.865   3.124   5.139  0.6973 -0.3205  0.0042
 5288TIP3   OH215827   6.802   1.608   2.151 -0.4489  0.5268 -0.0614
 5288TIP3    H115828   6.743   1.565   2.089  1.4192 -0.0226 -1.5490
 5288TIP3    H215829   6.839   1.536   2.202  0.0707  0.7041 -0.1857
 5289TIP3   OH215830   0.971   5.753   0.715 -0.5073 -0.1538  0.3535
 5289TIP3    H115831   0.879   5.745   0.742 -1.1355 -0.9197 -1.7586
 5289TIP3    H215832   0.986   5.675   0.661  0.6441  1.1057 -1.2502
 5290TIP3   OH215833   2.374   1.716   2.704 -0.1093  0.8351  0.5408
 5290TIP3    H115834   2.394   1.800   2.664  1.5524 -0.5016 -1.7429
 5290TIP3    H215835   2.459   1.682   2.732 -0.7997  0.1196  1.8650
 5291TIP3   OH215836   6.469   3.366   2.372  0.6319  0.5765 -0.2222
 5291TIP3    H115837   6.483   3.289   2.317 -0.6664 -0.6139  1.0318
 5291TIP3    H215838   6.419   3.333   2.447  1.2512  2.3746  1.0487
 5292TIP3   OH215839   2.127   0.265   2.306  0.1739  0.2271  0.2275
 5292TIP3    H115840   2.095   0.308   2.385 -0.1655 -0.2290  0.3450
 5292TIP3    H215841   2.061   0.286   2.239 -0.5707 -0.9884  0.5510
 5293TIP3   OH215842   0.741   3.149   1.126  0.3200  0.2286 -0.2586
 5293TIP3    H115843   0.673   3.087   1.151  0.3422  0.5010  0.4977
 5293TIP3    H215844   0.705   3.195   1.050 -0.0906 -0.0339 -0.2253
 5294TIP3   OH215845   3.979   1.693   0.442  0.2232  0.5394 -0.3770
 5294TIP3    H115846   4.045   1.625   0.454  1.3664  1.8548  1.3093
 5294TIP3    H215847   3.919   1.681   0.516  0.7369  1.6564  0.2417
 5295TIP3   OH215848   3.608   1.099   3.706  0.2071 -0.2281 -0.0724
 5295TIP3    H115849   3.549   1.142   3.768 -1.1386 -0.4804 -1.1075
 5295TIP3    H215850   3.625   1.165   3.639  0.2298 -0.4906 -0.3284
 5296TIP3   OH215851   0.092   6.678   2.301  0.3956 -0.2536  0.1205
 5296TIP3    H115852   0.038   6.614   2.347 -0.8378  0.3705 -0.4090
 5296TIP3    H215853   0.037   6.757   2.297 -0.2153 -0.6619 -3.6344
 5297TIP3   OH215854   6.448   4.219   2.068  0.1309  0.1895  0.0627
 5297TIP3    H115855   6.452   4.293   2.007  0.5048  1.3557  1.4528
 5297TIP3    H215856   6.480   4.144   2.017 -1.1069  0.7617 -1.6527
 5298TIP3   OH215857   6.394   3.789   3.020  0.4609  0.0245 -0.1005
 5298TIP3    H115858   6.376   3.699   2.991 -1.4382 -0.0645  1.2378
 5298TIP3    H215859   6.341   3.844   2.963  0.9582  0.2557 -0.3497
 5299TIP3   OH215860   2.466   1.286   4.413  0.2289  0.4941 -0.6671
 5299TIP3    H115861   2.556   1.279   4.446 -0.2162  0.1156  0.5226
 5299TIP3    H215862   2.424   1.349   4.471 -1.0378 -1.4190  0.6005
 5300TIP3   OH215863   4.754   5.885   3.018  0.4430 -0.1182  0.1444
 5300TIP3    H115864   4.805   5.932   2.952  0.9742  1.4450  1.5866
 5300TIP3    H215865   4.665   5.919   3.009  0.3481 -0.4677 -0.2564
 5301TIP3   OH215866   4.374   2.204   3.675  0.3101 -0.2152 -0.4613
 5301TIP3    H115867   4.363   2.249   3.591  0.7007 -0.5258 -0.6859
 5301TIP3    H215868   4.452   2.150   3.663  0.5372 -0.0469  0.2001
 5302TIP3   OH215869   2.504   0.812   0.778 -0.0823 -0.3024 -0.0905
 5302TIP3    H115870   2.521   0.851   0.693 -0.4321 -3.7758 -1.9288
 5302TIP3    H215871   2.458   0.880   0.827  0.9584  2.1331 -2.2985
 5303TIP3   OH215872   0.110   5.324   0.641  0.3884  0.0589  0.0987
 5303TIP3    H115873   0.119   5.232   0.614 -0.8863 -0.3983  1.1116
 5303TIP3    H215874   0.169   5.372   0.583  0.6836 -1.3358 -0.8104
 5304TIP3   OH215875   2.820   2.778   3.321  0.4543  0.1605 -0.3004
 5304TIP3    H115876   2.814   2.751   3.413  1.5856  0.7813 -0.0146
 5304TIP3    H215877   2.736   2.754   3.283 -0.6121  1.1799  1.2599
 5305TIP3   OH215878   6.575   1.400   5.706 -0.4602  0.3888 -0.5631
 5305TIP3    H115879   6.527   1.466   5.656  1.4518  0.8385 -1.9416
 5305TIP3    H215880   6.664   1.405   5.672  0.0733 -1.9304  0.2899
 5306TIP3   OH215881   2.392   2.253   2.630  0.3515 -0.9049  0.1002
 5306TIP3    H115882   2.461   2.309   2.666 -0.1202 -1.1105  1.3367
 5306TIP3    H215883   2.418   2.165   2.656  0.4442 -1.1565 -0.8022
 5307TIP3   OH215884   4.089   0.745   0.296 -0.3392  0.1878  0.0843
 5307TIP3    H115885   4.106   0.655   0.326 -0.6380 -0.1714 -0.7940
 5307TIP3    H215886   4.174   0.788   0.299 -0.3833  0.2105  1.5720
 5308TIP3   OH215887   3.606   4.949   4.602 -0.5987  0.6840 -0.5403
 5308TIP3    H115888   3.518   4.969   4.572 -0.3315  1.1517 -1.0426
 5308TIP3    H215889   3.647   4.906   4.527 -0.8138 -0.7799  0.1434
 5309TIP3   OH215890   2.314   4.327   0.868 -0.9834  0.4517 -0.0427
 5309TIP3    H115891   2.291   4.351   0.958 -0.0970  1.0906  0.0301
 5309TIP3    H215892   2.395   4.374   0.851  1.3163 -3.0242  0.3406
 5310TIP3   OH215893   2.228   1.868   1.180 -0.1469  0.3291 -0.2496
 5310TIP3    H115894   2.263   1.947   1.221 -1.8501  0.7052  0.5812
 5310TIP3    H215895   2.217   1.891   1.088 -1.8874  1.5790  0.2251
 5311TIP3   OH215896   4.419   1.637   0.466 -0.3994 -0.2572 -0.2480
 5311TIP3    H115897   4.410   1.690   0.545  0.1731 -1.4804  0.6777
 5311TIP3    H215898   4.484   1.683   0.413  0.6196 -0.3624  0.8548
 5312TIP3   OH215899   1.734   1.424   4.216  0.1032  0.3473  0.2091
 5312TIP3    H115900   1.760   1.379   4.296 -0.7741 -0.4833  0.0519
 5312TIP3    H215901   1.641   1.405   4.207  0.4097 -0.5728 -1.5936
 5313TIP3   OH215902   3.897   2.671   1.592  0.6076 -0.3387  0.3281
 5313TIP3    H115903   3.881   2.606   1.661  0.0428 -0.3446  0.1986
 5313TIP3    H215904   3.810   2.700   1.566  0.8426  0.1759  0.0980
 5314TIP3   OH215905   6.829   0.967   0.718  0.7345 -0.3358 -0.5173
 5314TIP3    H115906   6.793   1.027   0.783 -0.0323 -0.1884 -1.0640
 5314TIP3    H215907   6.921   0.956   0.744  0.4612 -0.2325  0.5410
 5315TIP3   OH215908   5.250   6.390   0.934  0.2809  0.0153 -0.3513
 5315TIP3    H115909   5.281   6.331   0.865  0.9032 -0.1971  0.0904
 5315TIP3    H215910   5.235   6.474   0.891  1.5992  0.1536 -0.5781
 5316TIP3   OH215911   2.007   3.326   4.223 -0.1025 -0.1995 -0.3219
 5316TIP3    H115912   1.951   3.286   4.156 -0.2029 -1.4688  0.4994
 5316TIP3    H215913   2.005   3.420   4.202 -3.0746 -0.0788  0.0504
 5317TIP3   OH215914   5.355   4.133   4.036 -0.2614  0.2344 -0.2693
 5317TIP3    H115915   5.279   4.077   4.055  0.6970 -1.2736 -0.6502
 5317TIP3    H215916   5.394   4.093   3.958  0.5050  1.4312 -0.5130
 5318TIP3   OH215917   5.369   4.660   0.025 -0.2142 -0.0536  0.0343
 5318TIP3    H115918   5.324   4.668  -0.059 -1.4821  0.3060  0.7352
 5318TIP3    H215919   5.350   4.572   0.055  0.3690 -0.2366 -0.1112
 5319TIP3   OH215920   2.682   2.238   0.351 -0.5758  0.1147  0.5360
 5319TIP3    H115921   2.595   2.230   0.312  0.0186  1.2145 -1.1377
 5319TIP3    H215922   2.741   2.247   0.276  0.8099  0.8566  1.6626
 5320TIP3   OH215923   3.395   4.374   0.584  0.2500 -0.0023 -0.2722
 5320TIP3    H115924   3.372   4.428   0.660  0.6367  0.6602 -0.6199
 5320TIP3    H215925   3.490   4.363   0.589  0.2658 -0.0444 -0.6042
 5321TIP3   OH215926   3.527   4.011   1.821  0.3639 -0.2664 -0.0100
 5321TIP3    H115927   3.526   3.919   1.794 -0.3526  0.0050 -0.9607
 5321TIP3    H215928   3.574   4.056   1.751 -0.9199  0.3556 -0.4844
 5322TIP3   OH215929   4.458   4.215   4.007 -0.4640 -0.2636  0.3145
 5322TIP3    H115930   4.543   4.173   4.021 -0.2813  0.8224  3.0636
 5322TIP3    H215931   4.477   4.290   3.950  0.8208  0.9542  2.2282
 5323TIP3   OH215932   3.723   6.255   1.080 -0.4723  0.7764 -0.0820
 5323TIP3    H115933   3.763   6.235   1.165  2.3164  0.8882 -1.2651
 5323TIP3    H215934   3.641   6.300   1.102 -1.0165 -1.2432  2.5212
 5324TIP3   OH215935   2.411   4.757   3.608  0.5664 -0.1822  0.1065
 5324TIP3    H115936   2.473   4.805   3.553  0.4407 -0.8340 -0.6210
 5324TIP3    H215937   2.330   4.755   3.557  0.4232 -0.7283  0.3521
 5325TIP3   OH215938   6.223   3.374   4.547 -0.3024 -0.4091 -0.0013
 5325TIP3    H115939   6.263   3.323   4.617  2.0609  1.2656 -0.0120
 5325TIP3    H215940   6.188   3.451   4.590 -2.7460 -1.3650 -0.1490
 5326TIP3   OH215941   4.436   3.653   1.765 -0.0057  0.1344  0.1166
 5326TIP3    H115942   4.502   3.719   1.742 -0.6879  0.7253 -0.2168
 5326TIP3    H215943   4.482   3.570   1.758  1.1576  0.6085  1.5229
 5327TIP3   OH215944   3.660   5.476   4.399  0.5342  0.3946 -0.0297
 5327TIP3    H115945   3.707   5.397   4.426 -0.7768  0.1423  1.6903
 5327TIP3    H215946   3.693   5.545   4.456 -1.1793  0.1869  1.2945
 5328TIP3   OH215947   0.138   2.236   2.286  0.5678 -0.8178 -0.4213
 5328TIP3    H115948   0.170   2.257   2.373 -0.3608 -0.8566 -0.0631
 5328TIP3    H215949   0.213   2.193   2.243  0.9296 -1.0818  0.4523
 5329TIP3   OH215950   1.422   6.131   1.702 -0.5764 -0.1343  0.0156
 5329TIP3    H115951   1.503   6.171   1.672 -0.0392 -0.4259  1.0229
 5329TIP3    H215952   1.354   6.193   1.676  0.0708  0.6151  0.0548
 5330TIP3   OH215953   2.138   4.758   0.131  0.3352  0.1737 -0.2640
 5330TIP3    H115954   2.204   4.689   0.125 -0.8992 -0.9158 -3.2804
 5330TIP3    H215955   2.186   4.839   0.110  1.0553 -0.3512 -0.6913
 5331TIP3   OH215956   0.930   4.624   2.683  0.5742 -0.1209  0.4076
 5331TIP3    H115957   0.970   4.538   2.693  1.7436  0.5168  1.4547
 5331TIP3    H215958   0.957   4.654   2.596  1.0761 -0.3591  0.4782
 5332TIP3   OH215959   3.025   3.892   4.824 -0.2778 -0.2435 -0.4294
 5332TIP3    H115960   2.934   3.914   4.842  0.1997  1.8289 -0.2634
 5332TIP3    H215961   3.023   3.848   4.739 -1.2864  1.3681 -1.2811
 5333TIP3   OH215962   1.401   5.380   0.598  0.1882 -0.1390  0.3089
 5333TIP3    H115963   1.465   5.450   0.605  1.4218 -1.2682  0.6305
 5333TIP3    H215964   1.418   5.324   0.673  0.0721 -1.4777 -0.6342
 5334TIP3   OH215965   0.014   6.295   3.301  0.2218 -0.0153  0.1373
 5334TIP3    H115966   0.020   6.390   3.293 -0.7978  0.0230 -0.2647
 5334TIP3    H215967   0.074   6.262   3.234 -0.3689  0.3427 -0.5764
 5335TIP3   OH215968   2.717  -0.011   1.544  0.1309 -0.3406 -0.2404
 5335TIP3    H115969   2.762  -0.038   1.624 -0.0612 -0.6129 -0.2254
 5335TIP3    H215970   2.702   0.083   1.556 -1.2777 -0.6583  0.7259
 5336TIP3   OH215971   3.385   5.432   1.959  0.3898  0.5063  0.1594
 5336TIP3    H115972   3.479   5.434   1.945  0.1316 -0.4398 -2.0919
 5336TIP3    H215973   3.348   5.400   1.877 -1.8530  0.0558  1.2436
 5337TIP3   OH215974   2.269   4.479   1.104  0.0080  0.3521 -0.1211
 5337TIP3    H115975   2.258   4.449   1.194  0.7051  0.3924 -0.0132
 5337TIP3    H215976   2.354   4.523   1.104  1.7643 -2.7082 -1.5547
 5338TIP3   OH215977   4.038   2.341   5.446 -0.8969 -0.0913  0.0003
 5338TIP3    H115978   4.042   2.395   5.367 -0.3891 -0.9326 -0.5731
 5338TIP3    H215979   4.129   2.329   5.472 -0.7183 -2.8990 -1.4958
 5339TIP3   OH215980   5.655   2.587   0.935 -0.0074  0.6487  0.3205
 5339TIP3    H115981   5.727   2.558   0.879 -1.3045 -2.4797  0.0375
 5339TIP3    H215982   5.695   2.603   1.020  1.1958  0.2185 -0.1524
 5340TIP3   OH215983   0.394   1.944   2.838 -0.1582  0.1152 -0.3553
 5340TIP3    H115984   0.407   1.894   2.919 -1.9205 -0.2273 -0.2336
 5340TIP3    H215985   0.465   1.917   2.781 -0.5004 -1.8273  0.0720
 5341TIP3   OH215986   2.226   0.915   1.749 -0.7560  0.2836  0.3089
 5341TIP3    H115987   2.312   0.917   1.791 -1.3443 -0.4008  1.6085
 5341TIP3    H215988   2.199   1.007   1.746 -0.0105  0.4948 -0.0523
 5342TIP3   OH215989   4.384   0.201   2.594 -0.6741  0.1555  0.7855
 5342TIP3    H115990   4.444   0.132   2.623 -0.5705  0.0590  0.3516
 5342TIP3    H215991   4.299   0.158   2.586 -0.5342 -0.0205  0.1492
 5343TIP3   OH215992   6.373   4.551   4.956  0.5533 -0.4506 -0.4668
 5343TIP3    H115993   6.423   4.623   4.917  2.3686 -1.1374  0.5151
 5343TIP3    H215994   6.337   4.589   5.037  0.0962 -0.1885 -0.7836
 5344TIP3   OH215995   3.565   1.601   3.796  0.0439  0.0345 -0.4967
 5344TIP3    H115996   3.501   1.663   3.832 -0.4908 -0.1764 -1.0644
 5344TIP3    H215997   3.614   1.652   3.732 -0.3101 -0.0829 -0.8696
 5345TIP3   OH215998   4.007   5.700   5.078  0.9140 -0.1593 -0.6620
 5345TIP3    H115999   3.945   5.765   5.044  0.1167  0.8376  2.3550
 5345TIP3    H216000   4.093   5.735   5.054  0.4499  1.3856 -0.2255
 5346TIP3   OH216001   2.275   3.647   4.995  0.1681  0.4002 -0.1324
 5346TIP3    H116002   2.310   3.712   4.934  0.5975  0.3128  0.0168
 5346TIP3    H216003   2.228   3.698   5.060  1.5797  0.6916  0.7142
 5347TIP3   OH216004   6.522   5.673   2.045  0.4491  0.0998  0.1257
 5347TIP3    H116005   6.535   5.697   2.137  1.3301  1.0564 -0.2288
 5347TIP3    H216006   6.435   5.634   2.043  0.6613 -0.5018  1.4706
 5348TIP3   OH216007   2.417   3.425   5.060  0.2014 -0.0856 -0.1233
 5348TIP3    H116008   2.422   3.368   4.983  0.3230  0.6362 -0.6519
 5348TIP3    H216009   2.359   3.496   5.035 -0.2149 -0.1370  0.6508
 5349TIP3   OH216010   2.756   4.433   5.782  0.1912  0.1714  0.5943
 5349TIP3    H116011   2.758   4.523   5.749 -0.9454  0.3523  0.9792
 5349TIP3    H216012   2.789   4.380   5.709  0.3211  0.8445  0.1547
 5350TIP3   OH216013   6.290   2.148   4.644 -0.5306 -0.4783 -0.7876
 5350TIP3    H116014   6.302   2.181   4.733 -0.2662 -0.6462 -0.7579
 5350TIP3    H216015   6.196   2.129   4.638 -0.5389 -0.5268 -0.5220
 5351TIP3   OH216016   0.996   0.412   1.273  0.3328 -0.5804  0.8339
 5351TIP3    H116017   1.077   0.427   1.320  0.1247 -1.2112  1.4040
 5351TIP3    H216018   0.934   0.476   1.310  0.7925  0.5372 -0.2385
 5352TIP3   OH216019   4.476   3.236   2.438  0.3881 -0.1651 -0.1526
 5352TIP3    H116020   4.473   3.330   2.418 -0.3508 -0.4478 -1.5089
 5352TIP3    H216021   4.567   3.220   2.462  0.7780  0.6929 -0.9811
 5353TIP3   OH216022   5.927   1.051   2.832 -0.1218  0.5312  0.6667
 5353TIP3    H116023   5.872   0.973   2.822 -0.3629  0.8730 -0.7547
 5353TIP3    H216024   5.865   1.124   2.830  0.2579  0.8469  0.3892
 5354TIP3   OH216025   2.881   5.046   4.688 -0.1440  0.0852  0.4669
 5354TIP3    H116026   2.975   5.044   4.704 -0.5024 -0.1207  2.9382
 5354TIP3    H216027   2.850   4.960   4.717 -1.0050 -0.2143 -1.2075
 5355TIP3   OH216028   6.225   5.300   2.985 -0.4042 -0.1719  0.2321
 5355TIP3    H116029   6.309   5.285   3.028  0.8484 -0.6170 -2.2029
 5355TIP3    H216030   6.202   5.215   2.946 -0.1535  0.7610 -2.0921
 5356TIP3   OH216031   3.776   2.412   0.794  0.1806  0.2057 -0.5961
 5356TIP3    H116032   3.688   2.433   0.762 -0.7785 -2.3793  0.0923
 5356TIP3    H216033   3.788   2.469   0.870 -1.5328 -0.4137  0.1941
 5357TIP3   OH216034   1.930   0.021   5.017  0.0474  0.1308  0.1751
 5357TIP3    H116035   2.011   0.042   4.969 -0.9431 -1.0729 -2.1792
 5357TIP3    H216036   1.900   0.106   5.050  2.1899  0.6153  1.0481
 5358TIP3   OH216037   4.431   5.962   3.225 -0.1432 -0.5042  0.1041
 5358TIP3    H116038   4.373   5.922   3.290  0.0771 -1.6213 -0.3521
 5358TIP3    H216039   4.422   6.056   3.238 -2.8146 -0.5948 -0.6120
 5359TIP3   OH216040   3.296   2.971   1.241 -0.1944 -0.3693 -0.3588
 5359TIP3    H116041   3.316   3.015   1.323 -1.4326  1.1951 -0.8425
 5359TIP3    H216042   3.315   2.878   1.258  0.1731  0.0033  1.4770
 5360TIP3   OH216043   3.368   3.263   3.846 -0.0745 -0.2027  0.6052
 5360TIP3    H116044   3.299   3.200   3.869 -0.4821  0.4280  1.1405
 5360TIP3    H216045   3.357   3.334   3.909  0.5414  0.2915  0.1609
 5361TIP3   OH216046   3.629   3.675   0.031  0.4419 -0.0105 -0.0168
 5361TIP3    H116047   3.595   3.757  -0.004  0.1129  0.8988  2.2880
 5361TIP3    H216048   3.724   3.681   0.019  0.2755 -0.4496 -2.0804
 5362TIP3   OH216049   6.786   0.347   2.563  0.1058 -0.0176 -0.2432
 5362TIP3    H116050   6.702   0.328   2.604  0.9511 -1.9527  0.7643
 5362TIP3    H216051   6.779   0.311   2.475  0.2753 -1.3742  0.2734
 5363TIP3   OH216052   4.932   5.350   0.250 -0.7156 -0.8254  0.5650
 5363TIP3    H116053   4.856   5.402   0.278  0.0915  0.0776  1.1215
 5363TIP3    H216054   4.990   5.348   0.326  0.9804  0.6609 -0.6106
 5364TIP3   OH216055   0.103   3.319   5.273 -0.2390  0.2903 -0.5155
 5364TIP3    H116056   0.138   3.293   5.188 -0.8960 -0.7902 -0.4730
 5364TIP3    H216057   0.169   3.378   5.309  0.9308 -0.7045 -0.9780
 5365TIP3   OH216058   4.598   4.421   0.533 -0.4265 -0.3219  0.0154
 5365TIP3    H116059   4.680   4.374   0.521 -0.5945 -0.3234 -1.2267
 5365TIP3    H216060   4.552   4.412   0.450 -1.8384 -0.5992  0.7831
 5366TIP3   OH216061   6.915   4.682   4.938  0.0974  0.1625  0.3041
 5366TIP3    H116062   6.957   4.766   4.960 -1.3598  1.2864 -0.9402
 5366TIP3    H216063   6.958   4.655   4.856 -1.0518  0.9632 -0.5974
 5367TIP3   OH216064   5.746   0.776   4.335  0.5382  0.0867  0.1915
 5367TIP3    H116065   5.657   0.743   4.342  0.2330  0.9169  0.3008
 5367TIP3    H216066   5.736   0.868   4.312  1.3803 -0.2265 -1.6803
 5368TIP3   OH216067   2.247   2.807   0.444  0.3446  0.3792  0.1601
 5368TIP3    H116068   2.192   2.801   0.521 -0.8349 -1.6621 -0.7715
 5368TIP3    H216069   2.336   2.798   0.477 -0.1749 -1.1099  1.2477
 5369TIP3   OH216070   3.435   6.592   3.524 -0.0020 -0.1594  0.2779
 5369TIP3    H116071   3.494   6.643   3.469 -1.0287 -0.3885 -1.0975
 5369TIP3    H216072   3.439   6.635   3.610  0.8634  0.8431 -0.2441
 5370TIP3   OH216073   7.170   1.976   3.361 -0.0797 -0.0973 -0.5963
 5370TIP3    H116074   7.214   1.914   3.420  1.8225 -1.2731 -3.0444
 5370TIP3    H216075   7.241   2.013   3.309 -1.6594  0.7463 -2.2428
 5371TIP3   OH216076   0.603   6.735   1.626 -0.4322  0.6796 -0.7648
 5371TIP3    H116077   0.550   6.746   1.705  0.7512 -0.4683  0.2371
 5371TIP3    H216078   0.622   6.824   1.598  0.9462  1.1854  1.5427
 5372TIP3   OH216079   2.286   0.291   0.700 -0.4824  0.5225 -0.0518
 5372TIP3    H116080   2.248   0.205   0.683  0.9231 -0.2435  0.5253
 5372TIP3    H216081   2.248   0.318   0.783 -0.7416  0.3666 -0.1171
 5373TIP3   OH216082   5.721   2.481   2.840 -0.5188 -0.2320  0.6972
 5373TIP3    H116083   5.767   2.451   2.762 -0.2645  1.9554 -0.0602
 5373TIP3    H216084   5.659   2.411   2.860  0.8967 -1.8103 -0.1560
 5374TIP3   OH216085   5.462   3.739   4.350 -0.1700 -0.3585 -0.0804
 5374TIP3    H116086   5.484   3.657   4.305 -0.4334 -1.9913  2.5110
 5374TIP3    H216087   5.366   3.741   4.352 -0.1706  0.3280 -0.6440
 5375TIP3   OH216088   3.171   6.431   2.080  0.7522  0.3862  0.0025
 5375TIP3    H116089   3.253   6.387   2.058  0.2608 -0.2894 -0.5321
 5375TIP3    H216090   3.131   6.451   1.995 -0.3431 -0.6589  0.2557
 5376TIP3   OH216091   5.713   4.936   4.958 -0.0224  0.4474  0.4208
 5376TIP3    H116092   5.699   4.911   5.050  1.8640  1.6764  1.1084
 5376TIP3    H216093   5.743   5.026   4.962  0.6637  0.3432 -1.3795
 5377TIP3   OH216094   4.558   3.601   5.482  0.3250  0.0052 -0.1521
 5377TIP3    H116095   4.483   3.545   5.500 -0.7744  1.6463  0.5970
 5377TIP3    H216096   4.523   3.690   5.482  1.6628  0.6597 -3.0407
 5378TIP3   OH216097   5.023   2.764   3.635 -0.1583  0.2313  0.2308
 5378TIP3    H116098   4.971   2.715   3.698 -0.9171  1.4960  0.6288
 5378TIP3    H216099   5.108   2.775   3.678 -0.2782  0.0505  0.5165
 5379TIP3   OH216100   0.479   0.014   3.994  0.4804  0.1637  0.8768
 5379TIP3    H116101   0.561  -0.006   4.040 -1.1832 -3.4228  2.7384
 5379TIP3    H216102   0.430   0.069   4.056  1.1330  1.7570  0.0369
 5380TIP3   OH216103   6.677   2.489   4.423 -0.6422 -0.5547  0.0855
 5380TIP3    H116104   6.694   2.459   4.334  1.2957 -0.2632  0.3112
 5380TIP3    H216105   6.582   2.482   4.433 -0.8465 -1.0878 -1.8098
 5381TIP3   OH216106   0.992   4.287   5.014  0.4519 -0.4259  0.1723
 5381TIP3    H116107   0.923   4.266   5.077 -0.9895  0.9480 -0.8679
 5381TIP3    H216108   0.972   4.375   4.985  1.2209 -0.9150 -2.0190
 5382TIP3   OH216109   5.888   5.703   5.273  0.1537 -0.0171 -0.0853
 5382TIP3    H116110   5.827   5.649   5.222  0.6157 -0.8601  0.2362
 5382TIP3    H216111   5.892   5.660   5.359  1.3433 -0.0918 -0.1589
 5383TIP3   OH216112   0.212   0.959   5.635 -0.7068  0.6853 -0.2551
 5383TIP3    H116113   0.173   1.043   5.608  0.7520  1.3902 -0.2697
 5383TIP3    H216114   0.207   0.960   5.731 -2.7450 -0.2640 -0.3069
 5384TIP3   OH216115   1.054   3.370   3.324  0.1139 -0.1572  0.4165
 5384TIP3    H116116   0.967   3.339   3.300  0.3914  0.1819 -1.0892
 5384TIP3    H216117   1.081   3.311   3.395 -1.1622 -0.5275  0.6224
 5385TIP3   OH216118   4.473   6.563   1.244 -0.3582 -0.3749  0.3645
 5385TIP3    H116119   4.430   6.615   1.176  0.2637 -1.4918 -0.9417
 5385TIP3    H216120   4.566   6.583   1.235 -0.0729 -1.8645 -0.3599
 5386TIP3   OH216121   4.519   4.507   2.296  0.0184  0.0653 -0.2706
 5386TIP3    H116122   4.566   4.431   2.330 -1.5782 -0.8465 -0.0265
 5386TIP3    H216123   4.576   4.541   2.227 -0.4016 -2.9851 -2.3154
 5387TIP3   OH216124   6.172   5.396   2.571 -0.0359  0.0875 -0.1166
 5387TIP3    H116125   6.111   5.425   2.639 -0.4271 -3.3988  1.2362
 5387TIP3    H216126   6.247   5.360   2.620  0.7076 -0.4711 -1.6176
 5388TIP3   OH216127   2.232   5.076   0.983  0.2124  0.3713 -0.5609
 5388TIP3    H116128   2.194   5.075   1.071  0.8609 -2.1853 -0.2176
 5388TIP3    H216129   2.305   5.137   0.989 -0.8336  1.6024  0.1415
 5389TIP3   OH216130   2.636   3.679   3.326  0.9455  0.0531 -0.0142
 5389TIP3    H116131   2.630   3.623   3.249 -0.6410 -0.1683  0.2361
 5389TIP3    H216132   2.688   3.754   3.297  1.6060 -0.7131 -0.8619
 5390TIP3   OH216133   4.825   1.917   1.183 -0.0884 -0.0578  0.9375
 5390TIP3    H116134   4.811   1.894   1.275  0.6938 -0.6092  0.9319
 5390TIP3    H216135   4.806   2.010   1.178 -1.1891 -0.2384  1.4309
 5391TIP3   OH216136   0.024   0.643   0.071 -0.5380  0.2645 -0.2580
 5391TIP3    H116137  -0.025   0.706   0.017 -0.2871 -0.1521 -0.9828
 5391TIP3    H216138   0.102   0.692   0.098 -1.0451  0.7297  0.3860
 5392TIP3   OH216139   6.106   0.480   3.374  0.2240  0.1153  0.1290
 5392TIP3    H116140   6.018   0.457   3.346  0.2409  0.5528 -0.3037
 5392TIP3    H216141   6.118   0.570   3.345  0.9487 -0.0626 -0.1640
 5393TIP3   OH216142   6.851   6.057   3.634  0.3756  0.0075 -0.6748
 5393TIP3    H116143   6.876   5.985   3.692 -0.4446 -0.8453 -1.3472
 5393TIP3    H216144   6.934   6.092   3.603  0.7988 -1.2494 -1.0377
 5394TIP3   OH216145   5.766   1.598   2.985 -0.4887  0.4535  0.1057
 5394TIP3    H116146   5.782   1.524   2.927 -1.4920 -0.7137  1.2539
 5394TIP3    H216147   5.801   1.571   3.070 -0.8861  1.2880  0.5511
 5395TIP3   OH216148   1.493   3.200   4.306  0.1072  0.4130 -0.1947
 5395TIP3    H116149   1.413   3.148   4.306 -1.0071  2.0123  1.1101
 5395TIP3    H216150   1.496   3.240   4.219 -0.9247  0.9036 -0.0168
 5396TIP3   OH216151   2.807   5.170   0.078 -0.3238  0.8087 -0.2393
 5396TIP3    H116152   2.800   5.215   0.162 -0.5915 -1.1900  0.8721
 5396TIP3    H216153   2.897   5.187   0.049 -0.4569  2.1227  0.0522
 5397TIP3   OH216154   4.148   6.409  -0.001  0.2828  0.0047 -0.0954
 5397TIP3    H116155   4.177   6.326   0.036  0.3711  0.8323  1.8098
 5397TIP3    H216156   4.052   6.406   0.004  0.2934  0.1025  0.2080
 5398TIP3   OH216157   6.792   3.703   5.552 -0.2166  0.2942  0.1660
 5398TIP3    H116158   6.819   3.719   5.462 -1.2038 -0.3478 -0.2620
 5398TIP3    H216159   6.709   3.656   5.544 -0.8117  1.0720  1.4126
 5399TIP3   OH216160   3.948   0.806   1.142 -0.0483 -0.0192 -0.6074
 5399TIP3    H116161   3.857   0.778   1.145  0.0798 -0.4934 -1.0751
 5399TIP3    H216162   3.964   0.842   1.229 -1.0971  1.4252 -0.9700
 5400TIP3   OH216163   1.924   5.644   4.481 -0.4334 -0.1195  0.4606
 5400TIP3    H116164   1.869   5.694   4.421  1.2879  2.3221  0.7546
 5400TIP3    H216165   1.863   5.588   4.529 -2.4049  1.1802 -0.4053
 5401TIP3   OH216166   6.211   4.274   5.742 -0.6300  0.0737  0.5189
 5401TIP3    H116167   6.272   4.290   5.670 -0.3354 -0.1209  0.7222
 5401TIP3    H216168   6.267   4.262   5.819 -0.9315  0.0308  0.7344
 5402TIP3   OH216169   2.005   0.419   5.687  0.1776  0.4258  0.0155
 5402TIP3    H116170   1.944   0.420   5.761 -1.5594  1.7034 -1.3636
 5402TIP3    H216171   1.975   0.346   5.632  1.3996 -0.4569  0.4674
 5403TIP3   OH216172   4.421   2.876   1.562 -0.3616  0.4619  0.4775
 5403TIP3    H116173   4.337   2.852   1.602 -0.6531 -2.6601 -1.6317
 5403TIP3    H216174   4.410   2.967   1.534 -2.7714  0.3567  0.8954
 5404TIP3   OH216175   5.368   4.930   0.184 -0.2582  0.1466  0.0808
 5404TIP3    H116176   5.370   4.835   0.172 -1.1720  0.1966 -0.6036
 5404TIP3    H216177   5.377   4.965   0.096  2.5585  0.7887  0.5366
 5405TIP3   OH216178   1.003   5.754   5.250  0.1827 -0.1900 -0.1997
 5405TIP3    H116179   0.921   5.804   5.242 -1.0026 -1.4778  2.5538
 5405TIP3    H216180   0.974   5.663   5.253  1.8483 -0.7313 -0.0708
 5406TIP3   OH216181   2.546   4.816   5.083 -0.7309 -0.5082 -0.4781
 5406TIP3    H116182   2.548   4.884   5.016 -0.2157 -1.6362 -1.6407
 5406TIP3    H216183   2.453   4.806   5.104 -0.7575  1.0579  0.2630
 5407TIP3   OH216184   4.580   5.837   0.338  0.7740  0.0647 -0.1829
 5407TIP3    H116185   4.515   5.775   0.304  2.1414 -0.7834 -1.3628
 5407TIP3    H216186   4.547   5.923   0.311 -1.7747  0.0798  2.4964
 5408TIP3   OH216187   5.067   1.193   0.105 -0.4907 -0.0622 -0.2792
 5408TIP3    H116188   5.107   1.267   0.058 -1.1645 -0.8521 -2.1498
 5408TIP3    H216189   5.051   1.128   0.038 -0.3042 -1.7813  1.2775
 5409TIP3   OH216190   2.409   6.064   3.646 -0.1080 -0.4824  0.4960
 5409TIP3    H116191   2.358   6.140   3.619 -0.3423 -0.8196 -0.0284
 5409TIP3    H216192   2.428   6.079   3.738  1.1263  0.9501  0.0584
 5410TIP3   OH216193   3.476   5.186   3.272  0.4505  0.4323  0.1029
 5410TIP3    H116194   3.468   5.183   3.177  1.2379  0.2118  0.0410
 5410TIP3    H216195   3.386   5.180   3.303  0.2570 -0.8313 -0.6057
 5411TIP3   OH216196   4.092   0.249   4.507  0.0392 -0.1479 -0.5503
 5411TIP3    H116197   4.074   0.341   4.485  0.7548  0.1773  0.1603
 5411TIP3    H216198   4.108   0.206   4.423  2.5520  1.0060 -0.7456
 5412TIP3   OH216199   4.752   1.677   2.695 -0.1442  0.0500  0.0446
 5412TIP3    H116200   4.666   1.716   2.711  0.4333  0.1381  3.7894
 5412TIP3    H216201   4.738   1.583   2.705  0.0513  0.0188  0.0317
 5413TIP3   OH216202   6.097   2.956   2.586  0.3260  0.1917 -0.7672
 5413TIP3    H116203   6.043   3.033   2.605 -0.1959  0.0424 -1.5598
 5413TIP3    H216204   6.033   2.885   2.575  0.8472 -0.5576  0.7960
 5414TIP3   OH216205   3.429   6.325   3.462  0.2718 -0.4415  0.5622
 5414TIP3    H116206   3.335   6.312   3.475  0.2833 -0.0874  0.9973
 5414TIP3    H216207   3.448   6.409   3.502  0.8348 -0.6494  0.7462
 5415TIP3   OH216208   4.141   5.061   0.279 -0.2452 -0.0982 -0.6775
 5415TIP3    H116209   4.142   4.973   0.242  0.8552 -0.5005  0.2289
 5415TIP3    H216210   4.055   5.070   0.319  0.2527 -1.4930  0.8078
 5416TIP3   OH216211   0.219   0.844   0.087  0.2131  0.0214  0.0241
 5416TIP3    H116212   0.228   0.883   0.174  0.0074  0.6136 -0.2150
 5416TIP3    H216213   0.255   0.909   0.027 -1.1597  0.3402 -0.4875
 5417TIP3   OH216214   6.615   2.781   1.824 -0.1738  0.5874  0.1893
 5417TIP3    H116215   6.599   2.875   1.831 -0.8801  0.3842  1.7525
 5417TIP3    H216216   6.555   2.742   1.888  0.4823 -0.8874 -0.0591
 5418TIP3   OH216217  -0.006   4.429   3.953 -0.1178  0.6077  0.2603
 5418TIP3    H116218   0.076   4.396   3.918 -0.0614  1.3474 -0.3195
 5418TIP3    H216219  -0.058   4.350   3.971  0.5520  0.1565  0.2373
 5419TIP3   OH216220   7.056   3.625   2.569 -0.3562 -0.2165 -0.4065
 5419TIP3    H116221   7.008   3.560   2.620 -0.4347  0.4783  0.4272
 5419TIP3    H216222   7.146   3.618   2.600 -0.0979 -0.8197 -1.2517
 5420TIP3   OH216223   2.060   4.819   5.472 -0.0684 -0.2869  0.5261
 5420TIP3    H116224   2.040   4.786   5.559 -0.4702 -1.7420 -0.0866
 5420TIP3    H216225   2.052   4.914   5.480 -2.9534 -0.4980  1.4108
 5421TIP3   OH216226   3.318   4.595   4.966  0.1448  0.1601 -0.3502
 5421TIP3    H116227   3.370   4.563   5.039 -1.4180  0.5471  0.9752
 5421TIP3    H216228   3.276   4.674   4.998 -3.5095 -1.5898 -0.2963
 5422TIP3   OH216229   4.384   2.362   4.262  0.5695 -0.1885 -0.4147
 5422TIP3    H116230   4.312   2.379   4.201 -0.3232  0.2372  0.7252
 5422TIP3    H216231   4.462   2.367   4.208 -0.2799 -1.6193 -1.8916
 5423TIP3   OH216232   6.785   0.613   5.668 -0.0330 -0.4953 -0.0409
 5423TIP3    H116233   6.826   0.535   5.704  0.1724 -0.8398 -1.0039
 5423TIP3    H216234   6.726   0.581   5.600 -0.0240  0.1769 -0.3773
 5424TIP3   OH216235   4.510   6.692   5.519  0.0105  0.2571 -0.3638
 5424TIP3    H116236   4.456   6.688   5.598  0.7494  0.2952  0.1456
 5424TIP3    H216237   4.452   6.661   5.449  0.4115 -3.3074  0.7315
 5425TIP3   OH216238   4.172   1.281   0.802  0.5918 -0.1504  0.5421
 5425TIP3    H116239   4.090   1.305   0.761  0.9349  0.0180 -0.0518
 5425TIP3    H216240   4.148   1.213   0.865  0.2904 -1.7555 -1.2185
 5426TIP3   OH216241   5.967   5.081   0.036  0.2052  0.2118 -0.1552
 5426TIP3    H116242   6.017   5.003   0.014 -0.1351  0.0134 -0.2222
 5426TIP3    H216243   5.991   5.145  -0.032  0.9208  0.3579  0.2261
 5427TIP3   OH216244   3.558   2.498   1.547  0.7870 -0.6081 -0.1687
 5427TIP3    H116245   3.467   2.517   1.525  1.0693 -0.4081 -1.1634
 5427TIP3    H216246   3.596   2.463   1.467  1.5287 -0.9252  0.3080
 5428TIP3   OH216247   0.345   3.717   4.207  0.2761  0.4506 -0.0690
 5428TIP3    H116248   0.397   3.796   4.190  0.6062  0.1636 -0.4310
 5428TIP3    H216249   0.364   3.696   4.299  2.4850 -0.8191 -0.7310
 5429TIP3   OH216250   2.983   5.953   4.960  0.4091  0.7625  0.2700
 5429TIP3    H116251   3.031   6.017   4.908  0.7298 -0.0106 -0.3969
 5429TIP3    H216252   2.892   5.962   4.931  0.7877 -0.6524 -1.5137
 5430TIP3   OH216253   1.307   3.252   3.171 -0.0845  0.2500 -0.6251
 5430TIP3    H116254   1.226   3.294   3.141 -0.0586  0.6038 -0.2031
 5430TIP3    H216255   1.358   3.323   3.208  0.2935 -0.0278 -0.6152
 5431TIP3   OH216256   3.199   5.307   5.627 -0.3025  0.5331 -0.4649
 5431TIP3    H116257   3.172   5.216   5.636  0.4113  0.5238  3.1223
 5431TIP3    H216258   3.254   5.308   5.548 -0.1525 -2.1787 -0.4918
 5432TIP3   OH216259   2.115   5.142   0.706  0.1363 -0.2278  0.1225
 5432TIP3    H116260   2.113   5.220   0.761  1.1506 -1.0957  1.4420
 5432TIP3    H216261   2.123   5.177   0.617  3.4913  1.2477  0.8265
 5433TIP3   OH216262   3.273   1.422   0.299 -0.0005 -0.9355  0.3393
 5433TIP3    H116263   3.358   1.464   0.284 -0.1654 -0.6047  0.3245
 5433TIP3    H216264   3.252   1.440   0.390 -0.9212  0.5963 -0.1384
 5434TIP3   OH216265   3.459   1.947   4.126 -0.3110  0.0352 -0.3766
 5434TIP3    H116266   3.504   1.943   4.210 -0.3275  0.9987 -0.3128
 5434TIP3    H216267   3.497   2.023   4.082  0.0587 -0.7502 -1.4541
 5435TIP3   OH216268   3.610   0.423   2.566  1.1318 -0.3587 -0.3658
 5435TIP3    H116269   3.640   0.380   2.486  1.3923  0.5888 -0.7954
 5435TIP3    H216270   3.577   0.352   2.621  1.9252 -1.1482 -0.8806
 5436TIP3   OH216271   5.383   2.022   4.636  0.2097 -0.1711 -0.0579
 5436TIP3    H116272   5.337   2.085   4.692  1.1384 -0.2066  0.7645
 5436TIP3    H216273   5.447   1.981   4.694  0.4494 -1.0033 -0.8888
 5437TIP3   OH216274   1.834   5.867   1.557  0.0599  0.3504 -0.0539
 5437TIP3    H116275   1.782   5.914   1.622 -0.3539 -0.0303 -0.1080
 5437TIP3    H216276   1.863   5.934   1.495  1.1228  0.8623  0.9447
 5438TIP3   OH216277   3.376   2.446   5.554  0.4335  0.1127  0.5078
 5438TIP3    H116278   3.346   2.419   5.467 -1.4240 -1.1685  1.4864
 5438TIP3    H216279   3.462   2.404   5.563  1.1554  1.1368 -1.0759
 5439TIP3   OH216280   5.850   1.959   0.736  0.1358  0.6136  0.4937
 5439TIP3    H116281   5.775   1.934   0.790  1.1832 -0.9672  1.3063
 5439TIP3    H216282   5.841   1.904   0.657  1.4227 -1.0353  1.4415
 5440TIP3   OH216283   5.227   3.855   4.108 -0.5443  0.1140  0.0902
 5440TIP3    H116284   5.169   3.811   4.047 -0.3625  0.4636 -0.3350
 5440TIP3    H216285   5.201   3.822   4.194 -1.3045  0.1931 -0.1060
 5441TIP3   OH216286   3.796   3.509   3.982 -0.3283  0.0762 -0.7673
 5441TIP3    H116287   3.850   3.548   4.050  0.5198 -1.1139 -0.7352
 5441TIP3    H216288   3.732   3.455   4.030 -0.0081 -0.4141 -0.8807
 5442TIP3   OH216289   3.620   0.264   3.575  0.5395 -0.7176  0.4454
 5442TIP3    H116290   3.627   0.356   3.553  1.8246 -0.9543 -0.2258
 5442TIP3    H216291   3.577   0.263   3.661 -0.7502  0.4120 -0.1656
 5443TIP3   OH216292   2.296   0.706   4.302  0.2364  0.1631  0.1353
 5443TIP3    H116293   2.208   0.721   4.336 -0.0329 -0.6683 -0.1827
 5443TIP3    H216294   2.294   0.742   4.213  0.6622  1.4696  0.6237
 5444TIP3   OH216295   5.433   2.790   1.373 -0.4272 -0.3403  0.1147
 5444TIP3    H116296   5.354   2.839   1.352  0.7334  1.7447  0.3248
 5444TIP3    H216297   5.458   2.821   1.461  0.2452 -1.4806  0.3511
 5445TIP3   OH216298   6.008   4.590   3.745  0.3296 -0.0071  0.0534
 5445TIP3    H116299   5.950   4.600   3.820 -1.5914 -0.0067 -1.3449
 5445TIP3    H216300   5.980   4.507   3.705  0.8879  0.2982 -0.9996
 5446TIP3   OH216301   1.785   5.369   2.278 -0.0424 -0.2761 -0.6471
 5446TIP3    H116302   1.752   5.446   2.324  1.2575  0.5167 -0.9962
 5446TIP3    H216303   1.836   5.321   2.344  1.3111  0.5418 -1.0644
 5447TIP3   OH216304   5.779   2.354   1.275 -0.0407  0.0767  0.1298
 5447TIP3    H116305   5.713   2.424   1.274  0.1715  0.2779 -0.5306
 5447TIP3    H216306   5.732   2.278   1.308 -0.9375 -0.0923 -1.4104
 5448TIP3   OH216307   6.825   4.239   5.778  0.4240  0.0411  0.0286
 5448TIP3    H116308   6.901   4.201   5.824 -0.4437 -0.5391  1.0467
 5448TIP3    H216309   6.842   4.223   5.686  1.2023 -0.7576  0.2969
 5449TIP3   OH216310   4.939   1.206   0.624 -0.2244  0.2286 -0.2837
 5449TIP3    H116311   4.905   1.295   0.625 -2.0441 -0.4183 -0.0114
 5449TIP3    H216312   4.880   1.157   0.681  0.5003 -1.2370 -0.7312
 5450TIP3   OH216313   1.884   0.134   0.797  0.3295  0.6477  0.0384
 5450TIP3    H116314   1.847   0.048   0.777  0.4347  1.0604 -2.1315
 5450TIP3    H216315   1.813   0.181   0.840  0.5700 -0.7872  2.1812
 5451TIP3   OH216316   2.241   0.524   0.890  0.0234  0.3306 -0.2240
 5451TIP3    H116317   2.263   0.571   0.810  0.4412  0.6153  0.0593
 5451TIP3    H216318   2.321   0.525   0.942 -0.6042  1.2908  0.7726
 5452TIP3   OH216319   7.028   0.422   4.238 -0.2621  0.0884 -0.5193
 5452TIP3    H116320   7.052   0.511   4.262 -0.3059 -1.0021  4.7365
 5452TIP3    H216321   7.106   0.386   4.196  0.8767  1.6798  0.1654
 5453TIP3   OH216322   3.221   3.727   2.675  0.4258 -0.0476 -0.3866
 5453TIP3    H116323   3.164   3.651   2.673  1.2306 -0.6649 -0.6854
 5453TIP3    H216324   3.310   3.691   2.667  0.9145  0.8261  0.6753
 5454TIP3   OH216325   3.710   4.721   5.484 -0.2681  0.6602  0.2538
 5454TIP3    H116326   3.646   4.708   5.415  1.0516 -1.4617 -0.6600
 5454TIP3    H216327   3.664   4.774   5.550 -2.4248  0.4727 -1.0155
 5455TIP3   OH216328   4.132   6.473   5.527  0.2326 -0.1945  0.5383
 5455TIP3    H116329   4.161   6.419   5.454 -1.0675 -0.6819  0.3464
 5455TIP3    H216330   4.190   6.450   5.600  0.4909 -0.9164  0.1058
 5456TIP3   OH216331   2.071   4.101   1.938 -0.0731  0.2949  0.5096
 5456TIP3    H116332   2.006   4.042   1.898  0.9341  0.0270 -0.7951
 5456TIP3    H216333   2.155   4.067   1.908  0.5362  2.4066 -0.2974
 5457TIP3   OH216334   4.085   5.453   1.347  0.2854 -0.4206 -0.2713
 5457TIP3    H116335   4.107   5.501   1.427  0.5152 -1.0274  0.0295
 5457TIP3    H216336   4.128   5.368   1.356  0.7960 -0.2934 -1.2990
 5458TIP3   OH216337   4.571   4.741   0.195 -0.1465  0.4007 -0.2766
 5458TIP3    H116338   4.509   4.811   0.217  1.7116  2.0281  0.0253
 5458TIP3    H216339   4.518   4.677   0.148 -2.5565  0.5933  1.8912
 5459TIP3   OH216340   6.973   4.753   1.414 -0.2831 -0.0854 -0.3756
 5459TIP3    H116341   6.882   4.727   1.405 -0.2122 -1.7372  2.4408
 5459TIP3    H216342   6.977   4.797   1.499  1.6026 -0.4637 -0.2305
 5460TIP3   OH216343   6.611   1.550   1.965 -0.0268 -0.0845 -0.3334
 5460TIP3    H116344   6.651   1.505   1.890  1.4364  0.7932 -0.1215
 5460TIP3    H216345   6.545   1.608   1.926  0.8472  0.5009 -0.9950
 5461TIP3   OH216346   2.429   4.012   0.402  0.2530  0.3338  0.3409
 5461TIP3    H116347   2.399   4.029   0.491 -0.2288 -0.4084  0.3225
 5461TIP3    H216348   2.494   4.081   0.386  0.6177  0.2644  1.3917
 5462TIP3   OH216349   3.038   1.547   5.778 -0.0977  0.3275 -0.1791
 5462TIP3    H116350   2.989   1.513   5.703  2.4701 -1.6319 -1.1095
 5462TIP3    H216351   3.018   1.640   5.779  0.7514  0.7167 -4.1696
 5463TIP3   OH216352   5.206   1.704   0.647  0.2451 -0.0101  0.5766
 5463TIP3    H116353   5.142   1.775   0.640  0.1951 -0.1567 -0.6749
 5463TIP3    H216354   5.163   1.629   0.606  0.9852 -0.2743  0.2819
 5464TIP3   OH216355   1.385   5.523   4.339  0.3314  0.1884 -0.5179
 5464TIP3    H116356   1.374   5.553   4.249 -2.0993 -1.2288 -0.7986
 5464TIP3    H216357   1.399   5.603   4.390  0.7867  1.1034 -2.0099
 5465TIP3   OH216358   2.450   4.811   3.318 -0.3580 -0.1242 -0.0332
 5465TIP3    H116359   2.393   4.880   3.351 -1.2014 -0.5444 -0.5988
 5465TIP3    H216360   2.403   4.730   3.336  1.0261 -0.6530  1.4726
 5466TIP3   OH216361   3.587   2.049   1.540 -0.0795 -0.2611 -0.0250
 5466TIP3    H116362   3.677   2.082   1.533 -0.1526 -0.3987 -3.7543
 5466TIP3    H216363   3.595   1.954   1.530 -0.6323 -0.1211 -2.7831
 5467TIP3   OH216364   2.732   1.910   1.784  0.3424  0.0715 -0.3023
 5467TIP3    H116365   2.708   1.935   1.873 -0.3118  0.2335 -0.5150
 5467TIP3    H216366   2.811   1.962   1.765 -0.4195  1.2517 -0.3735
 5468TIP3   OH216367   2.872   0.968   0.861  0.4747 -0.3016 -0.2889
 5468TIP3    H116368   2.805   0.915   0.905  0.4200  0.4471  0.5486
 5468TIP3    H216369   2.934   0.990   0.930  0.4137  0.8619 -0.5900
 5469TIP3   OH216370   2.331   5.643   3.407 -0.0951 -0.2274  0.1070
 5469TIP3    H116371   2.333   5.738   3.422 -2.2312  0.2942 -2.2224
 5469TIP3    H216372   2.356   5.605   3.491  1.7760  2.3768  0.8678
 5470TIP3   OH216373   4.513   6.265   3.974  0.0120  0.2750  0.1482
 5470TIP3    H116374   4.558   6.301   3.897  1.4436  0.5056  1.0537
 5470TIP3    H216375   4.420   6.271   3.952  0.3845  0.1319 -1.6505
 5471TIP3   OH216376   0.696   0.983   5.473 -0.1945 -0.0462  0.4796
 5471TIP3    H116377   0.635   0.978   5.547  1.6457  0.5226  2.1177
 5471TIP3    H216378   0.701   0.893   5.441  0.1287 -0.6422  2.0751
 5472TIP3   OH216379   5.276   1.883   2.880 -0.1680  0.4059 -0.5077
 5472TIP3    H116380   5.254   1.820   2.949 -0.6651  0.4712 -0.6031
 5472TIP3    H216381   5.283   1.967   2.925 -0.0593  0.3743 -0.4668
 5473TIP3   OH216382   6.985   4.717   1.868 -0.1871  0.0626 -0.5265
 5473TIP3    H116383   6.945   4.783   1.812  1.3521  0.3060 -1.3898
 5473TIP3    H216384   7.008   4.765   1.948  0.3367  0.4464 -0.8951
 5474TIP3   OH216385   5.026   5.675   5.514 -0.1975 -0.7997  0.0066
 5474TIP3    H116386   4.972   5.596   5.518  0.7071 -1.6390 -2.5498
 5474TIP3    H216387   5.115   5.645   5.533  0.5015 -0.8831 -3.0276
 5475TIP3   OH216388   2.952   4.787   5.831 -0.6663 -0.2418 -0.0058
 5475TIP3    H116389   2.860   4.790   5.804 -0.7750 -0.1867  0.3593
 5475TIP3    H216390   2.993   4.861   5.786 -1.5570  1.9571  2.5335
 5476TIP3   OH216391   6.269   2.154   3.833  0.2721 -0.0514 -0.0156
 5476TIP3    H116392   6.364   2.142   3.840  0.2723  0.2125  0.4960
 5476TIP3    H216393   6.250   2.230   3.888 -0.1152  0.4936 -0.8876
 5477TIP3   OH216394   1.248   5.917   0.477 -0.3159 -0.0718  0.0922
 5477TIP3    H116395   1.253   5.826   0.447 -1.9312 -0.3534  0.6050
 5477TIP3    H216396   1.158   5.944   0.459 -0.7711  0.4086  2.6663
 5478TIP3   OH216397   0.331   0.043   2.811 -0.4670 -0.4232 -0.4789
 5478TIP3    H116398   0.250  -0.009   2.804 -0.0147 -1.2241  0.1554
 5478TIP3    H216399   0.381   0.001   2.881 -0.4682  1.4020  0.6638
 5479TIP3   OH216400   1.458   1.190   4.704  0.9648 -0.7256  0.3873
 5479TIP3    H116401   1.473   1.149   4.789 -1.1925  0.5563  1.4701
 5479TIP3    H216402   1.371   1.161   4.678  0.3572  1.2217  0.0734
 5480TIP3   OH216403   1.380   4.406   3.828 -0.0150 -0.7813  0.4394
 5480TIP3    H116404   1.341   4.334   3.879  1.1901 -2.5917 -1.0548
 5480TIP3    H216405   1.401   4.473   3.893 -2.8771 -0.9151  1.6634
 5481TIP3   OH216406   1.100   2.887   1.013  0.2794 -0.3018  0.1858
 5481TIP3    H116407   1.040   2.954   0.980 -0.0552 -1.0954 -0.8455
 5481TIP3    H216408   1.181   2.935   1.030  0.2066  0.2976 -1.0114
 5482TIP3   OH216409   6.929   3.015   4.423 -0.2650  0.1296 -0.2095
 5482TIP3    H116410   6.925   2.928   4.461  2.3303  0.3188  0.6902
 5482TIP3    H216411   6.840   3.049   4.430 -0.9762 -1.8390  0.8803
 5483TIP3   OH216412   0.619   4.076   0.009 -0.0077 -0.1922  0.0045
 5483TIP3    H116413   0.608   4.045   0.099  1.1413 -0.6573 -0.0004
 5483TIP3    H216414   0.713   4.090  -0.001 -0.0171 -0.8901 -1.3551
 5484TIP3   OH216415   1.916   3.481   2.126 -0.0940  0.2271  0.2286
 5484TIP3    H116416   1.981   3.549   2.142  1.6077 -1.4986  0.9754
 5484TIP3    H216417   1.864   3.479   2.207  1.0230 -0.5466  0.9599
 5485TIP3   OH216418   6.947   2.010   4.552  0.5191  0.0398  0.1634
 5485TIP3    H116419   6.895   1.976   4.625 -0.2137 -0.6594 -0.6597
 5485TIP3    H216420   6.924   2.103   4.548 -0.2588 -0.1478  0.1588
 5486TIP3   OH216421   4.753   0.890   2.659  0.3181  0.5451  0.5254
 5486TIP3    H116422   4.719   0.801   2.663 -0.5143  0.7416 -1.2828
 5486TIP3    H216423   4.793   0.897   2.572  1.0817  1.6927  0.9455
 5487TIP3   OH216424   1.769   5.725   0.190 -0.4210  0.0285 -0.2270
 5487TIP3    H116425   1.726   5.726   0.104  0.5672 -1.5219 -0.7729
 5487TIP3    H216426   1.773   5.818   0.215 -0.1638  0.5871 -2.1584
 5488TIP3   OH216427   2.451   1.591   3.109  0.0994 -0.1629  0.4463
 5488TIP3    H116428   2.410   1.635   3.034 -0.0163 -0.3599  0.3956
 5488TIP3    H216429   2.391   1.607   3.181 -0.6275 -1.3765  0.1388
 5489TIP3   OH216430   6.503   1.164   3.102 -0.3153  1.0683 -0.6090
 5489TIP3    H116431   6.467   1.244   3.063 -3.5881 -0.4963 -1.1256
 5489TIP3    H216432   6.439   1.139   3.169  1.1122 -0.6404  0.2191
 5490TIP3   OH216433   5.042   0.851   0.328 -0.1947  0.6188 -0.8651
 5490TIP3    H116434   5.032   0.946   0.327 -2.6405  0.5687  2.5587
 5490TIP3    H216435   4.971   0.819   0.273 -0.9156  0.7799 -0.0498
 5491TIP3   OH216436   6.659   2.037   2.839  0.2507  0.2235  0.1726
 5491TIP3    H116437   6.583   1.998   2.796 -0.1269  1.0789  0.0421
 5491TIP3    H216438   6.656   2.003   2.929 -1.2803  1.5702  0.6655
 5492TIP3   OH216439   1.588   5.291   4.315 -0.3524 -0.2051  0.4441
 5492TIP3    H116440   1.614   5.265   4.226 -1.6828 -0.9365  0.2419
 5492TIP3    H216441   1.499   5.323   4.305 -0.7555 -0.9190  1.6068
 5493TIP3   OH216442   5.102   0.916   4.416  0.1563 -0.0948  0.1606
 5493TIP3    H116443   5.063   0.972   4.483 -0.4689  0.3334 -0.5476
 5493TIP3    H216444   5.179   0.965   4.386  0.6910 -0.4930  0.8771
 5494TIP3   OH216445   0.069   3.269   2.503  0.1174  0.0108 -0.4818
 5494TIP3    H116446   0.099   3.197   2.449  0.7564  1.9110 -2.8616
 5494TIP3    H216447  -0.026   3.269   2.492  0.2405  0.4137 -1.7726
 5495TIP3   OH216448   6.556   2.850   1.397  0.0933 -0.0488 -0.5469
 5495TIP3    H116449   6.627   2.893   1.444 -0.1759  0.0553 -0.2227
 5495TIP3    H216450   6.594   2.769   1.364 -0.1747 -1.0718  1.4823
 5496TIP3   OH216451   1.438   0.055   4.082  0.0079 -0.1661 -0.0833
 5496TIP3    H116452   1.449   0.046   3.987 -2.2790 -0.4944 -0.3720
 5496TIP3    H216453   1.456  -0.033   4.117 -1.2889 -0.6115 -0.4869
 5497TIP3   OH216454   0.117   3.395   5.627  0.2223  0.5819 -0.1928
 5497TIP3    H116455   0.077   3.451   5.561  0.8363 -0.2982 -1.3282
 5497TIP3    H216456   0.204   3.374   5.593 -0.5172 -2.2769 -0.5387
 5498TIP3   OH216457   2.586   5.125   2.282 -0.0443 -0.4289  0.0650
 5498TIP3    H116458   2.584   5.171   2.198  1.3851  0.2412  0.3727
 5498TIP3    H216459   2.606   5.034   2.259 -0.0322 -0.3270 -0.3407
 5499TIP3   OH216460   0.690   5.782   0.772  0.1145 -0.0039  0.2131
 5499TIP3    H116461   0.652   5.718   0.712  0.6368 -0.0848 -0.0319
 5499TIP3    H216462   0.622   5.848   0.782  0.3074  0.4161 -1.0861
 5500TIP3   OH216463   2.520   5.042   2.958 -0.3635 -0.2256 -0.3574
 5500TIP3    H116464   2.529   4.962   3.009  1.8139  0.6843  0.8358
 5500TIP3    H216465   2.526   5.015   2.867  0.4884 -1.4040  0.0330
 5501TIP3   OH216466   4.650   5.659   2.766 -0.3037 -0.1913  0.6838
 5501TIP3    H116467   4.619   5.720   2.832 -0.2689  1.2047 -0.5339
 5501TIP3    H216468   4.742   5.684   2.752 -0.1318 -0.8736  0.5290
 5502TIP3   OH216469   3.723   5.413   2.316  0.0638  0.2105 -0.1077
 5502TIP3    H116470   3.767   5.401   2.401  0.0703 -0.0780 -0.1506
 5502TIP3    H216471   3.708   5.507   2.310  0.9170  0.3478 -0.2079
 5503TIP3   OH216472   3.780   2.589   5.099  0.3487 -0.1600  0.2272
 5503TIP3    H116473   3.778   2.666   5.156  0.8588  0.5510 -0.6833
 5503TIP3    H216474   3.865   2.594   5.055  0.4227 -1.3001  0.2204
 5504TIP3   OH216475   2.589   5.854   5.500 -0.6333  0.3459  0.4479
 5504TIP3    H116476   2.642   5.822   5.573 -0.8788  0.7664  0.8129
 5504TIP3    H216477   2.638   5.927   5.464  0.1285 -0.6663 -0.6467
 5505TIP3   OH216478   5.029   3.062   5.847  0.3604 -0.5453  0.7523
 5505TIP3    H116479   4.971   3.080   5.921 -1.6090  1.3282 -1.1046
 5505TIP3    H216480   5.026   2.967   5.837 -1.2247 -0.6245  1.6313
 5506TIP3   OH216481   3.722   5.070   3.222  0.5808 -0.1854 -0.1548
 5506TIP3    H116482   3.759   5.136   3.164  1.7507  0.6727  1.4838
 5506TIP3    H216483   3.651   5.115   3.267  1.2356 -0.0713  0.8019
 5507TIP3   OH216484   3.460   3.168   4.875  0.1553  0.1637 -0.5942
 5507TIP3    H116485   3.396   3.154   4.945  0.5096  1.0905 -0.0700
 5507TIP3    H216486   3.421   3.125   4.799  0.1612 -1.6522  0.3571
 5508TIP3   OH216487   3.125   1.526   3.320 -0.0511 -0.3209  0.0416
 5508TIP3    H116488   3.171   1.466   3.261 -0.9410 -1.1076  0.1126
 5508TIP3    H216489   3.054   1.562   3.266 -0.1235 -0.1047  0.2817
 5509TIP3   OH216490   2.212   5.329   4.745  0.1145 -0.3945 -0.4309
 5509TIP3    H116491   2.191   5.413   4.703 -0.3137 -0.7553 -0.9617
 5509TIP3    H216492   2.176   5.337   4.833 -1.3732 -0.5953 -0.9850
 5510TIP3   OH216493   6.343   0.597   2.649 -0.0140  0.2097 -0.0813
 5510TIP3    H116494   6.300   0.514   2.672  0.7159  0.0960  0.9589
 5510TIP3    H216495   6.415   0.572   2.592  0.8197 -0.0141  1.0283
 5511TIP3   OH216496   6.863   1.288   1.510 -0.3694 -0.1413  0.1834
 5511TIP3    H116497   6.889   1.204   1.473  0.4450  0.5549 -0.8652
 5511TIP3    H216498   6.915   1.353   1.463  1.2510  0.7855  2.9898
 5512TIP3   OH216499   4.909   1.736   3.777  0.0066 -0.7553  0.4477
 5512TIP3    H116500   4.861   1.654   3.788  1.5157 -1.6818  0.4600
 5512TIP3    H216501   4.921   1.769   3.865  0.9852 -1.4943  0.6027
 5513TIP3   OH216502   0.656   3.696   4.590  0.1403  0.4986  0.0999
 5513TIP3    H116503   0.686   3.683   4.500 -0.3339  0.2448 -0.0263
 5513TIP3    H216504   0.565   3.667   4.589  0.6666 -1.2954  1.0990
 5514TIP3   OH216505   4.519   6.139   2.994  0.2644 -0.2712 -0.0871
 5514TIP3    H116506   4.464   6.138   3.072  0.6589 -0.3150  0.1923
 5514TIP3    H216507   4.459   6.163   2.923  0.4511  2.8957  0.6680
 5515TIP3   OH216508   3.891   0.635   1.876  0.7741  0.1996  0.4163
 5515TIP3    H116509   3.968   0.607   1.826 -0.1150 -0.1852 -0.7634
 5515TIP3    H216510   3.873   0.724   1.844  0.1268 -0.0960 -0.0629
 5516TIP3   OH216511   2.462   3.401   1.152 -0.0379 -0.2557 -0.1572
 5516TIP3    H116512   2.461   3.365   1.063 -1.1513  0.9017 -0.6308
 5516TIP3    H216513   2.372   3.429   1.168  0.3826  0.5358  0.9331
 5517TIP3   OH216514   6.694   6.064   1.393  0.5511 -0.4057  0.2061
 5517TIP3    H116515   6.751   6.121   1.340  0.0156  0.7461  0.8249
 5517TIP3    H216516   6.744   5.984   1.404  1.4146  0.0057 -0.5499
 5518TIP3   OH216517   1.880   4.328   4.503  0.1616 -0.2617 -0.0115
 5518TIP3    H116518   1.802   4.341   4.450 -1.0044  0.4149  1.7911
 5518TIP3    H216519   1.853   4.267   4.571  1.7011 -1.3312 -0.3000
 5519TIP3   OH216520   6.874   5.224   4.235  0.1900 -0.3186  0.0760
 5519TIP3    H116521   6.811   5.246   4.304  1.1903  1.1501  0.5920
 5519TIP3    H216522   6.834   5.152   4.187 -1.5953  0.1727  0.7475
 5520TIP3   OH216523   0.632   3.498   3.049  0.2566 -0.5696 -0.1476
 5520TIP3    H116524   0.547   3.457   3.063 -0.0622  0.4614  1.1583
 5520TIP3    H216525   0.612   3.586   3.019  0.8810 -0.5909 -0.6431
 5521TIP3   OH216526   0.453   6.624   0.760 -0.8016  0.4916  0.4285
 5521TIP3    H116527   0.457   6.711   0.800 -2.7915 -0.2050  2.3306
 5521TIP3    H216528   0.373   6.625   0.708 -1.3546 -0.4574  1.2216
 5522TIP3   OH216529   3.065   4.186   2.921  0.0214 -0.1961 -0.0700
 5522TIP3    H116530   3.095   4.203   2.832  1.8632 -1.1063  0.3339
 5522TIP3    H216531   3.104   4.256   2.973  0.7682 -0.8852  0.3242
 5523TIP3   OH216532   6.062   2.236   2.836  0.1752 -0.3077  0.7345
 5523TIP3    H116533   5.997   2.222   2.767  0.4352  2.2252 -0.1408
 5523TIP3    H216534   6.050   2.163   2.896 -3.3297 -0.0733  0.4963
 5524TIP3   OH216535   6.710   1.920   0.027 -0.6591 -0.0395 -0.3320
 5524TIP3    H116536   6.688   1.854   0.093  1.0501  0.2409  0.5811
 5524TIP3    H216537   6.734   1.998   0.078  0.5020  0.2523 -1.2799
 5525TIP3   OH216538   2.941   1.864   1.169  0.3635  0.3692 -0.3184
 5525TIP3    H116539   2.916   1.771   1.165  4.5551 -0.9163 -3.2154
 5525TIP3    H216540   2.888   1.906   1.102 -0.7219 -0.1172  0.1988
 5526TIP3   OH216541   6.151   3.468   3.467 -0.5223 -0.0775 -0.3772
 5526TIP3    H116542   6.151   3.373   3.479 -1.8082 -0.0221  0.2243
 5526TIP3    H216543   6.086   3.483   3.399 -1.4124  0.4504  0.5516
 5527TIP3   OH216544   5.646   0.350   2.545 -0.3089 -0.3435 -0.0798
 5527TIP3    H116545   5.591   0.416   2.589 -0.8499 -1.8292  1.5937
 5527TIP3    H216546   5.583   0.296   2.498  0.2717  1.2803 -2.9359
 5528TIP3   OH216547   1.471   1.014   0.376 -0.3016 -0.0538 -0.1570
 5528TIP3    H116548   1.468   1.084   0.311  0.7056 -0.9953 -1.2732
 5528TIP3    H216549   1.394   0.960   0.357 -1.1654  0.8082  0.8048
 5529TIP3   OH216550   6.651   1.582   2.616  0.6229 -0.6703  0.0441
 5529TIP3    H116551   6.572   1.583   2.561  1.0465 -2.0791 -0.6213
 5529TIP3    H216552   6.714   1.636   2.569  0.1393  0.2875  0.4733
 5530TIP3   OH216553   3.082   3.847   0.374  0.7858  0.1504 -0.1732
 5530TIP3    H116554   3.110   3.868   0.285 -0.9251 -2.7899 -1.5678
 5530TIP3    H216555   2.995   3.810   0.364 -0.3164  1.5032  3.0209
 5531TIP3   OH216556   0.882   5.454   1.807  0.4081 -0.2953  0.0452
 5531TIP3    H116557   0.950   5.507   1.765  1.4806 -2.5351 -1.2240
 5531TIP3    H216558   0.909   5.450   1.899 -0.5576  2.5116  0.5693
 5532TIP3   OH216559   4.028   1.288   4.842 -0.6487  0.3691  0.0359
 5532TIP3    H116560   4.039   1.280   4.747  1.5319  0.1554  0.2530
 5532TIP3    H216561   4.067   1.373   4.863 -0.8888  0.2979  0.7830
 5533TIP3   OH216562   4.069   6.577   5.142  0.3686 -0.0131 -0.3790
 5533TIP3    H116563   4.002   6.534   5.195 -0.0186 -0.4518 -1.2113
 5533TIP3    H216564   4.078   6.522   5.064  0.0185  1.2683 -1.3676
 5534TIP3   OH216565   3.165   2.078   2.346 -0.4990 -1.2015  0.2484
 5534TIP3    H116566   3.224   2.012   2.383 -1.1722 -0.8943  1.9655
 5534TIP3    H216567   3.096   2.027   2.303  0.8312 -1.5646 -1.6089
 5535TIP3   OH216568   1.781   1.021   3.953  0.4112  0.1351  0.4661
 5535TIP3    H116569   1.754   1.062   3.870 -0.6763 -0.9205  0.2795
 5535TIP3    H216570   1.787   0.928   3.933  1.2852  0.0064  1.2918
 5536TIP3   OH216571   4.861   5.913   2.573 -0.2235  0.1870  0.5815
 5536TIP3    H116572   4.837   6.004   2.590 -0.5432  0.4189 -0.9434
 5536TIP3    H216573   4.846   5.901   2.479 -0.3947 -1.5083  0.7846
 5537TIP3   OH216574   5.912   1.110   0.210  1.0428  0.0575 -0.5710
 5537TIP3    H116575   5.877   1.101   0.299  1.5230 -1.6664 -0.5233
 5537TIP3    H216576   5.930   1.204   0.201  0.1533  0.3924  0.8207
 5538TIP3   OH216577   4.345   1.247   5.206 -0.0969  0.0028  0.1399
 5538TIP3    H116578   4.361   1.324   5.151  1.4135 -0.3544  0.0267
 5538TIP3    H216579   4.253   1.254   5.232 -0.2432  1.3250 -0.6568
 5539TIP3   OH216580   2.967   4.411   2.519 -0.2533  0.1440 -0.5560
 5539TIP3    H116581   2.929   4.498   2.509 -1.1833 -0.4135 -2.4627
 5539TIP3    H216582   3.017   4.399   2.438  1.0254 -0.5650  0.3158
 5540TIP3   OH216583   6.897   4.480   2.919  0.0512  0.0663 -0.0619
 5540TIP3    H116584   6.816   4.446   2.882 -0.2344 -0.4078  0.9633
 5540TIP3    H216585   6.880   4.573   2.933 -0.3149 -0.0324  0.1544
 5541TIP3   OH216586   5.647   3.191   3.985 -0.2631 -0.0991 -0.1011
 5541TIP3    H116587   5.733   3.227   3.965  0.7080 -1.9003  0.6791
 5541TIP3    H216588   5.645   3.185   4.081 -0.9844 -0.7201 -0.1449
 5542TIP3   OH216589   2.313   4.458   2.410  0.2681  0.3909 -0.0214
 5542TIP3    H116590   2.375   4.530   2.416  0.9374 -0.1386 -0.3427
 5542TIP3    H216591   2.367   4.379   2.420 -0.3679 -0.0785 -0.2130
 5543TIP3   OH216592   5.424   3.133   1.457 -0.0247 -0.0316  0.0940
 5543TIP3    H116593   5.424   3.192   1.532 -0.5080 -2.2708  1.9738
 5543TIP3    H216594   5.494   3.070   1.476  1.2526  0.5036 -2.3929
 5544TIP3   OH216595   4.039   0.488   3.333 -0.3833 -0.3731  0.9511
 5544TIP3    H116596   4.134   0.477   3.341 -0.3268 -0.6932  0.0248
 5544TIP3    H216597   4.021   0.571   3.376  0.1924 -0.7191  1.8976
 5545TIP3   OH216598   1.641   2.416   2.377  0.3785 -0.1142 -0.1091
 5545TIP3    H116599   1.629   2.323   2.359  1.2839 -0.2738  0.0307
 5545TIP3    H216600   1.589   2.462   2.312  1.3218 -0.7041 -1.3131
 5546TIP3   OH216601   3.888   2.818   0.193  0.0503 -0.4133 -0.8130
 5546TIP3    H116602   3.845   2.791   0.112  1.0976  1.2253 -1.9866
 5546TIP3    H216603   3.834   2.891   0.226  2.0584  2.0920 -2.6369
 5547TIP3   OH216604   1.565   4.025   0.794 -0.2681  0.1736 -0.8209
 5547TIP3    H116605   1.653   3.988   0.804  0.2269  1.5099  0.1130
 5547TIP3    H216606   1.578   4.120   0.803 -1.5211  0.5931 -2.8139
 5548TIP3   OH216607   6.054   6.397   5.775 -0.5618 -0.4008 -0.2027
 5548TIP3    H116608   5.995   6.423   5.846 -0.7472  1.0780 -0.8561
 5548TIP3    H216609   6.068   6.303   5.788 -2.8775 -0.7613  0.1231
 5549TIP3   OH216610   6.357   0.898   4.868  0.1357 -0.3123  0.0198
 5549TIP3    H116611   6.315   0.928   4.787  0.0175  0.6316  0.4209
 5549TIP3    H216612   6.307   0.820   4.893 -1.1569  0.5753  0.2810
 5550TIP3   OH216613   3.478   3.808   3.863 -0.3763 -0.2315  0.2176
 5550TIP3    H116614   3.423   3.886   3.857  3.1761  2.5185  0.2078
 5550TIP3    H216615   3.494   3.783   3.772 -3.0345 -2.3255  0.2122
 5551TIP3   OH216616   4.611   0.588   2.351 -0.2459  0.1946  0.2218
 5551TIP3    H116617   4.520   0.566   2.372 -0.1163  1.0431  1.7439
 5551TIP3    H216618   4.617   0.683   2.365  0.5072  0.4247 -1.3502
 5552TIP3   OH216619   0.901   3.974   2.240  0.1435  0.4505  0.4043
 5552TIP3    H116620   0.930   4.059   2.206 -0.4183  0.6352  0.3772
 5552TIP3    H216621   0.907   3.915   2.165 -1.4970  0.9502 -0.1641
 5553TIP3   OH216622   3.365   4.776   0.614  0.7428  0.1314  0.4374
 5553TIP3    H116623   3.368   4.839   0.542 -0.8326 -1.0866 -0.7771
 5553TIP3    H216624   3.391   4.826   0.691 -1.1379  2.4811 -0.3495
 5554TIP3   OH216625   3.101   1.632   4.943 -0.4063  0.3096  0.3278
 5554TIP3    H116626   3.026   1.692   4.937  0.5261  1.5499  0.5543
 5554TIP3    H216627   3.177   1.690   4.950  0.6066 -0.9145 -0.1898
 5555TIP3   OH216628   0.878   5.635   2.976 -0.0826  0.5075 -0.0023
 5555TIP3    H116629   0.933   5.645   3.054 -0.7773  0.9238  0.4456
 5555TIP3    H216630   0.898   5.711   2.922  2.1131 -0.9168 -1.3558
 5556TIP3   OH216631   0.699   2.453   5.788 -0.1293  0.0236 -0.3897
 5556TIP3    H116632   0.787   2.445   5.824  0.6745 -0.2649 -2.3095
 5556TIP3    H216633   0.689   2.546   5.769  0.0865 -0.0562 -0.9127
 5557TIP3   OH216634   2.724   4.358   4.028  0.7856 -0.1462  0.3864
 5557TIP3    H116635   2.729   4.454   4.022 -0.0598 -0.0675  0.7948
 5557TIP3    H216636   2.753   4.327   3.942 -2.0876  0.6059 -0.9568
 5558TIP3   OH216637   3.890   3.338   3.401  0.0204  0.0118  0.5458
 5558TIP3    H116638   3.823   3.338   3.333 -3.5266 -0.9973  3.6694
 5558TIP3    H216639   3.911   3.431   3.414 -1.6388  0.4637  0.1993
 5559TIP3   OH216640   3.287   5.519   3.340 -0.3144 -0.2287  0.0887
 5559TIP3    H116641   3.349   5.495   3.408 -0.7006  0.4901  0.7067
 5559TIP3    H216642   3.205   5.535   3.387 -0.4142  0.9636 -0.4519
 5560TIP3   OH216643   4.489   2.423   4.711 -0.1169 -0.4018 -0.2915
 5560TIP3    H116644   4.435   2.501   4.703 -0.7413 -0.4104  2.6494
 5560TIP3    H216645   4.501   2.393   4.621  0.5622  3.2940 -1.6273
 5561TIP3   OH216646   7.137   3.265   2.142  0.2795 -0.2132  0.1258
 5561TIP3    H116647   7.076   3.206   2.098 -1.7307  1.6418  0.2382
 5561TIP3    H216648   7.143   3.231   2.231 -1.2722  0.0022  0.3408
 5562TIP3   OH216649   5.885   6.133   1.731  0.3188  0.2533 -0.4760
 5562TIP3    H116650   5.830   6.056   1.745  0.6693  0.0222 -0.3672
 5562TIP3    H216651   5.931   6.145   1.814  0.4734  0.4126 -0.5852
 5563TIP3   OH216652   4.345   1.399   4.712  0.3157  0.0810 -0.6338
 5563TIP3    H116653   4.356   1.481   4.664 -0.9988  1.4310  1.1921
 5563TIP3    H216654   4.254   1.375   4.697  0.2610 -0.1839  0.0870
 5564TIP3   OH216655   3.761   2.962   4.487  0.3685 -0.1230  0.2038
 5564TIP3    H116656   3.726   2.935   4.401  2.8992  0.5537 -1.1485
 5564TIP3    H216657   3.854   2.937   4.484  0.3033 -1.1404  3.2648
 5565TIP3   OH216658   3.631   3.229   3.814 -0.3415  0.0180 -0.4084
 5565TIP3    H116659   3.543   3.264   3.831 -1.2901 -2.3185 -0.0164
 5565TIP3    H216660   3.638   3.227   3.719 -0.4076  0.8936 -0.4361
 5566TIP3   OH216661   0.995   2.096   0.548  0.1691  0.3776 -0.0217
 5566TIP3    H116662   0.907   2.107   0.586  0.0261  0.9964 -0.5190
 5566TIP3    H216663   1.025   2.012   0.584 -0.6832  0.0810  0.0494
 5567TIP3   OH216664   1.321   6.743   1.901 -0.0692 -0.5782  0.0213
 5567TIP3    H116665   1.245   6.727   1.957 -0.7171 -2.1541 -1.2333
 5567TIP3    H216666   1.355   6.656   1.881  1.6342  0.0662 -0.0628
 5568TIP3   OH216667   5.470   3.925   1.775 -0.0920 -0.6040 -0.3367
 5568TIP3    H116668   5.516   3.858   1.724 -1.4952 -1.7197 -0.2177
 5568TIP3    H216669   5.379   3.893   1.780 -0.2623  0.0351  1.8654
 5569TIP3   OH216670   3.168   5.451   3.653  0.3891  0.2823 -0.2754
 5569TIP3    H116671   3.194   5.446   3.745  3.1199  0.3520 -0.9483
 5569TIP3    H216672   3.116   5.531   3.648  1.1590  0.9128  1.0437
 5570TIP3   OH216673   7.006   1.345   3.340  0.5313 -0.2730  0.0662
 5570TIP3    H116674   7.008   1.362   3.246 -0.0325 -0.6414 -0.0174
 5570TIP3    H216675   7.032   1.428   3.380 -0.9250  0.4142 -0.3573
 5571TIP3   OH216676   7.038   4.094   4.144  0.2226  0.1239 -0.8188
 5571TIP3    H116677   7.080   4.135   4.069  0.5652 -0.3600 -0.8960
 5571TIP3    H216678   7.017   4.167   4.202  1.1111  0.3891 -0.8096
 5572TIP3   OH216679   5.121   0.917   2.201 -0.0180 -0.3624  0.1612
 5572TIP3    H116680   5.136   0.990   2.260 -0.4693 -0.0331 -0.1292
 5572TIP3    H216681   5.042   0.940   2.153  0.2619 -0.6901 -0.4706
 5573TIP3   OH216682   1.785   1.115   2.905 -0.4393  0.0915  0.0155
 5573TIP3    H116683   1.760   1.171   2.979 -3.0294  0.2650 -0.8831
 5573TIP3    H216684   1.789   1.175   2.830 -1.3773 -0.5845 -0.6064
 5574TIP3   OH216685   1.405   5.939   2.677  0.1607  0.0154  0.0361
 5574TIP3    H116686   1.488   5.984   2.690  0.7797 -0.6788 -1.3122
 5574TIP3    H216687   1.374   5.969   2.592  0.3938 -1.7418 -0.7131
 5575TIP3   OH216688   3.472   0.213   0.061  0.9832  0.0433  0.6230
 5575TIP3    H116689   3.459   0.205  -0.033 -1.8428  0.8791  0.8521
 5575TIP3    H216690   3.522   0.294   0.072 -1.8347  2.0638 -0.1281
 5576TIP3   OH216691   6.042   2.450   5.146  0.5021  0.5834  0.0500
 5576TIP3    H116692   6.048   2.358   5.122  0.8385  0.7136 -0.3882
 5576TIP3    H216693   5.948   2.468   5.150  0.4293  0.1456  0.4611
 5577TIP3   OH216694   3.453   1.690   2.199  0.2831 -0.0787 -0.0588
 5577TIP3    H116695   3.541   1.697   2.162  0.4653 -1.0490  0.1626
 5577TIP3    H216696   3.401   1.752   2.148  0.8759 -0.2383 -0.8840
 5578TIP3   OH216697   0.438   1.409   1.912 -0.5918  0.0459  0.2088
 5578TIP3    H116698   0.374   1.462   1.863 -0.7851  0.3120  0.7430
 5578TIP3    H216699   0.505   1.472   1.938  0.3375 -0.3763 -1.0643
 5579TIP3   OH216700   5.615   5.293   5.297 -0.9884  0.0207  0.1350
 5579TIP3    H116701   5.660   5.276   5.214 -0.3594 -0.7542  0.6168
 5579TIP3    H216702   5.535   5.242   5.292 -1.5249  0.8891 -0.4587
 5580TIP3   OH216703   5.212   1.208   1.208 -0.3650  0.3355  0.1752
 5580TIP3    H116704   5.306   1.203   1.226 -0.7019 -1.2052  1.7165
 5580TIP3    H216705   5.205   1.188   1.115  0.7195 -1.3451  0.4115
 5581TIP3   OH216706   6.173   5.558   5.423 -0.3230  0.6020 -0.2018
 5581TIP3    H116707   6.103   5.549   5.487 -0.3375  0.8835 -0.1786
 5581TIP3    H216708   6.219   5.638   5.448 -1.3746  1.6741 -1.5528
 5582TIP3   OH216709   6.906   3.976   0.100 -0.7342 -0.5032  0.4034
 5582TIP3    H116710   6.976   3.929   0.147 -0.2674  0.8379  1.1102
 5582TIP3    H216711   6.925   3.960   0.008  0.4607 -0.2775  0.5837
 5583TIP3   OH216712   3.242   2.344   4.519 -0.0032  0.3134  0.2439
 5583TIP3    H116713   3.332   2.371   4.538  0.0819 -1.2513  2.3990
 5583TIP3    H216714   3.192   2.426   4.518  0.7178  0.9066  3.5760
 5584TIP3   OH216715   3.369   1.023   0.581 -0.6012  0.4349 -0.1857
 5584TIP3    H116716   3.337   0.939   0.615  3.3653 -1.3085 -0.2244
 5584TIP3    H216717   3.327   1.033   0.496 -0.7195 -1.9044 -0.4645
 5585TIP3   OH216718   3.494   1.579   5.298  0.2475 -0.0324 -0.0910
 5585TIP3    H116719   3.443   1.659   5.306 -0.5322 -0.5339  0.1076
 5585TIP3    H216720   3.522   1.559   5.388 -1.3833 -1.1202  0.2250
 5586TIP3   OH216721   5.716   6.284   3.111  0.1704  0.0069 -0.7915
 5586TIP3    H116722   5.687   6.368   3.148 -1.0980 -0.7822  0.0694
 5586TIP3    H216723   5.638   6.249   3.069  0.3757 -1.2924 -0.1124
 5587TIP3   OH216724   2.721   6.143   4.622 -0.0419 -0.5907  0.4395
 5587TIP3    H116725   2.700   6.225   4.667  2.5427 -0.5338  1.7390
 5587TIP3    H216726   2.671   6.147   4.540  0.3556  2.5291  0.2285
 5588TIP3   OH216727   2.865   1.373   5.605 -0.8259  0.2114 -0.3154
 5588TIP3    H116728   2.855   1.278   5.609 -2.4703  0.3837  0.1731
 5588TIP3    H216729   2.912   1.390   5.523 -0.7481 -0.9913 -0.5267
 5589TIP3   OH216730   1.192   0.825   4.869 -0.3239  0.5083  0.1828
 5589TIP3    H116731   1.275   0.808   4.912 -0.4910  0.5264  0.5183
 5589TIP3    H216732   1.138   0.867   4.936 -0.9240 -0.3429  0.2620
 5590TIP3   OH216733   4.619   3.818   3.420 -0.1631  0.3262  0.3222
 5590TIP3    H116734   4.635   3.880   3.349 -0.4330  1.4824  1.2425
 5590TIP3    H216735   4.684   3.749   3.407  0.7783  1.2817 -0.1738
 5591TIP3   OH216736   4.198   0.750   4.134  0.2918 -0.7298  0.0441
 5591TIP3    H116737   4.168   0.776   4.221  2.0238 -1.0188  0.7580
 5591TIP3    H216738   4.163   0.661   4.122 -0.2685 -0.5441  0.2705
 5592TIP3   OH216739   1.424   5.282   5.753 -0.4850 -0.2284  0.0475
 5592TIP3    H116740   1.421   5.378   5.753  1.0169 -0.1483 -0.2545
 5592TIP3    H216741   1.355   5.256   5.693 -2.0372  0.5837  1.4225
 5593TIP3   OH216742   4.492   3.962   0.084  0.1146  0.4489  0.1255
 5593TIP3    H116743   4.417   3.905   0.100  0.5861  0.3800  2.4644
 5593TIP3    H216744   4.469   4.045   0.126  1.4591  0.3010  1.2260
 5594TIP3   OH216745   5.737   0.167   3.044 -0.2243 -0.1507 -0.2229
 5594TIP3    H116746   5.771   0.172   2.955 -0.8449 -1.1885 -0.5418
 5594TIP3    H216747   5.799   0.111   3.091 -1.1271 -1.5973 -0.6644
 5595TIP3   OH216748   3.580   1.273   3.148 -0.2809 -0.4149  0.3992
 5595TIP3    H116749   3.559   1.293   3.057 -1.2157  1.3641  0.9600
 5595TIP3    H216750   3.663   1.317   3.164  0.3316 -1.4483  0.2051
 5596TIP3   OH216751   5.700   3.981   0.667 -0.6238 -0.3582  0.1962
 5596TIP3    H116752   5.732   3.893   0.646  3.3917  0.5748  1.5430
 5596TIP3    H216753   5.774   4.038   0.651 -2.3030  2.4714  1.7607
 5597TIP3   OH216754   4.677   5.785   5.100  0.0952 -0.1767  0.0950
 5597TIP3    H116755   4.706   5.874   5.083 -0.0415 -0.1388  0.0569
 5597TIP3    H216756   4.757   5.733   5.098  0.0324 -0.2553 -1.2406
 5598TIP3   OH216757   6.143   3.121   4.083 -0.0635 -0.3490  0.2968
 5598TIP3    H116758   6.141   3.122   3.987  1.7533 -1.2504  0.2178
 5598TIP3    H216759   6.214   3.181   4.106 -0.5778 -0.0324  1.0983
 5599TIP3   OH216760   6.087   1.804   4.270  0.7147 -0.1650  0.3698
 5599TIP3    H116761   6.018   1.768   4.326  1.3068  0.1519  1.3413
 5599TIP3    H216762   6.142   1.729   4.248  1.1231 -0.1106  1.1756
 5600TIP3   OH216763   0.441   3.288   2.671  0.3495 -0.1662 -0.0690
 5600TIP3    H116764   0.365   3.257   2.720  1.1016  1.6734  2.4687
 5600TIP3    H216765   0.512   3.229   2.698  0.0117 -1.6734 -2.1825
 5601TIP3   OH216766   5.840   3.261   0.645  0.1559  0.0679 -0.2326
 5601TIP3    H116767   5.878   3.194   0.703  0.3406 -1.9789 -2.5548
 5601TIP3    H216768   5.766   3.217   0.604  0.8025  0.9721 -2.4789
 5602TIP3   OH216769   4.486   4.699   1.567  0.4657  0.1399  1.0296
 5602TIP3    H116770   4.490   4.788   1.602  0.5827  0.0572  1.2282
 5602TIP3    H216771   4.487   4.643   1.644 -2.4422  0.0090  1.0654
 5603TIP3   OH216772   2.521   0.363   3.514 -0.3490  0.1085  0.3620
 5603TIP3    H116773   2.427   0.363   3.530 -0.2289 -0.9816  1.2232
 5603TIP3    H216774   2.531   0.403   3.428 -1.6379 -0.2618  0.0184
 5604TIP3   OH216775   2.282   2.924   1.826 -0.0015 -0.1567 -0.1999
 5604TIP3    H116776   2.256   2.981   1.754  0.8153 -1.9726 -2.0385
 5604TIP3    H216777   2.210   2.930   1.888 -1.7709 -0.0868 -2.1399
 5605TIP3   OH216778   1.875   2.276   2.155  0.1123  0.0124  0.2148
 5605TIP3    H116779   1.843   2.223   2.228 -0.7324  2.0965  1.4593
 5605TIP3    H216780   1.844   2.231   2.077 -1.9500 -0.5017  1.2580
 5606TIP3   OH216781   2.749   0.510   5.317  0.2327  0.6449 -0.2334
 5606TIP3    H116782   2.823   0.487   5.260 -0.2868 -0.0270 -0.6489
 5606TIP3    H216783   2.720   0.426   5.353  0.0442  0.9755  0.3944
 5607TIP3   OH216784   6.587   3.853   4.492 -0.2993  0.2653 -0.7432
 5607TIP3    H116785   6.550   3.783   4.439 -2.4755  0.5434  0.2886
 5607TIP3    H216786   6.680   3.832   4.499 -0.4465 -1.1684 -2.4532
 5608TIP3   OH216787   6.555   0.132   1.708 -0.5751  0.2229  0.4119
 5608TIP3    H116788   6.496   0.069   1.665  0.6944 -0.7442  0.0275
 5608TIP3    H216789   6.542   0.214   1.660 -2.1112  0.2328  0.7858
 5609TIP3   OH216790   3.919   1.678   5.826 -0.4706  0.2089 -0.0311
 5609TIP3    H116791   4.006   1.643   5.809 -1.0837 -1.5858  0.3333
 5609TIP3    H216792   3.922   1.708   5.917 -0.1177  0.5525 -0.1544
 5610TIP3   OH216793   4.920   2.084   5.652  0.0257 -0.0034 -0.3328
 5610TIP3    H116794   4.846   2.047   5.604 -0.6030 -0.1049  0.6839
 5610TIP3    H216795   4.991   2.086   5.588  0.0843 -2.9006 -0.4774
 5611TIP3   OH216796   0.813   6.129   3.022  0.0799 -0.0335  0.0016
 5611TIP3    H116797   0.820   6.047   3.070 -1.3181  0.0352  0.3747
 5611TIP3    H216798   0.894   6.176   3.041  0.1660 -0.6207  1.1279
 5612TIP3   OH216799   4.343   4.514   3.321 -0.3299 -0.1866  0.1486
 5612TIP3    H116800   4.293   4.585   3.281 -2.5960 -2.2118 -0.9214
 5612TIP3    H216801   4.411   4.494   3.257 -0.0428  0.6304  0.1923
 5613TIP3   OH216802   5.532   2.064   5.280  0.1094  0.0964  0.5326
 5613TIP3    H116803   5.573   2.025   5.204 -0.7064  0.8874 -0.3354
 5613TIP3    H216804   5.544   2.158   5.268  0.5304  0.2177  1.7164
 5614TIP3   OH216805   4.738   3.116   0.481  0.2498  0.0107  0.4439
 5614TIP3    H116806   4.791   3.190   0.510  2.0324 -0.6396 -0.9011
 5614TIP3    H216807   4.790   3.077   0.410 -2.0115 -0.7723 -0.8695
 5615TIP3   OH216808   0.922   4.074   4.688 -0.1430 -0.1877 -0.6263
 5615TIP3    H116809   0.988   4.022   4.734  1.1029  0.3925 -1.6701
 5615TIP3    H216810   0.874   4.119   4.757 -0.2789 -1.5750  0.2225
 5616TIP3   OH216811   1.128   3.915   5.597 -0.6698 -0.4751  0.1004
 5616TIP3    H116812   1.122   4.006   5.626  0.8425 -0.5520  0.7462
 5616TIP3    H216813   1.116   3.864   5.677  0.8443 -0.7638  0.1645
 5617TIP3   OH216814   1.444   1.143   2.620  0.4753  0.3964 -0.0902
 5617TIP3    H116815   1.472   1.056   2.592  0.3339  0.5331 -0.6654
 5617TIP3    H216816   1.394   1.177   2.546  1.4434  1.4002 -0.3025
 5618TIP3   OH216817   3.651   5.586   1.887 -0.0814  0.5018  0.3641
 5618TIP3    H116818   3.608   5.662   1.926  0.8122  0.5512  1.3106
 5618TIP3    H216819   3.716   5.624   1.827 -0.8445  0.4392 -0.5233
 5619TIP3   OH216820   2.406   2.127   5.646 -0.0895  0.3408  0.3086
 5619TIP3    H116821   2.481   2.085   5.603  0.4497  1.8795 -0.3103
 5619TIP3    H216822   2.356   2.166   5.575 -0.4662  0.9193  0.8823
 5620TIP3   OH216823   0.460   0.428   1.121 -0.1201  0.6041 -0.0299
 5620TIP3    H116824   0.432   0.471   1.201 -0.5912 -0.1676  0.2297
 5620TIP3    H216825   0.462   0.497   1.055 -1.4005  0.9122  0.2421
 5621TIP3   OH216826   0.466   2.359   4.290 -0.0060  0.0313 -0.0392
 5621TIP3    H116827   0.440   2.287   4.347  1.1379  0.3624  0.9494
 5621TIP3    H216828   0.489   2.318   4.207  2.3608 -1.0307  1.0443
 5622TIP3   OH216829   6.736   4.186   3.924 -0.4127 -0.0521  0.1345
 5622TIP3    H116830   6.745   4.253   3.991 -0.7688 -0.5757  0.7128
 5622TIP3    H216831   6.792   4.114   3.955  0.9401  0.4330 -1.0815
 5623TIP3   OH216832   0.552   5.975   5.640  0.5197 -0.4642 -0.6209
 5623TIP3    H116833   0.639   5.997   5.672  0.2549 -0.2975 -0.0098
 5623TIP3    H216834   0.520   6.056   5.601 -0.9403  0.7236  2.6977
 5624TIP3   OH216835   5.942   1.720   1.908  0.2625  0.0587  0.2514
 5624TIP3    H116836   5.889   1.760   1.839 -0.3588  1.8501  1.6649
 5624TIP3    H216837   6.027   1.763   1.901  0.6835 -0.8371 -0.3003
 5625TIP3   OH216838   0.966   0.982   0.328 -0.1120 -0.1683 -0.0374
 5625TIP3    H116839   0.922   1.060   0.360 -0.5433 -0.3300 -0.2138
 5625TIP3    H216840   0.917   0.959   0.248 -1.1817 -1.6599  0.9909
 5626TIP3   OH216841   2.235   1.458   5.124 -0.2954  0.1834  0.1964
 5626TIP3    H116842   2.295   1.392   5.091  1.3664  2.5345 -1.8773
 5626TIP3    H216843   2.184   1.484   5.047  0.0767  2.2208  0.5851
 5627TIP3   OH216844   0.877   6.036   5.118 -0.3110  0.0547  0.2890
 5627TIP3    H116845   0.782   6.053   5.121 -0.6966 -1.5066 -1.3201
 5627TIP3    H216846   0.884   5.947   5.083  1.7780  0.2953 -0.0105
 5628TIP3   OH216847   6.830   0.288   3.682 -0.4754 -0.8384 -0.1461
 5628TIP3    H116848   6.910   0.278   3.733  0.3197  0.6966 -1.0227
 5628TIP3    H216849   6.760   0.264   3.742  0.5643 -1.1603  0.9702
 5629TIP3   OH216850   1.190   0.206   4.945  0.4957 -0.3632  0.2567
 5629TIP3    H116851   1.118   0.256   4.906  0.5494 -0.7771 -0.3995
 5629TIP3    H216852   1.244   0.271   4.988  0.6472  0.1770 -0.7204
 5630TIP3   OH216853   5.717   4.667   1.152  0.1353  0.5934 -0.0142
 5630TIP3    H116854   5.706   4.592   1.093  0.3624 -0.4522  1.2074
 5630TIP3    H216855   5.779   4.636   1.219  2.1132  2.6726 -0.7367
 5631TIP3   OH216856   1.372   5.376   3.581  0.9513  0.2012 -0.9126
 5631TIP3    H116857   1.327   5.381   3.496  2.1552 -0.6418 -1.6397
 5631TIP3    H216858   1.465   5.378   3.559  1.2881  0.7232  0.4627
 5632TIP3   OH216859   3.556   0.815   1.470  0.0860 -0.0639 -0.7914
 5632TIP3    H116860   3.640   0.807   1.514  0.1892 -1.1310 -1.1380
 5632TIP3    H216861   3.507   0.738   1.499 -0.1301 -0.3660 -1.9229
 5633TIP3   OH216862   4.672   4.020   1.864 -0.0597 -0.0729  0.2192
 5633TIP3    H116863   4.628   4.000   1.946 -0.6587  3.2687  0.8536
 5633TIP3    H216864   4.681   4.115   1.864  0.7875 -0.0151 -3.1600
 5634TIP3   OH216865   4.405   6.765   5.098 -0.1277 -0.1906 -0.2855
 5634TIP3    H116866   4.455   6.691   5.063  1.4723  1.2012 -1.1120
 5634TIP3    H216867   4.472   6.827   5.128 -1.3783  1.2291 -0.2987
 5635TIP3   OH216868   2.515   6.541   2.080 -0.1778 -0.2485 -0.1342
 5635TIP3    H116869   2.599   6.500   2.101 -0.8018 -1.3324  0.3299
 5635TIP3    H216870   2.511   6.539   1.984  0.0439 -0.7610 -0.1350
 5636TIP3   OH216871   4.394   1.802   1.275  0.2523 -0.0737  1.0311
 5636TIP3    H116872   4.402   1.709   1.294  1.3307  0.3314  2.8844
 5636TIP3    H216873   4.471   1.822   1.221 -1.2378 -0.6512 -1.4598
 5637TIP3   OH216874   7.097   2.325   3.210  0.5409 -0.0484 -0.0909
 5637TIP3    H116875   7.041   2.249   3.225  1.9001 -1.2674 -0.9681
 5637TIP3    H216876   7.109   2.364   3.297 -1.5097  0.1819  0.1427
 5638TIP3   OH216877   4.813   5.954   1.071  0.0179 -0.6414  0.2713
 5638TIP3    H116878   4.764   6.012   1.129  3.1613 -0.0364  2.6202
 5638TIP3    H216879   4.810   5.997   0.985 -2.3302  0.0019  0.6021
 5639TIP3   OH216880   1.347   3.609   5.708 -0.0742 -0.0188  0.0334
 5639TIP3    H116881   1.319   3.693   5.745 -0.1572  0.5504 -1.2492
 5639TIP3    H216882   1.434   3.594   5.745 -1.0613 -0.6702  2.2708
 5640TIP3   OH216883   6.560   6.708   0.726 -0.1850 -0.3181  0.1636
 5640TIP3    H116884   6.629   6.642   0.717 -0.1171 -0.2282  0.0241
 5640TIP3    H216885   6.483   6.659   0.752  0.0273 -0.3721  0.6965
 5641TIP3   OH216886   3.160   5.280   4.879  0.0502 -0.1718  0.2861
 5641TIP3    H116887   3.218   5.204   4.884  0.7570  0.1693 -1.7152
 5641TIP3    H216888   3.202   5.338   4.815 -1.7982  0.7233 -0.1906
 5642TIP3   OH216889   4.546   2.889   3.427 -0.1098 -0.0613  0.3454
 5642TIP3    H116890   4.610   2.893   3.499 -1.2987  0.9508  1.3993
 5642TIP3    H216891   4.568   2.963   3.371  0.1639 -0.2180  0.2454
 5643TIP3   OH216892   4.065   1.425   2.544 -0.1988 -0.3330  0.1135
 5643TIP3    H116893   4.097   1.511   2.570  0.2365 -0.6566  0.6642
 5643TIP3    H216894   3.973   1.439   2.522 -0.0059  0.3676 -0.2883
 5644TIP3   OH216895   1.845   5.529   1.668 -0.0634  0.1470  0.2154
 5644TIP3    H116896   1.828   5.611   1.715 -0.7655  0.1530 -0.0489
 5644TIP3    H216897   1.791   5.535   1.590  1.5389  0.4073 -0.9245
 5645TIP3   OH216898   4.964   1.922   5.875  0.2569 -0.3095 -0.3269
 5645TIP3    H116899   4.995   1.970   5.798  1.3009  0.7191  0.6808
 5645TIP3    H216900   4.928   1.990   5.932  0.0459 -0.9740  0.3456
 5646TIP3   OH216901   6.213   3.070   4.613 -0.2303  0.0751 -0.3845
 5646TIP3    H116902   6.298   3.081   4.655 -0.1778  0.4913 -0.5915
 5646TIP3    H216903   6.157   3.137   4.653 -0.6089 -0.5388  0.1274
 5647TIP3   OH216904   6.403   0.660   4.644 -0.3078 -0.0494 -0.2640
 5647TIP3    H116905   6.473   0.650   4.708  1.0276  0.0936 -1.6542
 5647TIP3    H216906   6.346   0.727   4.681 -0.6385 -1.3036  1.6533
 5648TIP3   OH216907   1.779   4.355   5.099 -0.1345  0.0145 -0.5951
 5648TIP3    H116908   1.827   4.280   5.136 -0.3243 -0.1427 -0.6649
 5648TIP3    H216909   1.726   4.387   5.172  1.1495  1.0977 -0.0943
 5649TIP3   OH216910   0.470   1.564   4.664 -0.5165 -0.0289 -0.2598
 5649TIP3    H116911   0.485   1.611   4.582 -0.1429 -0.5333 -0.4797
 5649TIP3    H216912   0.556   1.532   4.690 -0.4529  0.9719  0.8532
 5650TIP3   OH216913   3.497   2.961   1.703 -0.7725 -0.4569 -0.2093
 5650TIP3    H116914   3.429   2.929   1.645 -0.6099  0.4472 -0.9114
 5650TIP3    H216915   3.551   2.884   1.722 -1.5882 -1.0287 -0.1839
 5651TIP3   OH216916   3.351   6.253   0.262 -0.4313  0.2127 -0.1328
 5651TIP3    H116917   3.300   6.301   0.328 -1.1176  0.8816 -1.1273
 5651TIP3    H216918   3.285   6.203   0.214  0.3850 -3.0299  1.8335
 5652TIP3   OH216919   1.459   3.904   3.609  0.0452  0.5431 -0.1704
 5652TIP3    H116920   1.554   3.894   3.615 -0.1793 -1.4446  0.8031
 5652TIP3    H216921   1.446   3.994   3.578  2.2067  1.2000  0.6672
 5653TIP3   OH216922   0.435   2.355   2.470 -0.2210  0.0825 -0.4846
 5653TIP3    H116923   0.343   2.360   2.496  0.1169  0.0200  0.8083
 5653TIP3    H216924   0.479   2.315   2.546  0.8312 -0.1307 -1.1846
 5654TIP3   OH216925   2.299   6.144   4.551 -0.2705  0.0792  0.0246
 5654TIP3    H116926   2.334   6.145   4.462 -0.7688  0.2284 -0.1712
 5654TIP3    H216927   2.310   6.053   4.580  2.0036  0.5058  0.6714
 5655TIP3   OH216928   2.891   5.279   3.337  0.3381 -0.0407  0.0848
 5655TIP3    H116929   2.882   5.342   3.265  1.2184 -0.4279 -0.3835
 5655TIP3    H216930   2.834   5.313   3.406 -0.2291  0.5424 -0.6566
 5656TIP3   OH216931   0.030   3.519   2.155  0.7040  0.3273 -0.4941
 5656TIP3    H116932  -0.011   3.433   2.145 -1.5090  1.3158 -0.6654
 5656TIP3    H216933   0.105   3.504   2.211  0.6802 -1.7916 -0.9371
 5657TIP3   OH216934   0.414   2.867   0.799  0.2552  0.0648  0.1809
 5657TIP3    H116935   0.480   2.928   0.767  1.1807 -1.0564 -0.0959
 5657TIP3    H216936   0.447   2.837   0.883  0.4003 -0.9405 -0.2232
 5658TIP3   OH216937   5.141   3.366   3.220 -0.5891 -0.3943 -0.5387
 5658TIP3    H116938   5.122   3.458   3.202  0.1191 -0.0195  0.5466
 5658TIP3    H216939   5.098   3.348   3.304 -0.3369 -0.9293 -0.5176
 5659TIP3   OH216940   5.639   3.165   1.069 -0.5719 -0.6634 -0.6224
 5659TIP3    H116941   5.671   3.111   0.997 -0.8712 -1.8554  0.1114
 5659TIP3    H216942   5.625   3.103   1.141 -1.0153  0.3824  0.2137
 5660TIP3   OH216943   4.694   0.203   1.179 -0.0156  0.1688  0.5314
 5660TIP3    H116944   4.767   0.195   1.117 -0.9219 -0.9654 -0.4428
 5660TIP3    H216945   4.685   0.115   1.216 -1.7159 -0.0760 -0.3683
 5661TIP3   OH216946   5.020   1.743   2.704 -0.2297 -0.3450 -0.1874
 5661TIP3    H116947   4.932   1.705   2.708 -0.4598  0.0859 -0.9621
 5661TIP3    H216948   5.046   1.752   2.796 -0.5435 -1.4876  0.0244
 5662TIP3   OH216949   2.928   3.238   4.675 -0.0019  0.0334 -0.5649
 5662TIP3    H116950   2.849   3.224   4.728 -0.9972 -0.4089 -2.0990
 5662TIP3    H216951   2.912   3.187   4.595  1.8727 -0.1045 -0.8817
 5663TIP3   OH216952   2.268   1.651   2.127  0.4751  0.1444  0.5033
 5663TIP3    H116953   2.334   1.694   2.072 -0.5806  2.8107  1.1495
 5663TIP3    H216954   2.224   1.723   2.173 -0.3946 -1.7878  2.9384
 5664TIP3   OH216955   2.291   6.214   4.249  0.0029  0.0919  0.1284
 5664TIP3    H116956   2.222   6.163   4.206  1.1325 -0.0355 -1.6375
 5664TIP3    H216957   2.292   6.298   4.203  0.5096  0.3860  0.6589
 5665TIP3   OH216958   3.282   4.630   1.306 -0.2525 -0.2853  0.3830
 5665TIP3    H116959   3.358   4.644   1.363 -1.3626  0.0090  1.8585
 5665TIP3    H216960   3.319   4.605   1.221  1.5328  1.3176  0.6217
 5666TIP3   OH216961   0.003   6.104   1.709  0.2656  0.2355 -0.1507
 5666TIP3    H116962   0.054   6.037   1.664  0.2006 -0.8943  1.3791
 5666TIP3    H216963  -0.021   6.167   1.641 -0.3065 -1.6734 -1.7821
 5667TIP3   OH216964   3.333   1.183   1.102 -0.2281 -0.4198 -0.4623
 5667TIP3    H116965   3.299   1.212   1.017 -0.7289  0.5866  0.0565
 5667TIP3    H216966   3.419   1.147   1.083  0.0154  0.5682 -1.2943
 5668TIP3   OH216967   1.511   5.135   4.042  0.4624  0.6635  0.1146
 5668TIP3    H116968   1.435   5.135   4.100  0.3172  0.8770 -0.0762
 5668TIP3    H216969   1.500   5.056   3.989 -0.2847  1.3442 -0.7700
 5669TIP3   OH216970   1.195   5.513   1.183  0.0100  0.1540  0.6591
 5669TIP3    H116971   1.171   5.435   1.133 -1.6640  0.5888  0.7365
 5669TIP3    H216972   1.112   5.546   1.217  1.0462 -0.0094  3.6012
 5670TIP3   OH216973   7.198   4.582   0.522 -0.4351 -0.2019 -0.2173
 5670TIP3    H116974   7.154   4.667   0.526 -1.2979 -0.6118 -0.7329
 5670TIP3    H216975   7.200   4.552   0.612 -0.2202  0.3097 -0.0451
 5671TIP3   OH216976   4.400   0.751   3.385  0.2256  0.1686 -0.1831
 5671TIP3    H116977   4.488   0.735   3.419  0.2508 -0.8934 -0.7142
 5671TIP3    H216978   4.407   0.835   3.339  0.4336  1.1216  1.5009
 5672TIP3   OH216979   6.901   2.283   2.242 -0.0589  0.8175  0.4175
 5672TIP3    H116980   6.877   2.210   2.299  0.6893 -0.0710 -0.3612
 5672TIP3    H216981   6.966   2.332   2.292  1.0524 -0.3012  0.1381
 5673TIP3   OH216982   0.638   3.252   2.209 -0.0237 -0.0782  0.7248
 5673TIP3    H116983   0.564   3.220   2.261 -0.0828 -1.4363 -0.1335
 5673TIP3    H216984   0.713   3.199   2.239  0.0082 -0.6361 -0.3012
 5674TIP3   OH216985   6.057   4.818   5.323 -0.0671  0.2903  0.2799
 5674TIP3    H116986   6.127   4.883   5.336 -0.1411  0.2406  1.0069
 5674TIP3    H216987   6.057   4.767   5.405 -0.3887 -0.2597 -0.0575
 5675TIP3   OH216988   0.739   5.258   0.237 -0.2023  0.3103 -0.3102
 5675TIP3    H116989   0.818   5.308   0.218  0.0009  0.4004  0.7138
 5675TIP3    H216990   0.708   5.228   0.151  1.9941 -1.3621 -0.5906
 5676TIP3   OH216991   4.892   2.620   3.834 -0.5593  0.2076  0.1338
 5676TIP3    H116992   4.833   2.545   3.824 -2.0074  0.8987  2.6795
 5676TIP3    H216993   4.849   2.676   3.898  1.9125  1.7925  0.5351
 5677TIP3   OH216994   5.565   5.157   5.646  0.1714  0.1962  0.4070
 5677TIP3    H116995   5.518   5.085   5.689  1.2799 -0.2466  0.9223
 5677TIP3    H216996   5.532   5.236   5.688 -1.9259  0.1162 -0.9744
 5678TIP3   OH216997   2.421   2.175   4.084  0.2782 -0.4031  0.2142
 5678TIP3    H116998   2.459   2.198   3.999  0.1968 -1.5188 -0.1460
 5678TIP3    H216999   2.496   2.174   4.144  0.4965 -0.5680 -0.0566
 5679TIP3   OH217000   2.726   1.854   2.967  0.1363  0.2845 -0.2669
 5679TIP3    H117001   2.650   1.899   3.004  0.6488  0.2878  0.8109
 5679TIP3    H217002   2.727   1.769   3.009 -0.0987 -0.2840 -1.3704
 5680TIP3   OH217003   3.793   6.324   1.886 -0.0468  0.1408  0.0354
 5680TIP3    H117004   3.730   6.388   1.852  1.5837  1.6245 -0.3690
 5680TIP3    H217005   3.787   6.334   1.982  0.0638  0.7995 -0.0177
 5681TIP3   OH217006   4.464   4.380   5.361  0.6107 -0.0669  0.6310
 5681TIP3    H117007   4.526   4.318   5.323 -0.0257 -3.0011  3.8610
 5681TIP3    H217008   4.378   4.341   5.343  0.0284  1.0781  0.8657
 5682TIP3   OH217009   5.120   1.580   5.493  0.0720  0.0601 -0.6068
 5682TIP3    H117010   5.066   1.610   5.565  0.0598  0.1294 -0.6441
 5682TIP3    H217011   5.186   1.524   5.534  0.4981  0.6702 -0.4478
 5683TIP3   OH217012   7.108   3.205   5.688  0.3797  0.3530 -0.3527
 5683TIP3    H117013   7.031   3.157   5.717  0.4578  0.1649 -0.4510
 5683TIP3    H217014   7.120   3.178   5.597 -0.0266  1.1497 -0.6508
 5684TIP3   OH217015   0.813   2.888   2.668 -0.3715 -0.0961 -0.5335
 5684TIP3    H117016   0.789   2.959   2.728  0.6841  0.5880 -0.9091
 5684TIP3    H217017   0.752   2.897   2.595 -0.2190  0.4421 -0.5948
 5685TIP3   OH217018   6.892   5.885   5.802  0.6154  0.2085  0.2833
 5685TIP3    H117019   6.897   5.835   5.720  2.2308 -0.3734  0.7000
 5685TIP3    H217020   6.982   5.890   5.833  0.3162  2.2411  0.9801
 5686TIP3   OH217021   3.135   2.461   5.350  0.6788 -0.1156  0.0131
 5686TIP3    H117022   3.084   2.380   5.344  0.2318  0.0182  1.5445
 5686TIP3    H217023   3.094   2.520   5.287 -0.2492 -0.4491  0.2851
 5687TIP3   OH217024   3.076   3.970   0.836 -0.0351 -0.1410  0.9942
 5687TIP3    H117025   2.982   3.953   0.845 -0.1149  0.7558  2.0543
 5687TIP3    H217026   3.087   3.996   0.745 -0.7863 -0.3993  0.8181
 5688TIP3   OH217027   3.069   6.154   0.491  0.1812 -0.6456  0.0982
 5688TIP3    H117028   3.045   6.093   0.422  0.1356 -0.0368 -0.4355
 5688TIP3    H217029   3.102   6.099   0.562 -1.1448 -1.3793  0.1743
 5689TIP3   OH217030   6.711   3.696   4.805 -0.0410  0.1047  0.5781
 5689TIP3    H117031   6.678   3.776   4.765 -2.5248 -0.6542  0.9593
 5689TIP3    H217032   6.648   3.628   4.781 -0.3367 -0.8819  3.6475
 5690TIP3   OH217033   3.065   1.565   4.293  0.7859  0.8203 -0.3832
 5690TIP3    H117034   3.101   1.647   4.260  1.1899  0.0757 -1.8835
 5690TIP3    H217035   3.141   1.515   4.322  0.4883  1.2022  1.1540
 5691TIP3   OH217036   0.209   0.359   2.465 -0.1626  0.1195  0.4472
 5691TIP3    H117037   0.279   0.299   2.492  0.3812  0.3726 -0.3797
 5691TIP3    H217038   0.174   0.320   2.385 -1.7260 -0.5935  1.4281
 5692TIP3   OH217039   7.125   3.614   4.520  0.3596 -0.4192 -0.4012
 5692TIP3    H117040   7.135   3.538   4.464 -2.2198 -0.1449 -1.3795
 5692TIP3    H217041   7.167   3.686   4.473 -2.2176 -0.0726 -2.4169
 5693TIP3   OH217042   6.585   6.519   5.405  0.4171  0.9984  0.4742
 5693TIP3    H117043   6.621   6.524   5.494 -0.6580 -0.4596  1.0240
 5693TIP3    H217044   6.550   6.430   5.398  0.9536  0.8957 -1.6110
 5694TIP3   OH217045   5.208   0.912   5.350 -0.3382  0.1893 -0.0898
 5694TIP3    H117046   5.156   0.989   5.326 -2.6865 -0.8250  1.4395
 5694TIP3    H217047   5.224   0.923   5.443 -0.0436 -0.8178 -0.0160
 5695TIP3   OH217048   3.012   5.848   3.346  0.3716 -0.2453 -0.4833
 5695TIP3    H117049   3.064   5.891   3.415 -0.9621  0.1120  0.3331
 5695TIP3    H217050   3.027   5.754   3.361  1.5003 -0.1437 -0.8514
 5696TIP3   OH217051   2.823   5.119   3.861 -0.1441 -0.1463 -0.2444
 5696TIP3    H117052   2.766   5.189   3.829 -2.0952 -1.2483  0.6767
 5696TIP3    H217053   2.850   5.147   3.949  0.5669  0.2588 -0.5827
 5697TIP3   OH217054   1.076   1.690   4.217  1.0101  0.4869 -0.1802
 5697TIP3    H117055   1.018   1.663   4.288  1.5659 -1.8444 -0.5358
 5697TIP3    H217056   1.080   1.785   4.224 -1.5905  0.5962  0.8140
 5698TIP3   OH217057   6.473   4.559   3.174 -0.1285  0.2177  0.3830
 5698TIP3    H117058   6.524   4.478   3.167 -1.7928 -0.9779  1.2274
 5698TIP3    H217059   6.506   4.601   3.253  2.0171  1.3757 -1.0378
 5699TIP3   OH217060   2.744   3.002  -0.017 -0.1325 -0.1266  0.0957
 5699TIP3    H117061   2.651   3.003  -0.039 -0.1683 -0.0915  0.2448
 5699TIP3    H217062   2.747   3.027   0.076  0.1062  0.9128 -0.1792
 5700TIP3   OH217063   3.909   6.452   4.462 -0.6915 -0.1875  0.8856
 5700TIP3    H117064   3.981   6.405   4.504  1.2176  1.3168 -0.5295
 5700TIP3    H217065   3.846   6.384   4.438  2.1846 -2.2174 -1.6009
 5701TIP3   OH217066   0.892   1.622   0.587 -0.2081  0.3465 -0.1885
 5701TIP3    H117067   0.924   1.538   0.553 -1.4422 -0.1119 -0.2792
 5701TIP3    H217068   0.909   1.684   0.517  1.5653  0.3823  0.2367
 5702TIP3   OH217069   4.934   2.155   0.209  0.5086  0.0118  0.4451
 5702TIP3    H117070   5.014   2.199   0.178 -0.9502  0.3009 -3.5106
 5702TIP3    H217071   4.864   2.217   0.191 -0.9133 -1.3115  1.2300
 5703TIP3   OH217072   4.062   0.349   1.806  0.6223 -0.6576 -0.4810
 5703TIP3    H117073   4.156   0.357   1.823  1.0186 -3.0206 -1.2088
 5703TIP3    H217074   4.047   0.255   1.801 -1.9540 -0.3611  0.3774
 5704TIP3   OH217075   5.640   2.437   4.489  0.4900  0.2355  0.5665
 5704TIP3    H117076   5.544   2.436   4.492  0.4210  1.9811 -0.0658
 5704TIP3    H217077   5.662   2.427   4.397  1.0087 -1.6299  0.8399
 5705TIP3   OH217078   5.225   3.594   1.372  0.2772  0.2003  0.1051
 5705TIP3    H117079   5.188   3.592   1.460  0.4944 -2.3877  0.2035
 5705TIP3    H217080   5.316   3.565   1.384  1.1472  2.3478 -0.6899
 5706TIP3   OH217081   4.619   0.037   4.600  0.0023  0.5174 -0.6419
 5706TIP3    H117082   4.597   0.057   4.692 -1.3598 -0.7094 -0.6750
 5706TIP3    H217083   4.712   0.016   4.602 -0.3931 -1.3228  0.8134
 5707TIP3   OH217084   1.845   2.329   0.609 -0.4179  0.0099 -0.3699
 5707TIP3    H117085   1.832   2.259   0.674  1.1348 -0.9564 -1.0542
 5707TIP3    H217086   1.885   2.400   0.659 -0.0211 -0.4029 -0.0953
 5708TIP3   OH217087   0.522   1.837   3.304 -0.3498 -0.4611  0.5555
 5708TIP3    H117088   0.583   1.893   3.256 -0.5649  0.2980  1.1488
 5708TIP3    H217089   0.490   1.892   3.376 -2.2630 -0.5902 -0.1372
 5709TIP3   OH217090   5.634   4.605   4.155 -0.0611 -0.5797 -0.1202
 5709TIP3    H117091   5.586   4.525   4.132  0.3860 -0.3969 -1.8296
 5709TIP3    H217092   5.567   4.664   4.188 -0.7298 -0.9866 -0.7125
 5710TIP3   OH217093   4.471   1.592   4.557  0.7888 -0.0512  0.6600
 5710TIP3    H117094   4.405   1.598   4.488  0.0958  3.2224  1.4583
 5710TIP3    H217095   4.549   1.633   4.519  0.7377  0.7805  1.4200
 5711TIP3   OH217096   2.725   3.756   0.447  0.6640 -0.3557 -0.1053
 5711TIP3    H117097   2.731   3.684   0.383  0.9887 -1.6682  1.3433
 5711TIP3    H217098   2.722   3.712   0.532 -0.7047  1.3063  0.7588
 5712TIP3   OH217099   0.203   5.252   3.025  0.1530  0.0386  0.4663
 5712TIP3    H117100   0.186   5.341   3.057 -0.6811  0.8792 -2.0348
 5712TIP3    H217101   0.250   5.265   2.942 -0.0830 -1.8573 -0.0191
 5713TIP3   OH217102   5.517   1.411   1.781 -0.0006  0.4392 -0.1533
 5713TIP3    H117103   5.431   1.411   1.823  0.2108 -1.0053  0.3227
 5713TIP3    H217104   5.556   1.327   1.806  1.3749  0.8884 -0.7192
 5714TIP3   OH217105   6.591   5.235   4.642 -0.3415  0.1827  0.4853
 5714TIP3    H117106   6.547   5.150   4.650  2.3056 -1.4939 -1.0953
 5714TIP3    H217107   6.642   5.243   4.723  1.3468 -1.0496 -0.3871
 5715TIP3   OH217108   1.878   5.431   0.721  0.4587 -0.4584  0.4656
 5715TIP3    H117109   1.852   5.360   0.779  0.2361 -1.1748 -0.4789
 5715TIP3    H217110   1.961   5.401   0.682  1.2888  0.5843  1.3748
 5716TIP3   OH217111   1.915   5.087   1.717 -0.1253  0.5656 -0.3975
 5716TIP3    H117112   1.897   5.169   1.763  0.4134  0.7945 -0.5852
 5716TIP3    H217113   1.854   5.024   1.755 -1.3363  1.3089 -1.0299
 5717TIP3   OH217114   3.017   0.504   4.328 -0.3003  0.0071  0.4386
 5717TIP3    H117115   2.942   0.562   4.338  0.3222  0.7896  0.6158
 5717TIP3    H217116   3.070   0.519   4.406 -0.0395 -0.6759  0.4020
 5718TIP3   OH217117   5.567   4.367   1.621  0.3794 -0.0935 -0.3979
 5718TIP3    H117118   5.550   4.408   1.706 -1.1952 -0.5104 -0.4732
 5718TIP3    H217119   5.555   4.438   1.558 -1.7283 -0.4537 -0.4808
 5719TIP3   OH217120   2.275   3.056   4.183  0.2172 -0.0865 -0.8617
 5719TIP3    H117121   2.272   3.097   4.270  0.7584  1.5388 -1.5682
 5719TIP3    H217122   2.365   3.025   4.174  0.1000 -0.4610 -0.7582
 5720TIP3   OH217123   0.015   5.269   3.930  0.1195 -0.1299  0.0053
 5720TIP3    H117124   0.010   5.220   4.012 -1.3920 -0.1613 -0.0743
 5720TIP3    H217125   0.042   5.357   3.957 -0.5878 -0.0759  0.5730
 5721TIP3   OH217126   7.134   1.050   4.805  0.5655 -0.3818  0.6536
 5721TIP3    H117127   7.119   0.955   4.798  0.0730 -0.3017  0.5805
 5721TIP3    H217128   7.046   1.088   4.802  0.7735  0.0902  0.5188
 5722TIP3   OH217129   3.887   5.656   3.644 -0.5747 -0.0383 -0.8664
 5722TIP3    H117130   3.902   5.570   3.604  1.2673  0.2821 -0.9760
 5722TIP3    H217131   3.948   5.658   3.718 -1.1123  0.9002 -0.4415
 5723TIP3   OH217132   2.946   4.799   4.025 -0.3986  0.4268 -0.2028
 5723TIP3    H117133   2.920   4.727   4.082  1.3362  0.4656  0.7194
 5723TIP3    H217134   2.923   4.769   3.937  0.0128 -1.1511  0.1898
 5724TIP3   OH217135   1.788   6.524   3.061  0.0817 -0.2992  0.4848
 5724TIP3    H117136   1.803   6.605   3.109  0.2783 -0.2730  0.3816
 5724TIP3    H217137   1.740   6.551   2.983 -0.0291 -0.3098  0.5495
 5725TIP3   OH217138   1.643   2.189   5.644  0.4544  0.3388 -0.0280
 5725TIP3    H117139   1.662   2.246   5.718 -0.2392  1.2582 -0.5345
 5725TIP3    H217140   1.714   2.205   5.582  1.4040 -0.9256  0.6790
 5726TIP3   OH217141   3.081   6.687   2.806  0.5739 -0.0056 -0.2655
 5726TIP3    H117142   3.137   6.609   2.803 -0.2460 -0.5907 -1.7722
 5726TIP3    H217143   2.993   6.652   2.823  0.3639  0.7070  0.1360
 5727TIP3   OH217144   4.384   3.304   1.963  0.1427  0.3892  0.5769
 5727TIP3    H117145   4.409   3.277   2.051 -0.8204  1.0218  1.0608
 5727TIP3    H217146   4.304   3.354   1.975 -0.9649 -0.9383 -0.8347
 5728TIP3   OH217147   4.919   5.684   2.712 -0.2406 -0.3094  0.5714
 5728TIP3    H117148   4.906   5.761   2.656 -0.9321 -0.8656 -0.0527
 5728TIP3    H217149   4.999   5.644   2.680  0.4427  0.4566  1.2748
 5729TIP3   OH217150   4.947   3.416   2.144  0.7136 -0.2270  0.1988
 5729TIP3    H117151   4.962   3.499   2.098  2.2593 -1.1233 -1.0413
 5729TIP3    H217152   4.853   3.402   2.137  0.6300  0.6679 -0.9617
 5730TIP3   OH217153   2.048   4.204   5.797 -0.0036 -0.0585  0.3095
 5730TIP3    H117154   2.023   4.219   5.888 -1.1235 -1.0989  0.1883
 5730TIP3    H217155   2.076   4.112   5.795 -2.3505 -0.8203 -0.8588
 5731TIP3   OH217156   5.960   4.819   2.363 -0.0621 -0.0950 -0.1982
 5731TIP3    H117157   5.971   4.904   2.320  2.2166 -0.4256 -0.4240
 5731TIP3    H217158   5.958   4.756   2.291 -2.1981 -0.2618 -0.0597
 5732TIP3   OH217159   1.232   0.306   0.137  0.2992  0.5925  0.4162
 5732TIP3    H117160   1.160   0.313   0.075  1.7648 -0.7154 -1.5616
 5732TIP3    H217161   1.191   0.279   0.219 -1.4688  0.1851 -0.5542
 5733TIP3   OH217162   0.769   0.179   1.831 -0.1007 -0.1874 -0.3688
 5733TIP3    H117163   0.747   0.220   1.747 -0.5318  1.1784  0.3748
 5733TIP3    H217164   0.865   0.179   1.832 -0.0700  1.4531 -0.1258
 5734TIP3   OH217165   0.684   6.203   3.479 -0.8236  0.9363 -0.3845
 5734TIP3    H117166   0.639   6.264   3.537 -0.1776  1.0808 -0.0343
 5734TIP3    H217167   0.627   6.125   3.478  0.0266  0.2035  1.9046
 5735TIP3   OH217168   5.570   5.926   4.692 -0.6983  0.7633 -0.1341
 5735TIP3    H117169   5.594   5.865   4.762 -2.9008 -1.4392 -1.1308
 5735TIP3    H217170   5.577   5.874   4.612 -1.2967  2.2655 -1.2017
 5736TIP3   OH217171   4.012   1.820   0.776  0.6536 -0.0377  0.3865
 5736TIP3    H117172   4.090   1.826   0.831  0.2584  1.7345  0.8044
 5736TIP3    H217173   3.992   1.910   0.753 -0.2958 -0.6098 -1.1323
 5737TIP3   OH217174   6.298   1.705   5.640 -0.5155  0.3124  0.2035
 5737TIP3    H117175   6.299   1.801   5.640 -0.6742  0.3207 -0.6326
 5737TIP3    H217176   6.327   1.680   5.552  0.6451 -0.4278  0.7721
 5738TIP3   OH217177   4.282   0.179   4.999  0.1902 -0.7268 -0.7570
 5738TIP3    H117178   4.202   0.129   5.016 -0.5724  0.1741 -1.5812
 5738TIP3    H217179   4.270   0.216   4.911 -0.8151  3.5913  0.9275
 5739TIP3   OH217180   3.114   0.169   2.125 -0.1713  0.0106  0.1334
 5739TIP3    H117181   3.078   0.109   2.190 -1.1640 -1.2343 -1.4767
 5739TIP3    H217182   3.208   0.158   2.133 -0.3111 -1.4269  0.2325
 5740TIP3   OH217183   0.085   0.732   0.840 -0.3289  0.0548 -0.0039
 5740TIP3    H117184   0.051   0.784   0.913 -1.7996 -0.3257 -0.3823
 5740TIP3    H217185   0.006   0.699   0.795  0.5417  0.3713 -1.8392
 5741TIP3   OH217186   7.017   1.269   0.520 -0.1287 -0.2278 -0.5009
 5741TIP3    H117187   7.030   1.333   0.591 -1.3466 -0.3989 -0.0981
 5741TIP3    H217188   7.048   1.314   0.441  3.4545 -0.8465  0.3736
 5742TIP3   OH217189   0.855   1.425   5.231 -0.2643  0.1426 -0.6671
 5742TIP3    H117190   0.902   1.365   5.173  0.5075 -0.9793  1.0349
 5742TIP3    H217191   0.788   1.370   5.272  0.0623  0.5860  0.4724
 5743TIP3   OH217192   4.909   4.884   0.475 -0.0827  0.1662 -0.3019
 5743TIP3    H117193   4.848   4.811   0.473 -0.8007  0.7775 -0.8021
 5743TIP3    H217194   4.939   4.894   0.384  2.1174 -1.2277  0.1737
 5744TIP3   OH217195   5.353   1.673   1.475 -0.0960 -0.1144  0.4568
 5744TIP3    H117196   5.350   1.588   1.431  1.2240  0.6588 -1.2475
 5744TIP3    H217197   5.262   1.700   1.480 -0.5065 -1.4491  0.6836
 5745TIP3   OH217198   4.504   5.969   1.885 -0.1135 -0.1114 -0.2036
 5745TIP3    H117199   4.480   6.043   1.829 -0.4831  0.4782  0.7085
 5745TIP3    H217200   4.473   5.892   1.838 -2.2611  0.4984  0.0974
 5746TIP3   OH217201   5.734   5.200   4.718 -0.6212  0.3393 -0.0765
 5746TIP3    H117202   5.824   5.194   4.687  0.5031 -0.8386  2.9773
 5746TIP3    H217203   5.690   5.124   4.681  0.3220 -0.3924  0.2606
 5747TIP3   OH217204   4.723   5.530   0.387  0.0024 -0.3551 -0.2620
 5747TIP3    H117205   4.627   5.535   0.393  0.0364 -0.1132  0.1182
 5747TIP3    H217206   4.751   5.509   0.476  0.3077 -0.3443 -0.3564
 5748TIP3   OH217207   0.303   1.117   4.836  0.2108  0.9656 -0.0152
 5748TIP3    H117208   0.282   1.210   4.838 -0.3885  0.8368  2.0163
 5748TIP3    H217209   0.352   1.102   4.917 -1.7524 -0.8953  0.9374
 5749TIP3   OH217210   0.424   6.487   5.411  0.5148  0.0863 -0.1825
 5749TIP3    H117211   0.410   6.501   5.504 -1.3829 -3.1096  0.1436
 5749TIP3    H217212   0.491   6.420   5.405  0.3423 -0.0272 -1.1011
 5750TIP3   OH217213   5.395   2.912   0.658  0.2788 -0.4376 -0.0609
 5750TIP3    H117214   5.336   2.841   0.684 -0.2724  0.1633  0.3451
 5750TIP3    H217215   5.452   2.925   0.734  2.0574 -2.1082 -1.0090
 5751TIP3   OH217216   1.891   4.164   4.774  0.2133  0.2458  0.0529
 5751TIP3    H117217   1.800   4.165   4.805  0.7407  0.4744  1.6972
 5751TIP3    H217218   1.893   4.093   4.710 -0.8718 -0.5821  0.8821
 5752TIP3   OH217219   6.921   6.180   1.267 -0.5573 -0.2839 -0.5508
 5752TIP3    H117220   7.002   6.188   1.317 -0.7136 -0.6969 -0.2209
 5752TIP3    H217221   6.895   6.270   1.247 -1.5647  0.0340  1.8615
 5753TIP3   OH217222   2.785   2.502   4.496 -0.0606 -0.8990  0.2010
 5753TIP3    H117223   2.692   2.518   4.508 -0.1201 -1.2749  0.2496
 5753TIP3    H217224   2.826   2.588   4.510 -0.3168 -0.9098  1.0844
 5754TIP3   OH217225   0.824   0.908   3.546 -0.4254  0.0232 -0.3985
 5754TIP3    H117226   0.765   0.839   3.577 -2.4660  1.8808  0.0233
 5754TIP3    H217227   0.769   0.967   3.495  1.1924  1.5372 -0.5110
 5755TIP3   OH217228   0.351   5.154   1.179  0.1532 -0.4596 -0.1679
 5755TIP3    H117229   0.274   5.127   1.129 -1.3732  1.8880  0.7334
 5755TIP3    H217230   0.415   5.181   1.113 -0.2106 -1.3505 -0.9027
 5756TIP3   OH217231   6.496   0.612   0.995  0.1160  0.0217 -0.7647
 5756TIP3    H117232   6.551   0.625   0.918  0.7377 -0.0014 -0.3305
 5756TIP3    H217233   6.552   0.565   1.057 -0.5365 -0.3897 -0.4824
 5757TIP3   OH217234   2.765   1.063   3.237 -0.6622  0.2821 -0.0782
 5757TIP3    H117235   2.754   0.970   3.216  0.3971 -0.1135  0.9915
 5757TIP3    H217236   2.842   1.066   3.293 -0.9344  1.7719  0.2655
 5758TIP3   OH217237   2.298   2.872   4.644 -0.0688  0.1364 -0.1549
 5758TIP3    H117238   2.277   2.825   4.725  0.1450 -0.3919 -0.4053
 5758TIP3    H217239   2.239   2.948   4.645 -0.3581 -0.0875  0.2916
 5759TIP3   OH217240   3.697   5.565   4.129  0.2650 -0.2610  0.4236
 5759TIP3    H117241   3.783   5.529   4.106  0.5272  0.2164  0.6488
 5759TIP3    H217242   3.676   5.526   4.213 -0.0069 -0.8280  0.1003
 5760TIP3   OH217243   3.436   1.841   5.030 -0.0597 -0.3392  0.1716
 5760TIP3    H117244   3.425   1.929   5.067 -1.0209 -0.0622 -0.7101
 5760TIP3    H217245   3.522   1.813   5.059  0.6615  1.2768 -0.2686
 5761TIP3   OH217246   1.749   0.894   1.603 -0.4238 -0.0837 -0.1407
 5761TIP3    H117247   1.673   0.952   1.600 -0.6477 -0.3361  0.4647
 5761TIP3    H217248   1.713   0.810   1.633  0.1612 -0.0869  0.5653
 5762TIP3   OH217249   5.275   4.120   1.712 -0.3190  0.5154 -0.3252
 5762TIP3    H117250   5.226   4.038   1.712 -0.5746  0.6681 -0.4151
 5762TIP3    H217251   5.367   4.093   1.704 -0.4880  0.2987 -1.7176
 5763TIP3   OH217252   6.319   3.872   1.704  0.0211 -0.7166 -0.1567
 5763TIP3    H117253   6.288   3.814   1.635  0.7501  1.5021 -2.5436
 5763TIP3    H217254   6.313   3.960   1.665  2.7642  0.4270  1.6845
 5764TIP3   OH217255   1.715   0.978   3.234 -0.1490  0.2662  0.1857
 5764TIP3    H117256   1.752   1.054   3.188  0.8690 -0.7242 -0.6828
 5764TIP3    H217257   1.783   0.911   3.228 -0.7753 -0.5300  1.4861
 5765TIP3   OH217258   1.605   5.363   3.058 -0.4965 -0.2316 -0.0029
 5765TIP3    H117259   1.693   5.399   3.041 -0.9714  0.7226 -0.5373
 5765TIP3    H217260   1.619   5.298   3.126  0.7013 -0.4108 -0.3838
 5766TIP3   OH217261   1.208   4.374   5.187  0.0806 -0.0053 -0.1945
 5766TIP3    H117262   1.160   4.329   5.118  0.4716 -0.2865 -0.2836
 5766TIP3    H217263   1.205   4.467   5.161 -1.2637  0.1234  0.3142
 5767TIP3   OH217264   4.904   0.560   4.355  0.4306  0.8627  0.1465
 5767TIP3    H117265   4.927   0.594   4.441  1.4879  1.5283 -0.3833
 5767TIP3    H217266   4.904   0.636   4.297 -0.9148  0.5265 -0.3317
 5768TIP3   OH217267   1.947   3.676   5.230 -0.4025  0.1653  0.2589
 5768TIP3    H117268   1.904   3.731   5.295 -0.5489 -0.2444  0.5097
 5768TIP3    H217269   1.913   3.588   5.246  0.0894 -0.0624  0.0847
 5769TIP3   OH217270   5.904   2.669   3.274 -0.2230 -0.3086  0.7966
 5769TIP3    H117271   5.925   2.588   3.228 -1.4323 -0.2158  0.0243
 5769TIP3    H217272   5.970   2.731   3.246 -0.8252 -0.3035 -0.7263
 5770TIP3   OH217273   3.508   4.248   4.723 -0.1918 -0.1505  0.8898
 5770TIP3    H117274   3.545   4.240   4.810 -0.8318  3.8842  1.7216
 5770TIP3    H217275   3.583   4.244   4.664  0.6825  0.5034  1.9327
 5771TIP3   OH217276   5.783   2.926   3.858  0.2947 -1.0328  0.4050
 5771TIP3    H117277   5.724   2.992   3.822  1.4657  0.5997  1.3335
 5771TIP3    H217278   5.738   2.892   3.935  0.4943  0.1483  1.0655
 5772TIP3   OH217279   0.101   5.527   2.903  0.3663  0.3919 -0.4712
 5772TIP3    H117280   0.193   5.549   2.888  0.5660  0.8453  1.2014
 5772TIP3    H217281   0.053   5.580   2.839  1.1025  2.7333  0.7891
 5773TIP3   OH217282   4.604   3.888   5.719  0.3012 -0.1047  0.4189
 5773TIP3    H117283   4.612   3.937   5.801  1.9080 -0.5300  0.5622
 5773TIP3    H217284   4.544   3.817   5.739 -1.5380  1.3679  0.4038
 5774TIP3   OH217285   5.167   1.781   3.457 -0.0965  0.2727  0.2225
 5774TIP3    H117286   5.081   1.798   3.495  0.2363  0.4563  0.9128
 5774TIP3    H217287   5.224   1.845   3.498  0.0675  1.2711 -1.4787
 5775TIP3   OH217288   4.155   5.313   3.968 -0.0096  0.2946 -0.0257
 5775TIP3    H117289   4.201   5.360   4.038 -0.3401  1.5394 -0.6054
 5775TIP3    H217290   4.208   5.236   3.951  0.1004 -0.0116  1.5613
 5776TIP3   OH217291   7.045   1.107   2.033  0.1749  0.5383 -0.7157
 5776TIP3    H117292   6.994   1.187   2.051  0.1871  0.4941 -0.4902
 5776TIP3    H217293   7.001   1.069   1.957 -0.1044  0.5258 -0.5517
 5777TIP3   OH217294   5.556   0.796   3.625 -0.3070  0.0771  0.2456
 5777TIP3    H117295   5.548   0.760   3.713  3.4867  0.7952  1.0297
 5777TIP3    H217296   5.639   0.764   3.592  0.3028  3.0001 -1.4826
 5778TIP3   OH217297   4.487   6.723   3.109  0.2407 -0.3653  0.1107
 5778TIP3    H117298   4.538   6.707   3.188 -0.2007  1.4037  0.7874
 5778TIP3    H217299   4.551   6.753   3.045  0.3661 -0.2944  0.2683
 5779TIP3   OH217300   3.496   5.408   3.817  0.1618 -0.3195  0.5824
 5779TIP3    H117301   3.514   5.433   3.908  1.0106 -0.5035  0.4714
 5779TIP3    H217302   3.460   5.319   3.824 -1.5878  0.3598  0.8678
 5780TIP3   OH217303   6.366   5.580   3.269 -0.5317 -0.0866 -0.3487
 5780TIP3    H117304   6.325   5.614   3.349  0.6654  0.0900  0.2023
 5780TIP3    H217305   6.456   5.559   3.294 -0.0655  0.1815 -1.7028
 5781TIP3   OH217306   2.234   5.163   2.093 -0.1715  0.4686  0.0995
 5781TIP3    H117307   2.236   5.117   2.177 -1.3379  0.6587  0.2503
 5781TIP3    H217308   2.325   5.186   2.075 -0.1187  2.3160  2.3619
 5782TIP3   OH217309   0.357   2.327   5.133 -0.1578  0.5917 -0.4326
 5782TIP3    H117310   0.437   2.354   5.178 -0.9425  0.0283  1.4311
 5782TIP3    H217311   0.295   2.398   5.150 -0.1057  0.9747 -1.7709
 5783TIP3   OH217312   5.163   1.771   5.321  0.2485  0.2179 -0.6026
 5783TIP3    H117313   5.156   1.852   5.370 -3.2944 -0.2207 -0.1756
 5783TIP3    H217314   5.149   1.702   5.385  1.5401 -0.7050 -1.2572
 5784TIP3   OH217315   0.027   1.684   1.452  0.3532 -0.6233  0.1564
 5784TIP3    H117316   0.083   1.742   1.399  1.1082  0.2612  1.8545
 5784TIP3    H217317   0.070   1.599   1.445  0.6440 -0.4431 -0.3695
 5785TIP3   OH217318   4.010   2.693   0.432  0.1737  0.0869 -0.2049
 5785TIP3    H117319   3.937   2.746   0.400 -0.2802  0.0425  0.7243
 5785TIP3    H217320   3.968   2.621   0.480  0.8105 -0.5285 -0.5489
 5786TIP3   OH217321   1.767   6.104   4.204 -0.4796  0.2109 -0.5459
 5786TIP3    H117322   1.700   6.140   4.147  0.2646  0.7662 -1.0806
 5786TIP3    H217323   1.736   6.016   4.225 -1.0233  0.2026 -1.3651
 5787TIP3   OH217324   6.313   0.534   5.600 -0.0633  0.0703  0.0520
 5787TIP3    H117325   6.318   0.623   5.635 -1.2425  0.1312  0.1115
 5787TIP3    H217326   6.324   0.478   5.677 -0.3956  0.1825  0.1837
 5788TIP3   OH217327   4.557   5.839   5.801  0.0226 -0.3700 -0.4467
 5788TIP3    H117328   4.521   5.928   5.801 -0.7833 -0.6862 -0.5166
 5788TIP3    H217329   4.649   5.851   5.780  0.3978  0.6324  1.4952
 5789TIP3   OH217330   2.262   0.532   2.435  0.6208 -0.1864 -0.0629
 5789TIP3    H117331   2.325   0.463   2.417 -0.7440 -1.7361  0.8846
 5789TIP3    H217332   2.295   0.608   2.386  2.2203 -1.4438 -1.0196
 5790TIP3   OH217333   5.939   0.221   1.914  0.3672 -0.2744  0.1719
 5790TIP3    H117334   5.885   0.278   1.859  1.2943  0.4772  0.0094
 5790TIP3    H217335   5.968   0.151   1.855  1.0138  0.2994 -0.2110
 5791TIP3   OH217336   5.756   5.796   3.572 -0.4828  0.1617 -0.3462
 5791TIP3    H117337   5.815   5.731   3.534 -0.6736  0.2686 -0.8251
 5791TIP3    H217338   5.794   5.881   3.548  0.2630  0.2525  1.0303
 5792TIP3   OH217339   5.851   0.390   3.406  0.0526  0.1641 -0.3259
 5792TIP3    H117340   5.759   0.367   3.394 -0.0790  1.0331 -0.9946
 5792TIP3    H217341   5.863   0.392   3.501 -0.1018 -1.9363 -0.2221
 5793TIP3   OH217342   0.201   4.778   3.455 -0.3608  0.0129  0.1596
 5793TIP3    H117343   0.193   4.684   3.438  0.9212 -0.1017  0.0737
 5793TIP3    H217344   0.294   4.790   3.475 -0.4151  1.3455 -0.3437
 5794TIP3   OH217345   6.450   6.663   3.325 -0.2278  0.0089  0.2822
 5794TIP3    H117346   6.391   6.659   3.400 -1.1829 -0.9064 -0.4707
 5794TIP3    H217347   6.405   6.613   3.257  0.8451  0.3779 -0.7388
 5795TIP3   OH217348   6.230   4.486   1.109  0.2880  0.3574 -0.6963
 5795TIP3    H117349   6.316   4.442   1.107  0.7020  1.1336 -3.0057
 5795TIP3    H217350   6.233   4.547   1.035 -2.4860 -0.0062 -1.1905
 5796TIP3   OH217351   3.804   3.068   0.296 -0.5943 -0.5637 -0.3414
 5796TIP3    H117352   3.742   3.136   0.269 -1.8523 -1.1754  0.8639
 5796TIP3    H217353   3.776   3.044   0.385  1.6646 -0.5510  0.4420
 5797TIP3   OH217354   3.189   4.278   0.801  0.4490  0.1196 -0.0398
 5797TIP3    H117355   3.272   4.308   0.839  1.2380 -2.1494  0.2119
 5797TIP3    H217356   3.183   4.186   0.828 -2.2880  0.2807  0.1401
 5798TIP3   OH217357   2.252   0.004   3.326  0.1237  0.4820  0.2671
 5798TIP3    H117358   2.319  -0.017   3.392 -0.0563  0.9341  0.5999
 5798TIP3    H217359   2.182   0.044   3.377 -0.8136 -0.8412  0.0600
 5799TIP3   OH217360   5.466   0.472   3.492 -0.2015 -0.6164  0.1735
 5799TIP3    H117361   5.528   0.399   3.492  0.4185 -0.0908  0.6205
 5799TIP3    H217362   5.451   0.491   3.399  0.1594 -0.8590  0.0637
 5800TIP3   OH217363   0.324   4.717   5.526  0.1737 -0.0413  0.1616
 5800TIP3    H117364   0.381   4.691   5.597 -0.3716  0.0552  0.6447
 5800TIP3    H217365   0.301   4.634   5.483  1.2227 -0.0183 -0.4759
 5801TIP3   OH217366   5.075   5.857   3.697  0.1189  0.2918 -0.1544
 5801TIP3    H117367   5.132   5.915   3.749 -0.3032 -0.2459  0.9432
 5801TIP3    H217368   5.002   5.912   3.671 -0.7673  0.0589  1.7027
 5802TIP3   OH217369   1.818   4.970   3.291 -0.1816  0.2767  0.3267
 5802TIP3    H117370   1.791   5.018   3.370 -0.2084  0.7701  0.0177
 5802TIP3    H217371   1.750   4.903   3.280  0.8630 -1.1259  1.8705
 5803TIP3   OH217372   4.778   2.928   1.747 -0.2180  0.7997  0.0430
 5803TIP3    H117373   4.830   2.989   1.801  0.8687 -0.1061  0.0513
 5803TIP3    H217374   4.772   2.972   1.662 -0.7456  1.5999  0.4755
 5804TIP3   OH217375   0.521   3.348   4.055 -0.3856  0.7308 -0.3544
 5804TIP3    H117376   0.586   3.396   4.105 -0.7358  0.8837 -0.0390
 5804TIP3    H217377   0.524   3.259   4.090  0.8182  0.3026 -1.4751
 5805TIP3   OH217378   6.571   4.312   5.886  0.2569 -0.2622 -0.2243
 5805TIP3    H117379   6.649   4.268   5.852 -1.0418 -1.7568 -1.4379
 5805TIP3    H217380   6.508   4.241   5.902 -1.4995  1.0025 -1.1087
 5806TIP3   OH217381   0.876   3.830   5.042 -0.3264 -0.3136 -0.3228
 5806TIP3    H117382   0.946   3.767   5.021 -1.9400 -1.9862 -0.9547
 5806TIP3    H217383   0.810   3.779   5.088 -1.8034  0.8450 -1.0460
 5807TIP3   OH217384   5.228   3.458   5.485 -0.0979 -0.1956 -0.8924
 5807TIP3    H117385   5.203   3.539   5.441  0.2682  0.7661  0.5935
 5807TIP3    H217386   5.149   3.403   5.481 -0.5584  0.4834 -1.3456
 5808TIP3   OH217387   1.022   3.398   4.338 -0.4902  0.5584 -0.1010
 5808TIP3    H117388   0.926   3.402   4.337 -0.4869  1.1072 -1.6861
 5808TIP3    H217389   1.047   3.410   4.246  1.0856 -0.0612  0.2211
 5809TIP3   OH217390   1.400   5.233   0.304 -0.2959  0.2713 -0.0241
 5809TIP3    H117391   1.305   5.228   0.318 -0.2648 -1.2836 -0.1716
 5809TIP3    H217392   1.409   5.233   0.208 -0.1530  0.8070 -0.0133
 5810TIP3   OH217393   0.425   3.324   1.186  0.2514  0.2341 -0.2950
 5810TIP3    H117394   0.359   3.363   1.242  0.0280 -1.1272  0.4277
 5810TIP3    H217395   0.508   3.362   1.216  0.1858 -0.7801  1.2728
 5811TIP3   OH217396   2.439   1.833   0.877  0.5625 -0.1783 -0.2343
 5811TIP3    H117397   2.496   1.787   0.938  1.7712  0.1071 -1.1027
 5811TIP3    H217398   2.442   1.782   0.796 -1.2765 -0.7324  0.0045
 5812TIP3   OH217399   0.544   5.229   0.959 -0.0642 -0.4449  0.1123
 5812TIP3    H117400   0.491   5.252   0.883  0.8448 -0.9763 -0.7167
 5812TIP3    H217401   0.627   5.274   0.944  0.2622 -0.8816  0.5808
 5813TIP3   OH217402   4.067   6.094   3.310 -0.3995  0.3194 -0.5762
 5813TIP3    H117403   4.066   6.166   3.248 -2.0441  0.6325 -0.2381
 5813TIP3    H217404   3.976   6.062   3.312  0.0180 -0.9224  0.2351
 5814TIP3   OH217405   0.616   5.653   3.256 -0.5845  0.2323 -0.2156
 5814TIP3    H117406   0.708   5.646   3.285 -0.0412 -0.5218 -2.0021
 5814TIP3    H217407   0.565   5.636   3.336  0.8091  0.7174  0.8294
 5815TIP3   OH217408   3.049   4.047   4.115 -0.4310  0.2498  0.0841
 5815TIP3    H117409   3.136   4.056   4.154  0.8609  0.4234 -2.6523
 5815TIP3    H217410   3.023   3.957   4.135  0.6443 -0.0007  0.3887
 5816TIP3   OH217411   5.603   6.602   5.181 -0.3149  0.3539  0.3281
 5816TIP3    H117412   5.523   6.610   5.129 -0.7462 -1.3683  0.6791
 5816TIP3    H217413   5.574   6.605   5.272  0.0596  0.0911  0.4615
 5817TIP3   OH217414   3.522   0.271   2.763  0.2903  0.6970  0.7762
 5817TIP3    H117415   3.435   0.245   2.792  0.6461 -0.6915  0.6685
 5817TIP3    H217416   3.581   0.233   2.828  1.0517 -1.8377 -1.2475
 5818TIP3   OH217417   5.364   0.972   1.441 -0.3041 -0.1426 -0.0125
 5818TIP3    H117418   5.441   1.015   1.405  0.5411 -1.0889  0.6158
 5818TIP3    H217419   5.300   0.973   1.369 -0.2510  1.9113 -0.0948
 5819TIP3   OH217420   6.409   6.238   3.182 -0.1607  0.3067 -0.1231
 5819TIP3    H117421   6.337   6.199   3.133  0.4328 -1.1065  0.0862
 5819TIP3    H217422   6.471   6.166   3.195  1.7361  1.6797 -1.0737
 5820TIP3   OH217423   1.561   2.404   3.638 -0.0358 -0.4631 -0.0299
 5820TIP3    H117424   1.468   2.399   3.661 -0.1034  1.2798  0.2626
 5820TIP3    H217425   1.570   2.350   3.560 -1.3717 -0.3827 -0.2648
 5821TIP3   OH217426   6.376   2.215   3.399 -0.1350  0.0795 -0.2843
 5821TIP3    H117427   6.311   2.148   3.419  0.4590 -0.8239 -1.2751
 5821TIP3    H217428   6.335   2.271   3.334 -1.0167  1.3431  1.2765
 5822TIP3   OH217429   5.507   3.818   2.140  0.2472 -0.0027  0.4711
 5822TIP3    H117430   5.534   3.737   2.184  1.4275  0.7154  1.1145
 5822TIP3    H217431   5.473   3.789   2.056 -2.0669 -1.4387  1.7836
 5823TIP3   OH217432   2.860   0.438   4.014  0.0138  0.8115 -0.1657
 5823TIP3    H117433   2.929   0.502   4.033  1.1201 -0.3694 -0.0563
 5823TIP3    H217434   2.874   0.416   3.922 -0.8580  1.2834 -0.4198
 5824TIP3   OH217435   3.774   0.563   0.340  0.3819 -0.2641  0.3091
 5824TIP3    H117436   3.771   0.647   0.386 -2.0401 -0.1321  0.0748
 5824TIP3    H217437   3.807   0.501   0.405  0.8550  0.6129  0.9277
 5825TIP3   OH217438   0.401   5.121   4.537  0.2047 -0.4319 -0.3545
 5825TIP3    H117439   0.429   5.194   4.593 -0.6351  0.2864 -0.8327
 5825TIP3    H217440   0.367   5.056   4.598 -1.7418  0.8010 -0.0104
 5826TIP3   OH217441   6.859   6.797   4.339 -0.0205 -0.1465 -0.0808
 5826TIP3    H117442   6.868   6.851   4.417  1.4322  0.3449 -0.5535
 5826TIP3    H217443   6.817   6.717   4.369  1.2180 -0.2933  1.3608
 5827TIP3   OH217444   1.082   6.532   4.481  0.2444  0.1390  0.0131
 5827TIP3    H117445   1.107   6.453   4.434  0.0299  0.5171 -0.7593
 5827TIP3    H217446   1.140   6.535   4.557  0.4962 -0.5643 -0.1503
 5828TIP3   OH217447   2.133   0.785   1.331 -0.2887 -0.3807  0.3246
 5828TIP3    H117448   2.215   0.797   1.379 -0.5421  1.2801  0.4165
 5828TIP3    H217449   2.156   0.808   1.240 -0.2211 -1.8064 -0.0392
 5829TIP3   OH217450   7.173   6.154   3.535  0.1496 -0.3267 -0.2995
 5829TIP3    H117451   7.219   6.198   3.463  0.5287 -0.3220 -0.0580
 5829TIP3    H217452   7.163   6.064   3.506  1.5594 -0.6799  0.2054
 5830TIP3   OH217453   4.299   1.601   3.603  0.2430 -0.4552  0.0989
 5830TIP3    H117454   4.328   1.681   3.558 -1.7972  0.5924  0.5386
 5830TIP3    H217455   4.278   1.629   3.692 -0.2802 -1.5246  0.3306
 5831TIP3   OH217456   1.875   2.446   1.325  0.3689  0.0028  0.4356
 5831TIP3    H117457   1.810   2.420   1.390  1.1789 -0.0074  1.2657
 5831TIP3    H217458   1.958   2.413   1.359  0.6732 -1.0598 -1.1942
 5832TIP3   OH217459   6.488   5.217   0.197  0.6645 -0.1864 -0.0853
 5832TIP3    H117460   6.537   5.135   0.208 -0.4531 -1.4870 -3.5090
 5832TIP3    H217461   6.535   5.264   0.128 -0.5321  0.4838 -0.4747
 5833TIP3   OH217462   0.173   0.862   4.394 -0.4568 -0.4239  0.5539
 5833TIP3    H117463   0.099   0.876   4.336  0.3863  1.1855 -0.2208
 5833TIP3    H217464   0.143   0.892   4.480 -0.4407  1.1494  0.0411
 5834TIP3   OH217465   3.101   5.615   4.174 -0.1775 -0.1518 -0.0284
 5834TIP3    H117466   3.045   5.691   4.157  1.5102  0.8137 -1.7453
 5834TIP3    H217467   3.093   5.600   4.268 -1.9916  0.9864  0.0470
 5835TIP3   OH217468   0.222   6.518   4.178 -0.1437  0.3408  0.8021
 5835TIP3    H117469   0.234   6.484   4.267 -1.1851  0.0281  0.8430
 5835TIP3    H217470   0.130   6.499   4.158  0.6665 -1.8781 -1.2929
 5836TIP3   OH217471   1.894   4.554   1.044  0.3381 -0.1419  0.3280
 5836TIP3    H117472   1.900   4.459   1.056  0.8588  0.0531  1.6935
 5836TIP3    H217473   1.970   4.576   0.991 -0.0768 -0.5387 -0.4654
 5837TIP3   OH217474   0.782   5.349   3.231 -0.2383 -0.6921 -0.4242
 5837TIP3    H117475   0.776   5.256   3.253 -0.1573 -0.3993  0.9063
 5837TIP3    H217476   0.870   5.359   3.193  0.1349 -0.9920  0.3416
 5838TIP3   OH217477   2.791   3.225   1.462  0.2017  0.5885  0.0235
 5838TIP3    H117478   2.876   3.243   1.421  0.7869 -2.0566 -0.1341
 5838TIP3    H217479   2.731   3.212   1.388  0.1385  0.4309  0.1033
 5839TIP3   OH217480   0.942   3.058   5.216 -0.0546 -0.2810 -0.3145
 5839TIP3    H117481   0.870   3.088   5.273 -1.0726 -1.7489 -0.7636
 5839TIP3    H217482   0.936   3.114   5.139 -1.2674 -0.8965 -0.7000
 5840TIP3   OH217483   2.478   3.900   3.796  0.0248 -0.1159 -0.0459
 5840TIP3    H117484   2.507   3.832   3.857  3.0599  2.4739  1.6320
 5840TIP3    H217485   2.517   3.874   3.712  2.0485 -0.0286  0.8028
 5841TIP3   OH217486   2.019   0.073   1.540 -0.0536 -0.0989 -0.3530
 5841TIP3    H117487   2.078   0.027   1.600  0.1726  0.7090  0.0585
 5841TIP3    H217488   2.072   0.145   1.506 -0.6941  0.4024 -0.2836
 5842TIP3   OH217489   5.370   3.488   2.695  0.1035  0.4351 -0.1795
 5842TIP3    H117490   5.414   3.532   2.622  0.7755  1.2899  0.7232
 5842TIP3    H217491   5.291   3.540   2.710 -0.1611  0.1160 -0.4430
 5843TIP3   OH217492   5.913   2.369   0.346 -0.2676  0.4817 -0.5603
 5843TIP3    H117493   5.835   2.406   0.304 -0.9276  1.0690  1.0733
 5843TIP3    H217494   5.885   2.284   0.380  0.5717 -0.5001 -2.2021
 5844TIP3   OH217495   2.336   4.033   1.888 -0.0400 -0.1874  0.2397
 5844TIP3    H117496   2.357   4.103   1.950 -1.8661 -1.4379  2.4337
 5844TIP3    H217497   2.408   3.971   1.898  1.5113  1.1913 -1.6074
 5845TIP3   OH217498   0.909   3.022   2.314  0.1405 -0.3756  0.3495
 5845TIP3    H117499   1.001   3.048   2.318 -0.1277  1.0371 -1.2059
 5845TIP3    H217500   0.872   3.046   2.399  0.9543  0.1561  0.5598
 5846TIP3   OH217501   2.669   1.812   2.709  0.4244  0.1525  0.6992
 5846TIP3    H117502   2.705   1.803   2.797  1.5086  0.3410  0.2785
 5846TIP3    H217503   2.744   1.832   2.653 -0.2817  0.2684 -0.2379
 5847TIP3   OH217504   1.025   4.202   3.899 -0.2801 -0.6666 -1.2590
 5847TIP3    H117505   1.064   4.188   3.813 -0.7205 -2.1574 -1.2319
 5847TIP3    H217506   0.931   4.203   3.884 -0.3966  3.3672 -1.3929
 5848TIP3   OH217507   0.822   2.212   1.556 -0.0375  0.1887  0.6971
 5848TIP3    H117508   0.812   2.126   1.597  1.8424  1.4428  4.1472
 5848TIP3    H217509   0.736   2.253   1.565 -1.4663 -1.7018 -2.4405
 5849TIP3   OH217510   1.037   1.571   5.391  0.1339 -0.1553 -0.3012
 5849TIP3    H117511   1.020   1.663   5.369  2.0950  0.3598  0.1596
 5849TIP3    H217512   0.959   1.525   5.361 -0.3283  1.4690 -1.7928
 5850TIP3   OH217513   3.806   1.787   4.372 -0.2589 -0.5054 -0.3470
 5850TIP3    H117514   3.821   1.824   4.285 -1.3442 -2.5054 -1.4847
 5850TIP3    H217515   3.725   1.828   4.402 -0.7319 -0.9402 -0.9981
 5851TIP3   OH217516   0.385   2.990   1.488 -0.8530 -0.2845 -0.4293
 5851TIP3    H117517   0.305   3.034   1.516 -0.5431  0.1522 -0.2210
 5851TIP3    H217518   0.421   2.952   1.568  1.2917  2.9618  0.3537
 5852TIP3   OH217519   0.608   6.044   0.415 -0.0363  0.4354  0.1903
 5852TIP3    H117520   0.695   6.077   0.439 -0.6290  0.3849  2.6327
 5852TIP3    H217521   0.547   6.111   0.448 -1.0126 -0.3992  0.1220
 5853TIP3   OH217522   1.335   3.169   1.428  0.1615  0.5766  0.4675
 5853TIP3    H117523   1.365   3.129   1.346 -0.7195 -0.2221  0.5140
 5853TIP3    H217524   1.329   3.263   1.408  1.2299  0.5588  0.0280
 5854TIP3   OH217525   2.781   5.429   4.408 -0.0376 -0.0335  0.3256
 5854TIP3    H117526   2.742   5.515   4.420 -1.5357 -0.4090 -1.4470
 5854TIP3    H217527   2.813   5.405   4.495  0.0768  2.1282  0.9263
 5855TIP3   OH217528   4.023   2.594   4.357  0.3192 -0.1997  0.0358
 5855TIP3    H117529   4.013   2.575   4.264  1.6804 -0.3245 -0.1134
 5855TIP3    H217530   4.117   2.583   4.373  0.2504  0.7411  1.2144
 5856TIP3   OH217531   3.043   5.042   1.101 -0.3368  0.4656  0.4017
 5856TIP3    H117532   3.087   5.011   1.022  0.4083 -0.3705  1.1223
 5856TIP3    H217533   3.066   4.978   1.168 -1.7474  0.6354  1.0754
 5857TIP3   OH217534   5.490   0.639   5.565 -0.0041 -0.3498  0.5112
 5857TIP3    H117535   5.503   0.566   5.626  0.2809  0.8362  1.9108
 5857TIP3    H217536   5.570   0.690   5.570 -0.4736  0.4598  0.0813
 5858TIP3   OH217537   7.168   1.472   5.284 -0.0050  0.6077 -0.6288
 5858TIP3    H117538   7.199   1.528   5.213  0.4590 -0.7386 -1.5099
 5858TIP3    H217539   7.080   1.445   5.257  0.5421 -0.6769 -1.1646
 5859TIP3   OH217540   6.802   3.414   0.256  0.6475  0.6990  0.0215
 5859TIP3    H117541   6.775   3.480   0.320 -2.4086  0.6818 -1.0664
 5859TIP3    H217542   6.814   3.334   0.308 -2.1232  0.5993  0.6903
 5860TIP3   OH217543   2.979   1.465   0.636 -0.1848 -0.1200  0.3685
 5860TIP3    H117544   3.070   1.469   0.605  0.2919 -2.4256  1.2479
 5860TIP3    H217545   2.978   1.392   0.698 -2.8388 -0.7423 -0.2754
 5861TIP3   OH217546   7.036   3.062   1.331  0.6492 -0.6306 -0.6576
 5861TIP3    H117547   6.985   3.001   1.277 -1.9702 -2.6648  3.5938
 5861TIP3    H217548   7.110   3.010   1.362 -0.6091 -1.2725  1.5201
 5862TIP3   OH217549   4.331   6.411   2.508 -0.5210 -0.0424  0.0109
 5862TIP3    H117550   4.338   6.320   2.534 -0.1757 -0.0069  0.0503
 5862TIP3    H217551   4.262   6.447   2.563 -0.2443 -0.1297  0.4136
 5863TIP3   OH217552   7.077   0.305   3.874  0.3285 -0.6113 -0.4833
 5863TIP3    H117553   7.082   0.211   3.857 -0.8448 -1.1171  1.5981
 5863TIP3    H217554   7.097   0.314   3.967 -0.7001  1.0646 -0.3787
 5864TIP3   OH217555   6.765   5.691   1.948 -0.0523  0.0193  0.3201
 5864TIP3    H117556   6.671   5.701   1.965 -0.1540 -0.0344 -0.1837
 5864TIP3    H217557   6.797   5.638   2.020 -0.4034  0.0768  0.5216
 5865TIP3   OH217558   0.955   0.854   1.150 -0.2886  0.4660 -0.1512
 5865TIP3    H117559   0.889   0.793   1.117 -0.1176 -1.1046  2.1539
 5865TIP3    H217560   1.038   0.811   1.130 -0.1600  0.0371  1.1748
 5866TIP3   OH217561   6.101   6.446   4.283 -0.2124  0.0954  0.1066
 5866TIP3    H117562   6.076   6.360   4.318  0.7848 -0.5866 -0.7991
 5866TIP3    H217563   6.024   6.475   4.235  0.3929 -1.6718 -2.0911
 5867TIP3   OH217564   2.352   0.292   5.317 -0.1988  0.3845  0.1382
 5867TIP3    H117565   2.360   0.384   5.292 -0.1377  0.8277  1.6511
 5867TIP3    H217566   2.276   0.260   5.269  1.2351  0.4642 -2.3864
 5868TIP3   OH217567   0.641   3.071   0.730  0.0671 -0.6556  0.5218
 5868TIP3    H117568   0.705   3.001   0.745 -0.5856 -1.1817  0.9114
 5868TIP3    H217569   0.661   3.135   0.798  0.1032 -0.8740  0.7216
 5869TIP3   OH217570   0.287   2.960   0.399 -0.0436  0.0076  0.2941
 5869TIP3    H117571   0.357   2.917   0.350  0.7686  1.3802  0.2120
 5869TIP3    H217572   0.302   2.933   0.490 -0.1185 -0.6154  0.1310
 5870TIP3   OH217573   4.034   1.783   5.568  0.4477  0.2721 -0.4152
 5870TIP3    H117574   4.046   1.772   5.662  1.0010  2.2990 -0.2157
 5870TIP3    H217575   3.953   1.736   5.549 -0.4922  1.0951  1.3503
 5871TIP3   OH217576   4.893   2.962   5.386 -0.3920  0.0906 -0.8360
 5871TIP3    H117577   4.942   3.042   5.404 -1.2914  0.4730  0.0920
 5871TIP3    H217578   4.955   2.891   5.401  0.1529  0.5934 -0.6966
 5872TIP3   OH217579   3.805   1.417   1.395  0.0338 -0.4802 -0.4259
 5872TIP3    H117580   3.741   1.483   1.368  1.1533  0.3211 -1.1987
 5872TIP3    H217581   3.860   1.462   1.459  1.3858 -0.3470 -1.6491
 5873TIP3   OH217582   4.022   0.150   0.065 -0.0304  0.1489  0.2483
 5873TIP3    H117583   3.989   0.162   0.154  1.7150 -0.8123  1.0690
 5873TIP3    H217584   4.012   0.057   0.048  0.0218  0.2584 -0.4034
 5874TIP3   OH217585   1.089   3.266   0.820 -0.8269  0.2588 -0.1778
 5874TIP3    H117586   1.054   3.317   0.747 -2.3703 -0.1027  0.2751
 5874TIP3    H217587   1.165   3.316   0.851 -0.9326  1.0732 -1.1988
 5875TIP3   OH217588   2.453   1.803   1.967  0.6972 -0.2205 -0.2534
 5875TIP3    H117589   2.416   1.814   1.880 -2.3491  1.0042  1.0697
 5875TIP3    H217590   2.456   1.892   2.004  0.2397 -0.8960  1.5096
 5876TIP3   OH217591   1.853   3.983   1.782 -0.1204  0.1110  0.5470
 5876TIP3    H117592   1.825   4.043   1.713 -1.0859  0.6537  1.3732
 5876TIP3    H217593   1.792   3.910   1.777 -0.0536  0.0460  0.6690
 5877TIP3   OH217594   1.475   4.823   3.622  0.1891  0.5062  0.0941
 5877TIP3    H117595   1.524   4.740   3.618  0.8097  0.8983 -0.5953
 5877TIP3    H217596   1.446   4.838   3.532  1.0628  1.6163 -0.0239
 5878TIP3   OH217597   2.494   2.402   4.269 -0.1018 -0.1805 -0.0093
 5878TIP3    H117598   2.417   2.350   4.295 -0.9292  0.9093 -0.1979
 5878TIP3    H217599   2.460   2.464   4.204  1.1120 -0.1891 -0.6793
 5879TIP3   OH217600   3.259   3.104   5.068  0.0531 -0.2673 -0.4596
 5879TIP3    H117601   3.211   3.186   5.081 -0.8996 -0.5309 -1.9325
 5879TIP3    H217602   3.301   3.086   5.152 -2.0429  0.2525  0.7810
 5880TIP3   OH217603   4.044   4.644   4.369  0.1792  0.2508  0.2014
 5880TIP3    H117604   4.041   4.723   4.424  0.8804  1.6023 -1.6245
 5880TIP3    H217605   4.124   4.599   4.398 -0.1982  0.2024  1.2272
 5881TIP3   OH217606   1.885   4.043   5.103  0.2233 -0.1030 -0.4155
 5881TIP3    H117607   1.899   3.996   5.021 -3.1522 -1.0235 -0.6158
 5881TIP3    H217608   1.924   3.987   5.170 -1.7465 -2.1585 -0.8857
 5882TIP3   OH217609   5.480   6.614   4.821 -0.4822  0.1975 -0.1820
 5882TIP3    H117610   5.524   6.547   4.769 -0.8323  0.3443 -0.6692
 5882TIP3    H217611   5.420   6.566   4.877  1.7700 -0.2368  2.0732
 5883TIP3   OH217612   2.275   4.355   4.243  0.1341 -0.7679  0.0630
 5883TIP3    H117613   2.273   4.391   4.154 -0.4422 -3.1477 -0.9604
 5883TIP3    H217614   2.356   4.305   4.248  0.3178 -0.4066  1.0207
 5884TIP3   OH217615   7.048   0.639   0.656 -0.1352 -0.0998  0.2810
 5884TIP3    H117616   7.027   0.579   0.728 -0.2534 -0.9954 -0.4817
 5884TIP3    H217617   6.990   0.612   0.585 -3.0660  3.3949  1.0670
 5885TIP3   OH217618   5.693   4.189   2.727  0.4591  0.3742 -0.2247
 5885TIP3    H117619   5.607   4.192   2.768 -0.2462 -0.8806 -1.4916
 5885TIP3    H217620   5.751   4.154   2.794 -0.5785 -1.2770 -0.1315
 5886TIP3   OH217621   4.743   4.253   4.512 -0.0902  0.6050  0.0801
 5886TIP3    H117622   4.681   4.186   4.542 -0.2053  0.2411 -0.9481
 5886TIP3    H217623   4.829   4.219   4.538 -0.1770  0.2409 -0.1009
 5887TIP3   OH217624   6.412   5.300   1.982  0.1295 -0.1731 -0.7399
 5887TIP3    H117625   6.356   5.235   2.024  1.0681 -0.4315  0.1332
 5887TIP3    H217626   6.402   5.379   2.036 -0.2562  0.1241 -1.2364
 5888TIP3   OH217627   4.228   1.039   5.446 -0.5765 -0.3184  0.5291
 5888TIP3    H117628   4.277   1.076   5.520  1.0385 -1.5830  0.1490
 5888TIP3    H217629   4.294   0.998   5.391 -1.9315 -0.8595 -0.7729
 5889TIP3   OH217630   6.533   1.659   2.932  0.2795  0.1687 -0.5757
 5889TIP3    H117631   6.471   1.638   3.002  0.5567  2.5652  0.4774
 5889TIP3    H217632   6.477   1.679   2.857 -0.2428  1.2813  0.0744
 5890TIP3   OH217633   4.128   0.066   2.090  0.2842  0.4737 -0.0437
 5890TIP3    H117634   4.218   0.038   2.102  0.3698  0.9730  0.6164
 5890TIP3    H217635   4.088   0.000   2.034  0.2803 -1.3588  1.9603
 5891TIP3   OH217636   4.518   5.532   0.656  0.4449 -0.2788 -0.3987
 5891TIP3    H117637   4.561   5.617   0.657  1.0345 -0.5435 -1.8191
 5891TIP3    H217638   4.446   5.541   0.719 -0.3605  1.7323 -1.5196
 5892TIP3   OH217639   3.281   5.495   1.694 -0.0744 -0.5867 -0.0738
 5892TIP3    H117640   3.317   5.458   1.614 -0.3384 -0.4167 -0.2710
 5892TIP3    H217641   3.308   5.587   1.692  0.7840 -0.8128  0.5306
 5893TIP3   OH217642   3.438   4.421   5.700 -0.1364  0.3004 -0.2533
 5893TIP3    H117643   3.478   4.338   5.673  0.2934  0.3836  0.1010
 5893TIP3    H217644   3.369   4.437   5.636  0.9327  0.5580 -1.3717
 5894TIP3   OH217645   2.531   4.953   3.943  0.1978  0.6174  0.8317
 5894TIP3    H117646   2.463   4.890   3.920 -1.0475  1.7756  1.2036
 5894TIP3    H217647   2.579   4.913   4.015 -0.4239  0.0048  0.9077
 5895TIP3   OH217648   4.057   1.884   1.702 -0.0454  0.0656  0.3693
 5895TIP3    H117649   4.144   1.883   1.663 -0.8899 -2.4459 -1.6728
 5895TIP3    H217650   4.073   1.872   1.796  1.7925 -1.2400 -0.0601
 5896TIP3   OH217651   6.332   0.264   4.688  0.1138 -0.1546 -0.6219
 5896TIP3    H117652   6.387   0.275   4.610 -0.2338  1.2880 -0.6851
 5896TIP3    H217653   6.372   0.191   4.735  2.1571  0.8723 -0.6382
 5897TIP3   OH217654   3.085   6.708   0.495 -0.4417  0.3742 -0.2606
 5897TIP3    H117655   3.047   6.710   0.407  1.3922  4.2637 -1.1776
 5897TIP3    H217656   3.177   6.684   0.481 -0.1187  1.0912  0.5452
 5898TIP3   OH217657   6.775   3.540   1.173  0.4092  1.1279 -0.0574
 5898TIP3    H117658   6.787   3.525   1.266 -1.9482  0.3395  0.1877
 5898TIP3    H217659   6.851   3.592   1.147  2.5522 -0.9047  1.6885
 5899TIP3   OH217660   5.019   2.178   0.829  0.0954  0.0270  0.2159
 5899TIP3    H117661   5.051   2.095   0.866  0.0833 -0.6784 -1.2930
 5899TIP3    H217662   4.933   2.189   0.869  0.2400 -0.5109  0.6996
 5900TIP3   OH217663   0.078   3.426   0.093  0.1515  0.0852 -0.0925
 5900TIP3    H117664   0.125   3.348   0.122 -1.5287 -1.3198 -0.9877
 5900TIP3    H217665   0.110   3.495   0.151  0.5318 -1.5880  1.8292
 5901TIP3   OH217666   0.412   0.408   5.059  0.3836 -0.1522 -0.2259
 5901TIP3    H117667   0.416   0.387   5.152 -4.3318 -1.2460 -0.0327
 5901TIP3    H217668   0.429   0.503   5.055 -0.7626  0.2092  1.9998
 5902TIP3   OH217669   4.542   1.138   0.596 -0.3303  0.3287 -0.3427
 5902TIP3    H117670   4.563   1.069   0.533  1.7127  2.6642 -2.4220
 5902TIP3    H217671   4.501   1.092   0.669  1.9490 -3.2618 -1.0626
 5903TIP3   OH217672   4.986   0.691   4.984 -0.5743  0.1413 -0.0477
 5903TIP3    H117673   5.038   0.643   4.920 -0.9828 -1.9275  1.0619
 5903TIP3    H217674   4.979   0.780   4.949  0.4312 -0.5379 -2.1000
 5904TIP3   OH217675   6.399   1.500   4.967 -0.2299  0.2386 -0.0117
 5904TIP3    H117676   6.446   1.456   4.896  0.2256  0.5070  0.1187
 5904TIP3    H217677   6.468   1.536   5.022 -0.5876  1.0632 -0.0829
 5905TIP3   OH217678   4.745   0.325   0.147 -0.0368  0.2153 -0.9631
 5905TIP3    H117679   4.702   0.322   0.232  3.0744  0.9827  0.7734
 5905TIP3    H217680   4.793   0.242   0.141 -0.1054  0.2346 -1.9307
 5906TIP3   OH217681   5.424   5.428   1.630  0.2915 -0.5588  0.5123
 5906TIP3    H117682   5.460   5.513   1.603 -2.2733  0.6194  0.5200
 5906TIP3    H217683   5.397   5.441   1.721  0.1286 -1.4793  0.6026
 5907TIP3   OH217684   0.773   0.703   1.027  0.0829  0.0797 -0.1057
 5907TIP3    H117685   0.805   0.618   0.996 -0.6445 -0.2228 -0.0667
 5907TIP3    H217686   0.711   0.731   0.959  0.3305  0.5928 -0.1260
 5908TIP3   OH217687   5.247   5.758   3.038 -0.4695  0.4704  0.1150
 5908TIP3    H117688   5.269   5.747   3.130  0.7199  0.7403 -0.1172
 5908TIP3    H217689   5.296   5.689   2.993  0.7757  1.7272 -0.5298
 5909TIP3   OH217690   5.362   3.093   5.362 -0.0486  0.2032  0.3206
 5909TIP3    H117691   5.380   3.137   5.445 -1.9175  0.5618  0.5896
 5909TIP3    H217692   5.430   3.125   5.303  0.4556  1.0636  1.3355
 5910TIP3   OH217693   2.682   4.806   4.141  0.4883 -0.0201  0.5575
 5910TIP3    H117694   2.620   4.799   4.214  1.2895 -1.1615  1.1692
 5910TIP3    H217695   2.768   4.810   4.184  0.9883 -0.9123 -0.3251
 5911TIP3   OH217696   3.128   5.391   2.503  0.4133 -0.3750 -0.3345
 5911TIP3    H117697   3.090   5.370   2.588 -2.3185  1.2112 -1.0430
 5911TIP3    H217698   3.110   5.314   2.449 -0.9730 -0.0714 -0.3551
 5912TIP3   OH217699   3.255   5.569   5.564 -0.2234  0.1013  0.3016
 5912TIP3    H117700   3.186   5.592   5.502 -0.5622  0.3636  0.7683
 5912TIP3    H217701   3.230   5.483   5.598 -0.1783  0.0752  0.2687
 5913TIP3   OH217702   5.291   4.915   5.030  0.1062 -0.0368  0.1428
 5913TIP3    H117703   5.273   4.888   5.120  2.6044  0.8939  0.9876
 5913TIP3    H217704   5.291   4.833   4.979  1.6358 -0.9650  1.5552
 5914TIP3   OH217705   0.162   4.699   4.527 -0.0504 -0.6706  0.0927
 5914TIP3    H117706   0.220   4.680   4.454  0.4740  1.7839 -0.1943
 5914TIP3    H217707   0.079   4.656   4.504 -0.3665  1.1519 -2.6956
 5915TIP3   OH217708   3.500   0.869   5.195  0.1289 -0.0332 -0.1635
 5915TIP3    H117709   3.531   0.794   5.244  0.6024 -0.2107 -0.7297
 5915TIP3    H217710   3.415   0.841   5.160  0.5783 -0.5222 -0.8715
 5916TIP3   OH217711   7.028   0.736   1.361 -0.1450  0.0278  0.3276
 5916TIP3    H117712   7.118   0.764   1.374 -0.3080  0.5432  0.3771
 5916TIP3    H217713   7.016   0.664   1.423  0.0149  0.4315  0.8354
 5917TIP3   OH217714   4.464   3.000   3.903 -0.3406 -0.5533 -0.1729
 5917TIP3    H117715   4.433   2.923   3.855  0.5685 -1.2565  0.3266
 5917TIP3    H217716   4.514   3.050   3.839 -0.5725 -0.6004 -0.3912
 5918TIP3   OH217717   2.674   2.665   4.228 -0.3449 -0.1389  0.7767
 5918TIP3    H117718   2.733   2.678   4.302 -0.2192 -0.9720  0.8294
 5918TIP3    H217719   2.720   2.604   4.170 -0.0282  1.2201 -0.4677
 5919TIP3   OH217720   5.775   0.642   3.554  0.2677 -0.4859  0.2171
 5919TIP3    H117721   5.745   0.581   3.621  1.0952  1.7611  2.8124
 5919TIP3    H217722   5.858   0.676   3.587  0.6924  0.7915 -1.9463
 5920TIP3   OH217723   2.699   6.751   3.474 -0.0937  1.0533 -0.4507
 5920TIP3    H117724   2.782   6.793   3.494  0.3958 -0.1128  0.0564
 5920TIP3    H217725   2.682   6.694   3.549 -2.5817  3.0504  0.6144
 5921TIP3   OH217726   6.807   0.805   1.188  0.0113 -0.4741 -0.1161
 5921TIP3    H117727   6.888   0.790   1.237  2.0551  2.3903 -2.3222
 5921TIP3    H217728   6.762   0.873   1.238 -0.6753 -1.4453  0.6335
 5922TIP3   OH217729   3.358   2.600   3.847 -0.0972 -0.1242  0.1706
 5922TIP3    H117730   3.316   2.631   3.767 -1.4064 -0.3534  0.7372
 5922TIP3    H217731   3.443   2.643   3.848 -1.2022  2.2320  0.1097
 5923TIP3   OH217732   5.862   6.538   5.057 -0.3825 -0.5223  0.6149
 5923TIP3    H117733   5.781   6.554   5.107 -1.7144 -0.5242 -1.4109
 5923TIP3    H217734   5.925   6.508   5.122 -1.5846  0.8232  2.5102
 5924TIP3   OH217735   0.800   1.277   0.959  0.3598  0.3544  0.4883
 5924TIP3    H117736   0.882   1.282   0.908  0.3051 -0.4124  0.3135
 5924TIP3    H217737   0.742   1.341   0.916  0.6666  0.4774  0.2464
 5925TIP3   OH217738   3.735   2.854   5.251  0.3439 -0.5352  0.5384
 5925TIP3    H117739   3.674   2.870   5.323 -1.2710 -0.3162 -0.8243
 5925TIP3    H217740   3.773   2.940   5.232  0.4437 -0.5161  0.8086
 5926TIP3   OH217741   4.791   0.277   5.540  0.1237 -0.2091 -0.8215
 5926TIP3    H117742   4.791   0.209   5.607 -1.0852  0.1906 -0.4039
 5926TIP3    H217743   4.866   0.255   5.485 -1.2708 -2.9628 -1.8002
 5927TIP3   OH217744   4.525   5.704   4.875 -0.0962 -0.1279  0.1105
 5927TIP3    H117745   4.620   5.704   4.864 -0.2517 -0.9659 -1.4412
 5927TIP3    H217746   4.512   5.734   4.965  1.5626  1.3827 -0.0941
 5928TIP3   OH217747   0.996   1.389   3.032  0.1596 -0.3683 -0.5561
 5928TIP3    H117748   1.090   1.404   3.041 -0.0932  0.5161  0.7201
 5928TIP3    H217749   0.978   1.314   3.088  0.0622 -0.4495 -0.6932
 5929TIP3   OH217750   4.262   4.790   3.363 -0.1837  0.2485  0.5019
 5929TIP3    H117751   4.283   4.760   3.451 -1.2928 -0.5548  0.5131
 5929TIP3    H217752   4.343   4.832   3.332  0.3405  0.1986  1.7416
 5930TIP3   OH217753   4.129   6.008   0.269 -0.1376  0.0532 -0.2910
 5930TIP3    H117754   4.112   6.102   0.257 -1.7070 -0.3641 -1.5699
 5930TIP3    H217755   4.049   5.975   0.309  0.7426 -0.6269  0.9779
 5931TIP3   OH217756   5.864   2.018   1.966 -0.5800  0.7380  0.0911
 5931TIP3    H117757   5.935   2.020   1.901  1.3222 -3.1748  1.7128
 5931TIP3    H217758   5.806   1.948   1.936 -0.0302 -0.6803  2.1023
 5932TIP3   OH217759   0.013   6.559   2.707 -0.1771  0.0704  0.2539
 5932TIP3    H117760   0.020   6.602   2.792  3.6999  0.7562 -0.1953
 5932TIP3    H217761  -0.018   6.627   2.648  1.0346  0.8519  0.4692
 5933TIP3   OH217762   6.384   3.957   4.675 -0.2177  0.1467  0.3613
 5933TIP3    H117763   6.326   3.883   4.692  0.1581 -0.2268  0.0628
 5933TIP3    H217764   6.439   3.928   4.602 -0.7970  1.1295 -0.5049
 5934TIP3   OH217765   0.757   3.264   2.973  0.0303  0.0516  0.3982
 5934TIP3    H117766   0.694   3.336   2.985 -1.2663 -0.8865 -0.4923
 5934TIP3    H217767   0.731   3.223   2.890  0.8170 -1.3682  0.8232
 5935TIP3   OH217768   1.311   1.976   1.750  0.5405  0.1016 -0.8513
 5935TIP3    H117769   1.375   1.986   1.680  3.5027  0.0137  1.6171
 5935TIP3    H217770   1.306   2.063   1.790 -1.1680  0.1779 -1.1536
 5936TIP3   OH217771   6.391   4.069   0.227 -0.5124  0.1280  0.2177
 5936TIP3    H117772   6.452   4.115   0.169  1.3550 -0.4218  1.6411
 5936TIP3    H217773   6.415   3.977   0.219  0.0251  0.0567  2.0407
 5937TIP3   OH217774   3.277   2.561   2.977  0.3374 -0.0477  0.5025
 5937TIP3    H117775   3.370   2.542   2.987  0.2817 -0.2241  0.6912
 5937TIP3    H217776   3.272   2.619   2.902  0.2745 -2.8995 -1.9013
 5938TIP3   OH217777   1.164   3.133   2.322  0.1142 -0.0932  0.3797
 5938TIP3    H117778   1.183   3.190   2.248 -0.7248  0.2250  0.4046
 5938TIP3    H217779   1.215   3.170   2.394 -0.1646  0.4339  0.3136
 5939TIP3   OH217780   1.759   6.510   2.742  0.4831  0.0773  0.2487
 5939TIP3    H117781   1.746   6.420   2.710 -0.4751 -1.0125  3.2597
 5939TIP3    H217782   1.701   6.563   2.688 -0.0795 -1.3713 -0.6483
 5940TIP3   OH217783   1.737   1.370   1.096  0.1344  0.1388  0.1212
 5940TIP3    H117784   1.823   1.333   1.117  0.1123 -0.0325 -0.0902
 5940TIP3    H217785   1.757   1.446   1.041  0.1478  0.0872  0.0557
 5941TIP3   OH217786   4.951   6.762   5.653 -0.8184 -0.1307  0.0873
 5941TIP3    H117787   5.023   6.744   5.592 -1.9376 -3.0178 -0.5716
 5941TIP3    H217788   4.880   6.792   5.596 -1.0424 -0.2254  0.3168
 5942TIP3   OH217789   2.256   1.459   0.069 -0.0101  1.0343 -0.0126
 5942TIP3    H117790   2.322   1.520   0.038 -0.7105  1.1826 -1.2564
 5942TIP3    H217791   2.304   1.378   0.087  0.7734  1.6594  0.7794
 5943TIP3   OH217792   2.584   0.859   3.476 -0.5238  0.6077 -0.2281
 5943TIP3    H117793   2.674   0.889   3.489 -0.1430 -0.2334 -0.8237
 5943TIP3    H217794   2.580   0.775   3.522 -1.0805  0.7566  0.0019
 5944TIP3   OH217795   3.298   3.558   2.409 -0.4291 -0.2162 -0.0415
 5944TIP3    H117796   3.309   3.492   2.478  0.0535  0.2974  0.3926
 5944TIP3    H217797   3.362   3.626   2.432 -1.1402  0.5544 -0.2888
 5945TIP3   OH217798   1.634   5.240   1.555  0.2299 -0.3897 -0.6467
 5945TIP3    H117799   1.640   5.215   1.647 -0.7753 -0.8624 -0.6872
 5945TIP3    H217800   1.722   5.227   1.520  0.6352 -0.1252  0.2691
 5946TIP3   OH217801   7.214   3.876   4.166  0.0989  0.2042 -0.5182
 5946TIP3    H117802   7.253   3.864   4.252  0.0453  1.6008 -0.2853
 5946TIP3    H217803   7.144   3.940   4.180 -2.8506 -2.7167 -0.7683
 5947TIP3   OH217804   3.289   1.860   2.464  0.7191  0.9045  0.0114
 5947TIP3    H117805   3.246   1.783   2.425 -0.7688  2.1918 -0.9805
 5947TIP3    H217806   3.370   1.825   2.500 -0.6125 -1.4433  0.9705
 5948TIP3   OH217807   2.270   3.554   3.130  0.3078  0.2412 -0.5149
 5948TIP3    H117808   2.259   3.499   3.208 -0.9034 -0.6634 -1.2806
 5948TIP3    H217809   2.363   3.547   3.109  0.6136  0.3438  0.7274
 5949TIP3   OH217810   4.400   6.025   0.247 -0.0188 -0.2573  0.2048
 5949TIP3    H117811   4.309   6.011   0.274 -1.1311  0.1202 -2.9493
 5949TIP3    H217812   4.393   6.068   0.162  3.1322 -0.5996 -0.3306
 5950TIP3   OH217813   3.677   0.525   3.006 -0.2364 -1.0058 -0.2794
 5950TIP3    H117814   3.689   0.430   2.998 -1.0994 -0.9936 -2.4375
 5950TIP3    H217815   3.657   0.554   2.917  0.3719  1.2760  0.2667
 5951TIP3   OH217816   2.720   6.234   2.642 -0.1264 -0.2200 -0.0667
 5951TIP3    H117817   2.812   6.211   2.625  0.2202 -0.6463  2.0498
 5951TIP3    H217818   2.710   6.222   2.737 -2.2475  0.3049 -0.1798
 5952TIP3   OH217819   6.647   5.226   0.887  0.2516  0.1751 -0.1901
 5952TIP3    H117820   6.596   5.145   0.878  0.2419  0.2635 -0.9279
 5952TIP3    H217821   6.683   5.221   0.976 -0.1177 -0.4222 -0.0657
 5953TIP3   OH217822   3.282   3.419   2.172 -1.5189 -0.0932 -0.1593
 5953TIP3    H117823   3.322   3.439   2.257 -1.2277 -0.6327 -0.1681
 5953TIP3    H217824   3.261   3.505   2.136 -2.4618  0.1254  0.8432
 5954TIP3   OH217825   1.073   3.930   5.294  0.2888  0.4040 -0.4156
 5954TIP3    H117826   1.074   3.924   5.389  0.7440  0.5915 -0.4033
 5954TIP3    H217827   1.030   3.850   5.265  0.6330  0.0913 -0.0661
 5955TIP3   OH217828   1.708   5.785   2.248  0.3472  0.0769  0.1549
 5955TIP3    H117829   1.614   5.803   2.246  0.7842  2.7082 -0.5399
 5955TIP3    H217830   1.719   5.720   2.317 -1.6733  1.8177  2.2596
 5956TIP3   OH217831   0.681   3.515   2.684 -0.3396 -0.0420  0.2350
 5956TIP3    H117832   0.735   3.437   2.691  0.4865  0.2646 -2.0380
 5956TIP3    H217833   0.661   3.539   2.775  1.8962 -1.1585  1.0742
 5957TIP3   OH217834   1.426   3.240   3.807  0.7815  0.2181  0.0575
 5957TIP3    H117835   1.384   3.182   3.743 -1.4056 -0.2651  1.7929
 5957TIP3    H217836   1.437   3.322   3.761 -1.3397  0.0833 -0.8108
 5958TIP3   OH217837   3.385   3.981   4.755 -0.6665  0.1571  0.5634
 5958TIP3    H117838   3.462   4.038   4.765 -0.6098 -0.0807  1.6012
 5958TIP3    H217839   3.337   3.991   4.837  0.0292 -2.2755  1.3678
 5959TIP3   OH217840   6.423   3.074   3.870 -0.0872  0.0544 -0.5719
 5959TIP3    H117841   6.359   3.142   3.847 -0.6858  0.2580  1.4957
 5959TIP3    H217842   6.500   3.094   3.817 -0.4957  1.9767 -0.5034
 5960TIP3   OH217843   0.492   2.227   3.238  0.7303 -0.2739  0.1753
 5960TIP3    H117844   0.557   2.172   3.193  2.3766  1.8147 -0.1738
 5960TIP3    H217845   0.517   2.316   3.216 -1.1565  0.6925  1.6284
 5961TIP3   OH217846   4.790   4.140   3.446 -0.1997  0.0744 -0.0845
 5961TIP3    H117847   4.873   4.166   3.406 -0.3518  0.4866 -0.1371
 5961TIP3    H217848   4.730   4.128   3.372 -0.1483 -0.3732 -0.0567
 5962TIP3   OH217849   3.294   6.065   2.540  0.3465  0.1364  0.1546
 5962TIP3    H117850   3.252   6.047   2.624 -1.7905 -0.0614 -0.8961
 5962TIP3    H217851   3.388   6.054   2.558 -0.1651 -2.3508  1.9431
 5963TIP3   OH217852   1.996   2.122   4.567 -0.0730 -0.1467  0.1915
 5963TIP3    H117853   2.012   2.199   4.511 -2.3221  1.1882  1.2576
 5963TIP3    H217854   2.009   2.048   4.509  1.0798  1.0619 -1.1851
 5964TIP3   OH217855   4.366   2.345   3.279  0.2687 -0.1672 -0.3277
 5964TIP3    H117856   4.414   2.278   3.327 -0.2332  0.7867  1.6456
 5964TIP3    H217857   4.282   2.304   3.258  0.2249 -0.3910  0.2591
 5965TIP3   OH217858   0.536   5.762   1.547 -0.5267 -0.7399  0.1707
 5965TIP3    H117859   0.555   5.855   1.561  1.3962 -1.2444  1.1912
 5965TIP3    H217860   0.479   5.738   1.621  0.5837 -0.8102  1.0245
 5966TIP3   OH217861   3.421   0.554   1.237  0.3576 -0.2795 -0.0600
 5966TIP3    H117862   3.331   0.550   1.203  0.9253 -1.3901 -1.5717
 5966TIP3    H217863   3.451   0.463   1.232  2.2630  0.3742 -1.6285
 5967TIP3   OH217864   3.021   6.125   3.685 -0.1505 -0.4109 -0.2516
 5967TIP3    H117865   2.950   6.063   3.694 -0.9281  0.4462 -0.2884
 5967TIP3    H217866   2.985   6.195   3.629  1.2492 -0.7408 -1.6408
 5968TIP3   OH217867   1.815   0.017   3.868 -0.0857 -0.3215  0.3114
 5968TIP3    H117868   1.837   0.057   3.952 -1.4938 -1.2822  1.1686
 5968TIP3    H217869   1.886  -0.045   3.851  0.4454  0.2115  0.5477
 5969TIP3   OH217870   1.656   4.227   5.707 -0.5883  0.1490  0.4221
 5969TIP3    H117871   1.598   4.299   5.733 -0.4955  1.4929 -2.7414
 5969TIP3    H217872   1.598   4.165   5.662  0.0383  0.4160 -0.7758
 5970TIP3   OH217873   4.810   1.488   4.811  0.0676  0.6505 -0.1036
 5970TIP3    H117874   4.730   1.471   4.862  0.4080  0.6713  0.4442
 5970TIP3    H217875   4.881   1.465   4.870  0.4774  1.0039 -0.4559
 5971TIP3   OH217876   5.168   3.237   1.840 -0.0892 -0.1433  0.1298
 5971TIP3    H117877   5.122   3.313   1.807 -0.1762 -0.1865  0.1522
 5971TIP3    H217878   5.128   3.162   1.796  0.0596 -0.1689  0.0366
 5972TIP3   OH217879   5.407   0.745   5.298  0.2853  0.3125  0.3166
 5972TIP3    H117880   5.336   0.782   5.351  1.3930  2.0398  0.6614
 5972TIP3    H217881   5.459   0.694   5.360 -0.4586 -0.7367  0.1144
 5973TIP3   OH217882   2.938   0.484   3.367 -0.1076  0.1558  0.1219
 5973TIP3    H117883   3.030   0.496   3.388 -0.0645 -0.3951  0.2596
 5973TIP3    H217884   2.937   0.416   3.300 -0.4105  0.2004  0.0789
 5974TIP3   OH217885   2.016   3.053   4.291  0.7710 -0.2393  0.2010
 5974TIP3    H117886   1.992   3.145   4.301  1.2679 -0.1570  0.6696
 5974TIP3    H217887   2.109   3.054   4.269  0.9987 -0.6590  1.0927
 5975TIP3   OH217888   6.038   4.074   4.505  0.2427  0.6787  0.1512
 5975TIP3    H117889   6.044   3.986   4.541  2.6875  0.6708 -0.1473
 5975TIP3    H217890   6.060   4.132   4.578  1.5986  0.8474 -0.3572
 5976TIP3   OH217891   2.839   0.648   0.324  0.0320  0.5246  0.2300
 5976TIP3    H117892   2.917   0.699   0.303  1.2697 -1.4513 -0.3309
 5976TIP3    H217893   2.836   0.580   0.256 -1.4061 -0.2719  1.0265
 5977TIP3   OH217894   5.704   2.786   0.653  0.0089  0.2538 -0.5621
 5977TIP3    H117895   5.752   2.852   0.603  0.4691  0.2568 -0.1233
 5977TIP3    H217896   5.770   2.719   0.672 -0.5652 -0.5913 -1.4396
 5978TIP3   OH217897   3.506   3.354   1.370  0.3620  0.2340  0.6326
 5978TIP3    H117898   3.599   3.353   1.346 -0.0406  1.1239 -1.0968
 5978TIP3    H217899   3.503   3.402   1.452  1.4683 -0.1575  0.9208
 5979TIP3   OH217900   3.981   4.243   2.810  0.1835  0.5710  0.0731
 5979TIP3    H117901   4.037   4.191   2.868  0.6719 -0.0219 -0.8907
 5979TIP3    H217902   3.892   4.228   2.842  0.4575  0.4439  0.8012
 5980TIP3   OH217903   3.105   5.052   0.706 -0.1633  0.1918 -0.1062
 5980TIP3    H117904   3.043   5.097   0.762 -0.5462 -1.5135  0.9211
 5980TIP3    H217905   3.123   4.969   0.751 -0.2252 -1.1129 -2.3145
 5981TIP3   OH217906   6.812   0.074   1.394 -0.5183  0.0134  0.5984
 5981TIP3    H117907   6.758   0.152   1.408 -0.9021 -0.1297 -0.0340
 5981TIP3    H217908   6.791   0.047   1.304  0.4411 -0.1670  0.4189
 5982TIP3   OH217909   0.825   1.705   4.355  0.0701  0.1401  0.6177
 5982TIP3    H117910   0.796   1.744   4.273  0.1081 -1.3607 -0.1364
 5982TIP3    H217911   0.842   1.613   4.334  1.9690  0.1521  1.8531
 5983TIP3   OH217912   1.769   4.411   0.056  0.0115 -0.5019 -0.0713
 5983TIP3    H117913   1.842   4.457   0.097 -0.9720  0.6190  0.4834
 5983TIP3    H217914   1.808   4.369  -0.021  1.1537  0.4344 -0.0428
 5984TIP3   OH217915   5.109   5.883   5.751 -0.3617  0.5515 -0.4511
 5984TIP3    H117916   5.071   5.971   5.755 -1.5570  0.0311  0.0728
 5984TIP3    H217917   5.088   5.852   5.663 -0.8995  0.3928 -0.2750
 5985TIP3   OH217918   4.559   2.785   2.375  0.6381 -0.0316  0.1373
 5985TIP3    H117919   4.523   2.741   2.452 -0.3165  0.8601  0.2284
 5985TIP3    H217920   4.493   2.852   2.353  1.5189  0.5964 -0.6570
 5986TIP3   OH217921   6.640   0.025   3.657  0.4323  0.1949  0.5753
 5986TIP3    H117922   6.681   0.074   3.729  0.1697  0.2527  0.6879
 5986TIP3    H217923   6.546   0.033   3.674  0.3944 -0.9435  0.9974
 5987TIP3   OH217924   3.670   6.163   0.184  0.5607  0.4498  0.3695
 5987TIP3    H117925   3.714   6.161   0.269  1.4582  0.6016 -0.0778
 5987TIP3    H217926   3.577   6.172   0.205  0.8552  1.5825  1.3257
 5988TIP3   OH217927   3.835   6.538   1.235  0.4013  0.3262  0.3466
 5988TIP3    H117928   3.743   6.547   1.213  0.4765 -0.2517 -0.2444
 5988TIP3    H217929   3.879   6.530   1.151  0.7130 -1.7869  0.6444
 5989TIP3   OH217930   2.928   3.443   3.487 -0.2256  0.1899 -0.2399
 5989TIP3    H117931   2.922   3.408   3.398 -2.4518  0.0141 -0.0679
 5989TIP3    H217932   2.945   3.366   3.542  0.3185  0.1789 -0.4195
 5990TIP3   OH217933   3.147   3.592   0.692 -0.1023  0.1404  0.2078
 5990TIP3    H117934   3.102   3.522   0.645 -0.6737  1.5253 -1.3932
 5990TIP3    H217935   3.207   3.629   0.629 -1.1842  2.3243  0.3849
 5991TIP3   OH217936   0.395   6.308   4.355 -0.0529  0.3507  0.0670
 5991TIP3    H117937   0.321   6.341   4.406 -0.8988 -0.5079 -0.5734
 5991TIP3    H217938   0.452   6.384   4.344 -0.6930  0.9579  0.8314
 5992TIP3   OH217939   7.200   6.562   0.418 -0.3012  0.4049  0.0434
 5992TIP3    H117940   7.179   6.512   0.497 -1.8281 -0.3177 -0.7780
 5992TIP3    H217941   7.237   6.644   0.451 -1.1465  0.2303  1.5250
 5993TIP3   OH217942   4.575   6.629   3.452 -0.3956 -0.4357  0.3656
 5993TIP3    H117943   4.569   6.724   3.462  0.0382 -0.2510 -0.9427
 5993TIP3    H217944   4.658   6.605   3.494 -0.9927 -0.4019  1.6154
 5994TIP3   OH217945   0.574   0.077   5.197  0.7323 -0.1939  0.3955
 5994TIP3    H117946   0.665   0.051   5.210  0.8565  0.4182  0.7754
 5994TIP3    H217947   0.564   0.157   5.248  0.1372  0.0647 -0.1113
 5995TIP3   OH217948   5.388   6.522   1.989 -0.1242  0.5382 -0.1572
 5995TIP3    H117949   5.324   6.535   2.059 -0.4166 -0.2161 -0.2648
 5995TIP3    H217950   5.457   6.469   2.029  0.1590  0.8717 -0.1977
 5996TIP3   OH217951   3.379   4.894   2.790 -0.2263 -0.3622 -0.4496
 5996TIP3    H117952   3.458   4.843   2.770  1.3100  1.3930  0.7398
 5996TIP3    H217953   3.336   4.845   2.860 -0.7008 -1.7652 -1.6643
 5997TIP3   OH217954   3.191   5.195   3.548  0.0185  0.4836  0.2147
 5997TIP3    H117955   3.147   5.131   3.603  0.2695  1.3019  1.4251
 5997TIP3    H217956   3.176   5.279   3.592 -0.0607  1.2270 -1.1634
 5998TIP3   OH217957   0.674   6.754   3.176  0.5887 -0.0549 -0.4496
 5998TIP3    H117958   0.641   6.676   3.219  1.0570  0.3946  0.7786
 5998TIP3    H217959   0.639   6.750   3.087  0.1135 -1.3367 -0.2155
 5999TIP3   OH217960   6.129   5.343   1.094 -0.0230 -0.6469  0.1542
 5999TIP3    H117961   6.132   5.421   1.149 -1.8468 -0.3271 -0.1299
 5999TIP3    H217962   6.077   5.369   1.018  0.3015 -1.8074 -0.4889
 6000TIP3   OH217963   4.240   4.255   3.352  0.3482  0.0918 -0.3992
 6000TIP3    H117964   4.282   4.341   3.353  1.2097 -0.3164 -0.8026
 6000TIP3    H217965   4.167   4.264   3.413  1.2880  0.6826  0.6852
 6001TIP3   OH217966   5.398   4.267   4.462 -0.1094 -0.5041  0.2396
 6001TIP3    H117967   5.443   4.236   4.384  0.6175  2.6698 -0.7325
 6001TIP3    H217968   5.445   4.226   4.535  2.0542 -0.1259 -0.8689
 6002TIP3   OH217969   1.799   1.814   2.953 -0.2211 -0.5990 -0.4233
 6002TIP3    H117970   1.847   1.749   3.004 -0.3870  0.3114  0.9463
 6002TIP3    H217971   1.707   1.789   2.962 -0.3157  0.0114  0.4126
 6003TIP3   OH217972   2.004   6.754   2.055  0.8477  0.1107  0.2310
 6003TIP3    H117973   2.068   6.825   2.064  0.6094  0.3261  0.2328
 6003TIP3    H217974   1.993   6.720   2.144  0.9046  0.1207  0.2417
 6004TIP3   OH217975   4.212   5.946   3.489 -0.1396  0.4727  0.2862
 6004TIP3    H117976   4.153   5.928   3.562 -0.5641 -3.3165 -0.7561
 6004TIP3    H217977   4.156   5.986   3.423 -1.8196 -3.0457 -0.6855
 6005TIP3   OH217978   6.840   3.537   1.428  0.1962  0.2329 -0.2055
 6005TIP3    H117979   6.814   3.468   1.489  0.8152  0.7457  0.6605
 6005TIP3    H217980   6.855   3.614   1.484  0.2652  0.8577 -1.0650
 6006TIP3   OH217981   0.561   3.845   1.383 -0.2091 -0.2167  0.0604
 6006TIP3    H117982   0.593   3.840   1.293  0.1612 -1.0570  0.2269
 6006TIP3    H217983   0.602   3.771   1.427 -0.8294 -0.1430  0.7845
 6007TIP3   OH217984   0.625   0.476   1.913 -0.3481  0.2013  0.2597
 6007TIP3    H117985   0.709   0.516   1.891  0.1619 -0.4283  1.0402
 6007TIP3    H217986   0.619   0.483   2.008 -1.7494  1.3507  0.1317
 6008TIP3   OH217987   5.255   4.340   4.775  0.4083  0.4039  0.0834
 6008TIP3    H117988   5.168   4.380   4.775  0.8419  1.3684  0.0587
 6008TIP3    H217989   5.315   4.412   4.756  1.1453 -0.4211 -0.7938
 6009TIP3   OH217990   6.030   3.477   1.767  0.0582 -0.2002  0.0029
 6009TIP3    H117991   5.976   3.449   1.693  0.1099  0.0341 -0.1275
 6009TIP3    H217992   6.042   3.571   1.752 -2.7301  0.6138  2.0501
 6010TIP3   OH217993   4.543   1.396   3.152  0.2178 -0.5867 -0.2857
 6010TIP3    H117994   4.590   1.455   3.211  1.3785 -1.1020 -0.6676
 6010TIP3    H217995   4.609   1.335   3.121 -0.7179 -1.3533 -0.8394
 6011TIP3   OH217996   1.250   0.224   1.564  0.6908 -0.1822  0.6501
 6011TIP3    H117997   1.301   0.266   1.494 -1.8345 -1.2262 -2.0645
 6011TIP3    H217998   1.293   0.139   1.578  0.9409 -0.1729 -0.0309
 6012TIP3   OH217999   5.459   4.601   0.795 -0.2771 -0.4844 -0.3512
 6012TIP3    H118000   5.393   4.543   0.758 -2.4973  1.2337  0.6371
 6012TIP3    H218001   5.414   4.646   0.867  1.8321  1.1518  0.0610
 6013TIP3   OH218002   2.396   2.920   2.438 -0.2045  0.0588 -0.7779
 6013TIP3    H118003   2.406   2.829   2.464 -0.3424  0.1941 -0.2417
 6013TIP3    H218004   2.344   2.917   2.358 -0.2307 -0.3279 -0.7474
 6014TIP3   OH218005   3.655   0.537   1.729  0.0121  0.0647  0.0130
 6014TIP3    H118006   3.701   0.494   1.656 -0.3073  1.4947 -1.0589
 6014TIP3    H218007   3.724   0.553   1.793  0.3221 -1.0916  0.0052
 6015TIP3   OH218008   0.651   4.034   2.392  0.0864 -0.6553 -0.1834
 6015TIP3    H118009   0.665   4.121   2.429 -2.2979 -0.7044  0.9880
 6015TIP3    H218010   0.740   4.000   2.375  1.1021  1.2664  1.0075
 6016TIP3   OH218011   1.871   4.024   0.807 -0.5787  0.1979  0.2353
 6016TIP3    H118012   1.910   3.943   0.839 -2.0432 -0.6793 -0.0534
 6016TIP3    H218013   1.944   4.073   0.769  0.2171 -1.4597 -0.5096
 6017TIP3   OH218014   6.931   6.432   3.522 -0.0121 -0.1115 -0.2245
 6017TIP3    H118015   7.006   6.406   3.467 -0.0774 -0.7677 -0.0111
 6017TIP3    H218016   6.859   6.376   3.492 -1.0599  1.9680 -1.9427
 6018TIP3   OH218017   6.878   2.782   4.204 -0.6488 -0.4139 -0.0405
 6018TIP3    H118018   6.850   2.864   4.163  1.1777  0.7083  0.8478
 6018TIP3    H218019   6.844   2.787   4.293 -0.9001 -0.8435 -0.1087
 6019TIP3   OH218020   1.188   6.311   2.844  0.3912 -0.0524  0.7644
 6019TIP3    H118021   1.190   6.217   2.830  0.4523  0.1200 -0.4670
 6019TIP3    H218022   1.277   6.340   2.826  0.1316  0.3728  0.1377
 6020TIP3   OH218023   1.444   1.421   2.523 -0.1569 -0.2431 -0.1135
 6020TIP3    H118024   1.428   1.408   2.429 -0.2203  0.3304 -0.1844
 6020TIP3    H218025   1.513   1.359   2.544  1.6041  1.3050 -1.0759
 6021TIP3   OH218026   2.680   3.700   2.903  0.2631 -0.1959 -0.7735
 6021TIP3    H118027   2.687   3.791   2.872  3.8105  0.4332  1.2720
 6021TIP3    H218028   2.599   3.698   2.954  0.3006  1.9840 -0.5133
 6022TIP3   OH218029   1.000   2.699   2.253  0.1427 -0.0316 -0.0599
 6022TIP3    H118030   1.079   2.746   2.278 -0.5653  1.0324  0.2145
 6022TIP3    H218031   0.977   2.647   2.330 -0.5115  1.1603  0.5664
 6023TIP3   OH218032   3.675   4.616   3.860 -0.5458 -0.3132 -0.1686
 6023TIP3    H118033   3.711   4.548   3.916 -2.8397 -1.6513 -0.1999
 6023TIP3    H218034   3.672   4.694   3.916  0.0991 -0.7998  0.5594
 6024TIP3   OH218035   3.620   2.694   1.068  0.1411  0.3311 -1.3297
 6024TIP3    H118036   3.676   2.728   0.998 -0.7989  0.0518 -2.2519
 6024TIP3    H218037   3.581   2.615   1.030 -0.2034  0.0439 -0.3926
 6025TIP3   OH218038   2.886   5.104   5.761  0.3183  0.3386 -0.4378
 6025TIP3    H118039   2.886   5.165   5.836 -1.5860 -0.2161  0.0814
 6025TIP3    H218040   2.850   5.156   5.689 -0.8509  0.0184 -0.1163
 6026TIP3   OH218041   4.027   4.302   5.500  0.1242 -0.1964 -0.2278
 6026TIP3    H118042   4.098   4.364   5.516  0.9986 -0.8198 -1.5385
 6026TIP3    H218043   3.960   4.353   5.456 -0.1015  0.3118  0.6844
 6027TIP3   OH218044   5.093   3.450   0.791  0.1943  0.1605  0.2695
 6027TIP3    H118045   5.184   3.423   0.802  0.2696 -0.2963 -1.2456
 6027TIP3    H218046   5.050   3.374   0.752 -0.6802  0.6198  0.3076
 6028TIP3   OH218047   0.790   6.051   4.189 -0.2375  0.0146  0.7065
 6028TIP3    H118048   0.840   6.087   4.263 -2.3011  0.8430  1.8040
 6028TIP3    H218049   0.710   6.104   4.188 -1.0707 -1.2223 -0.9722
 6029TIP3   OH218050   6.533   0.595   1.495  0.2889  0.0947 -0.4935
 6029TIP3    H118051   6.480   0.630   1.424  0.5637  1.5755 -0.0266
 6029TIP3    H218052   6.560   0.673   1.545  0.6007 -0.8399  0.8713
 6030TIP3   OH218053   4.357   6.445   0.818  0.1351  0.2126  0.5149
 6030TIP3    H118054   4.300   6.401   0.755  0.4994  0.7660 -0.2310
 6030TIP3    H218055   4.344   6.398   0.900 -1.0426  0.0427  0.2495
 6031TIP3   OH218056   5.548   4.568   0.473  0.5828 -0.1827  0.0152
 6031TIP3    H118057   5.493   4.646   0.483  1.9890  0.7453  0.9883
 6031TIP3    H218058   5.588   4.579   0.387  0.2342 -0.2039 -0.1524
 6032TIP3   OH218059   0.721   0.686   4.950  0.0309 -0.4542 -0.4625
 6032TIP3    H118060   0.804   0.677   4.996 -0.1861 -2.0263 -0.3475
 6032TIP3    H218061   0.728   0.771   4.905  0.8716  0.3858  1.1564
 6033TIP3   OH218062   2.529   1.045   4.276  0.0819  0.1453  0.7688
 6033TIP3    H118063   2.512   1.111   4.342  0.4817  1.0248  0.0136
 6033TIP3    H218064   2.449   1.042   4.224  0.6368  1.2106 -0.1776
 6034TIP3   OH218065   7.128   1.792   4.466 -0.4352  0.7492 -0.6991
 6034TIP3    H118066   7.060   1.814   4.529  0.5478  0.9373  0.3487
 6034TIP3    H218067   7.131   1.696   4.467  1.6421  0.7278  1.9708
 6035TIP3   OH218068   1.190   5.555   1.507  0.5292  0.3147  0.0030
 6035TIP3    H118069   1.217   5.529   1.595 -0.7597 -0.5112  0.1761
 6035TIP3    H218070   1.124   5.490   1.481  1.9660 -0.4046 -2.2071
 6036TIP3   OH218071   1.506   2.035   2.271  0.1683 -0.3271  0.0340
 6036TIP3    H118072   1.442   2.100   2.300 -0.5802 -0.3664 -1.4189
 6036TIP3    H218073   1.492   1.960   2.328 -1.2460 -0.4067 -0.3883
 6037TIP3   OH218074   6.058   4.701   2.605 -0.0422 -0.0567 -0.3252
 6037TIP3    H118075   6.032   4.742   2.523  0.5746  0.7770 -0.1247
 6037TIP3    H218076   6.154   4.696   2.600 -0.0008 -0.0251  0.3279
 6038TIP3   OH218077   3.546   2.960   3.492 -0.4865 -0.3973 -0.0010
 6038TIP3    H118078   3.463   3.004   3.506 -0.3898  0.0605 -0.8038
 6038TIP3    H218079   3.554   2.953   3.397  1.4513  1.6799 -0.0660
 6039TIP3   OH218080   1.513   3.863   1.055 -0.2435  0.2701  0.4677
 6039TIP3    H118081   1.568   3.810   0.998  1.3187  0.4484  1.7185
 6039TIP3    H218082   1.480   3.934   1.000  1.3356  0.5216 -0.1868
 6040TIP3   OH218083   6.306   2.715   4.835  0.2630  0.4397  0.5509
 6040TIP3    H118084   6.358   2.781   4.790  1.7774 -2.3928 -2.2721
 6040TIP3    H218085   6.358   2.635   4.828 -3.3806 -2.0906 -0.3236
 6041TIP3   OH218086   5.648   4.895   5.211 -0.7562  0.1077 -0.0035
 6041TIP3    H118087   5.630   4.803   5.234  1.0411 -0.7003 -1.5013
 6041TIP3    H218088   5.695   4.930   5.287 -2.1840  0.0760  0.9257
 6042TIP3   OH218089   4.835   4.016   0.419  0.6170 -0.4238 -0.0874
 6042TIP3    H118090   4.858   3.923   0.415 -2.8510 -1.3686 -0.5370
 6042TIP3    H218091   4.846   4.039   0.512  0.5560 -1.5471  0.2058
 6043TIP3   OH218092   1.458   3.388   5.043  0.2662  0.0301 -0.2965
 6043TIP3    H118093   1.439   3.322   4.976 -1.8373  0.5804 -0.3007
 6043TIP3    H218094   1.430   3.347   5.125 -0.9676  0.8463 -0.2884
 6044TIP3   OH218095   0.095   1.713   4.780 -0.1418 -1.0056  0.4293
 6044TIP3    H118096   0.158   1.737   4.712  0.6610 -0.0431  1.4638
 6044TIP3    H218097   0.118   1.769   4.854 -2.4714 -0.3436  0.7230
 6045TIP3   OH218098   0.733   4.982   1.468  0.1226 -0.4599  0.1394
 6045TIP3    H118099   0.710   4.938   1.386  1.3808 -2.0785  0.6000
 6045TIP3    H218100   0.822   5.014   1.454  0.1327 -0.2451  0.6773
 6046TIP3   OH218101   3.379   0.393   3.700  0.2133 -0.6099 -0.4564
 6046TIP3    H118102   3.414   0.463   3.755  1.7955 -0.5460 -1.4873
 6046TIP3    H218103   3.397   0.421   3.610 -1.7210 -1.0177 -1.0240
 6047TIP3   OH218104   5.564   4.200   4.986 -0.1110 -0.3753  0.3867
 6047TIP3    H118105   5.532   4.256   5.058 -0.6427 -0.7308  0.4307
 6047TIP3    H218106   5.619   4.135   5.029  0.0830 -0.2032  0.3986
 6048TIP3   OH218107   5.910   0.725   2.229  0.0870  0.3214 -0.1423
 6048TIP3    H118108   5.877   0.694   2.313 -0.3347 -1.0001 -0.7754
 6048TIP3    H218109   5.961   0.652   2.194  0.2984  0.8688 -1.0222
 6049TIP3   OH218110   5.559   1.058   3.052  0.3822  0.4946 -0.4497
 6049TIP3    H118111   5.602   0.989   3.102 -1.3655 -1.1558 -1.0783
 6049TIP3    H218112   5.488   1.088   3.108  0.1241  0.5969 -0.8237
 6050TIP3   OH218113   0.902   6.626   2.025  0.0557  0.0630 -0.8019
 6050TIP3    H118114   0.858   6.546   2.054  0.6472 -0.4345 -1.2827
 6050TIP3    H218115   0.994   6.612   2.044  0.1187  0.8273 -0.4601
 6051TIP3   OH218116   2.745   0.949   1.184 -0.4142  0.3274 -0.3216
 6051TIP3    H118117   2.826   0.903   1.203  0.5019  1.2994 -1.7346
 6051TIP3    H218118   2.705   0.900   1.112 -0.1284  0.9003 -0.8863
 6052TIP3   OH218119   0.507   0.725   2.709  0.1544  0.1091  0.4669
 6052TIP3    H118120   0.427   0.674   2.692 -0.3598  1.5009 -1.6755
 6052TIP3    H218121   0.564   0.665   2.756 -0.3746 -2.5485 -2.0054
 6053TIP3   OH218122   6.106   5.247   3.612 -0.1643  0.0356 -0.7595
 6053TIP3    H118123   6.106   5.317   3.547  0.4445  0.8527  0.0959
 6053TIP3    H218124   6.198   5.239   3.639 -0.0648 -1.7032 -1.4611
 6054TIP3   OH218125   4.385   3.149   1.530  0.3959  0.4087  0.5830
 6054TIP3    H118126   4.335   3.221   1.569 -2.0269  0.4222 -2.2224
 6054TIP3    H218127   4.413   3.182   1.445  2.0743 -0.9128  0.5686
 6055TIP3   OH218128   2.813   3.311   2.037  0.2942 -0.5792 -0.3077
 6055TIP3    H118129   2.745   3.355   2.088 -1.4340 -1.4967 -1.6808
 6055TIP3    H218130   2.814   3.221   2.071  0.3247 -0.7452 -0.7388
 6056TIP3   OH218131   6.975   4.470   0.803  0.4230  0.2146  0.2839
 6056TIP3    H118132   7.036   4.398   0.792  0.1002  0.0063 -0.1699
 6056TIP3    H218133   7.029   4.542   0.835  0.4869 -0.6792  2.3671
 6057TIP3   OH218134   3.428   3.532   5.212  0.4531 -0.3280  0.1006
 6057TIP3    H118135   3.480   3.600   5.254 -1.1093  0.7292  0.3722
 6057TIP3    H218136   3.425   3.461   5.276  0.9910 -0.1435  0.3356
 6058TIP3   OH218137   0.881   5.466   3.897  0.0894 -0.2657  0.0023
 6058TIP3    H118138   0.963   5.486   3.852 -0.2651  1.2354 -0.0158
 6058TIP3    H218139   0.905   5.400   3.962  1.3596  0.3192  0.1516
 6059TIP3   OH218140   2.611   3.924   1.570  0.3476  0.3641 -0.8464
 6059TIP3    H118141   2.634   3.977   1.646 -0.5260  0.9648 -0.9834
 6059TIP3    H218142   2.563   3.984   1.513  0.0278 -0.3721 -1.3671
 6060TIP3   OH218143   2.547   5.023   2.695 -0.4714  0.7401  0.1713
 6060TIP3    H118144   2.598   5.099   2.667 -0.5113  0.9225  0.5789
 6060TIP3    H218145   2.592   4.948   2.657  0.8042  0.7939  1.4741
 6061TIP3   OH218146   2.392   2.725   1.668  0.1106  0.1622  0.5474
 6061TIP3    H118147   2.331   2.785   1.711  0.1488  1.3171 -0.9403
 6061TIP3    H218148   2.463   2.781   1.636  0.1793 -0.6568 -0.8183
 6062TIP3   OH218149   2.295   6.423   4.746 -0.2802  0.4839  0.1729
 6062TIP3    H118150   2.205   6.407   4.716  0.6599 -1.2867 -2.0105
 6062TIP3    H218151   2.325   6.495   4.691  0.3155 -0.3998 -0.6819
 6063TIP3   OH218152   1.513   5.109   0.508 -0.0435  0.0263  0.2157
 6063TIP3    H118153   1.460   5.130   0.432  1.1713 -0.0361 -0.6815
 6063TIP3    H218154   1.560   5.191   0.527 -0.5259  0.1165  1.0620
 6064TIP3   OH218155   4.960   2.354   5.713 -0.2984 -0.9452  0.7118
 6064TIP3    H118156   4.950   2.259   5.719 -0.8842 -0.8524  1.4215
 6064TIP3    H218157   4.871   2.388   5.707 -0.0506 -0.5869 -2.9475
 6065TIP3   OH218158   6.712   0.299   0.915 -0.4671  0.1303  0.2955
 6065TIP3    H118159   6.622   0.315   0.889 -0.9522  1.1004  2.3201
 6065TIP3    H218160   6.712   0.313   1.010  1.1602 -2.8167  0.8469
 6066TIP3   OH218161   4.777   3.089   0.009  0.0505  0.0684  0.1868
 6066TIP3    H118162   4.870   3.097   0.030  0.2374  1.3743 -0.9988
 6066TIP3    H218163   4.737   3.166   0.051 -0.0034  1.1221 -1.6856
 6067TIP3   OH218164   1.176   3.076   1.637  0.0989  0.3190  0.1362
 6067TIP3    H118165   1.188   3.144   1.570  0.1075 -1.0251 -1.2998
 6067TIP3    H218166   1.115   3.014   1.597  0.9425 -1.0806  0.9293
 6068TIP3   OH218167   6.594   2.654   4.989 -0.3231 -0.2695  0.4251
 6068TIP3    H118168   6.527   2.615   4.932 -0.1211 -0.7216  0.4939
 6068TIP3    H218169   6.581   2.748   4.980 -0.4934 -0.3426 -0.1356
 6069TIP3   OH218170   2.523   0.451   5.674  0.2412 -0.4676 -0.0690
 6069TIP3    H118171   2.558   0.517   5.614 -0.3034  0.9327  1.0713
 6069TIP3    H218172   2.592   0.385   5.680  1.2264  0.4776 -0.5404
 6070TIP3   OH218173   2.367   0.989   0.914  0.2483  0.4380  0.2292
 6070TIP3    H118174   2.328   0.968   0.999  0.7532 -1.2726  0.0631
 6070TIP3    H218175   2.403   1.077   0.926 -0.7248  0.7210  1.4000
 6071TIP3   OH218176   5.855   2.841   3.479  0.4074 -0.6049  0.0777
 6071TIP3    H118177   5.867   2.774   3.412 -2.2121  0.0585 -1.1715
 6071TIP3    H218178   5.832   2.792   3.558 -0.0314 -1.2533 -0.4413
 6072TIP3   OH218179   5.921   6.329   2.341  0.1776 -0.4152  0.0492
 6072TIP3    H118180   5.988   6.295   2.401 -0.1618  0.7108  1.1033
 6072TIP3    H218181   5.860   6.256   2.330  0.4344 -0.7603  0.7941
 6073TIP3   OH218182   1.068   6.129   2.044 -0.4808  0.0906  0.4809
 6073TIP3    H118183   1.091   6.048   1.999 -1.4615 -0.4878  0.9956
 6073TIP3    H218184   0.993   6.163   1.996  0.5792  1.2704 -0.3827
 6074TIP3   OH218185   6.222   6.074   3.349  0.5606 -0.8696  0.0804
 6074TIP3    H118186   6.269   6.127   3.284 -0.3955  0.4671  0.4446
 6074TIP3    H218187   6.168   6.015   3.296  1.4966 -1.3947 -0.3267
 6075TIP3   OH218188   5.925   3.511   0.276  0.0635  0.3133 -0.0275
 6075TIP3    H118189   5.951   3.599   0.249 -0.8091  0.3695 -0.7016
 6075TIP3    H218190   5.834   3.519   0.303  0.0317 -0.3486  0.0944
 6076TIP3   OH218191   0.255   1.593   5.191  0.3174 -0.0693  0.4546
 6076TIP3    H118192   0.284   1.502   5.183 -0.0874 -0.1287 -0.4096
 6076TIP3    H218193   0.336   1.642   5.204  0.6295 -0.4497 -0.0135
 6077TIP3   OH218194   6.001   0.611   1.100 -0.1804  0.4141  0.6530
 6077TIP3    H118195   6.025   0.704   1.097  0.6109  0.1876 -0.1919
 6077TIP3    H218196   6.077   0.565   1.065 -0.5605 -0.5628  1.0873
 6078TIP3   OH218197   1.488   4.093   1.334 -0.6767 -0.7742  0.7701
 6078TIP3    H118198   1.573   4.049   1.343 -0.9007 -1.3627  0.0671
 6078TIP3    H218199   1.484   4.119   1.242 -0.5614  0.7234  1.1591
 6079TIP3   OH218200   3.350   1.762   3.032  0.4429  0.0850  0.4202
 6079TIP3    H118201   3.323   1.700   2.964  1.0626 -0.1190  0.3505
 6079TIP3    H218202   3.404   1.710   3.091 -1.3756 -0.1423  1.9890
 6080TIP3   OH218203   0.808   3.848   0.527  0.1979 -0.0470 -0.4952
 6080TIP3    H118204   0.767   3.915   0.581  0.2520  0.2411 -0.8119
 6080TIP3    H218205   0.802   3.882   0.438  0.2560 -0.4457 -0.6532
 6081TIP3   OH218206   4.792   0.915   4.646 -0.0782  0.2209 -0.0582
 6081TIP3    H118207   4.719   0.869   4.690 -0.2568  0.5120 -0.0461
 6081TIP3    H218208   4.832   0.967   4.716  0.7870 -0.7221  0.1669
 6082TIP3   OH218209   3.214   0.278   4.082 -0.0989  0.2117  0.3841
 6082TIP3    H118210   3.247   0.224   4.154  0.0893 -0.4932 -0.2238
 6082TIP3    H218211   3.122   0.255   4.074  0.0192 -0.1556  0.0183
 6083TIP3   OH218212   3.686   6.736   2.757  0.2032  0.2778 -0.1567
 6083TIP3    H118213   3.697   6.828   2.780 -0.4162  0.6252 -1.2339
 6083TIP3    H218214   3.708   6.731   2.664  1.2476 -0.8552  0.1260
 6084TIP3   OH218215   2.286   5.504   5.077  0.6908 -0.7529  0.5554
 6084TIP3    H118216   2.344   5.522   5.004  0.6239 -0.0866  0.6656
 6084TIP3    H218217   2.222   5.442   5.042  1.1398 -1.0678  0.2839
 6085TIP3   OH218218   2.829   4.934   0.884  0.1631 -0.1875 -0.5866
 6085TIP3    H118219   2.835   4.900   0.973  1.7642  0.7636 -0.2870
 6085TIP3    H218220   2.857   4.861   0.829 -2.3717 -1.3252 -0.5141
 6086TIP3   OH218221   4.255   4.506   4.473 -0.8372  0.3662 -0.0649
 6086TIP3    H118222   4.309   4.480   4.548 -1.9013 -1.4554  0.1222
 6086TIP3    H218223   4.313   4.496   4.398 -0.4425  0.0188  0.2801
 6087TIP3   OH218224   4.704   1.937   4.347  0.4733  0.0443 -0.0998
 6087TIP3    H118225   4.797   1.919   4.330  0.2814 -1.0250 -0.0478
 6087TIP3    H218226   4.669   1.854   4.379 -0.3205  0.6632  0.6865
 6088TIP3   OH218227   3.791   4.057   2.681 -0.0591  0.2221  0.3116
 6088TIP3    H118228   3.710   4.038   2.728 -0.4561  0.9357 -0.0665
 6088TIP3    H218229   3.817   3.973   2.643  1.1767 -0.7836  3.1249
 6089TIP3   OH218230   2.924   3.086   0.845 -0.0488  0.5863  0.2111
 6089TIP3    H118231   2.985   3.015   0.867  1.6253  1.6854 -0.6651
 6089TIP3    H218232   2.847   3.069   0.900  0.8196 -1.1541  0.9838
 6090TIP3   OH218233   5.928   5.776   4.914 -0.1740 -0.0274  0.0948
 6090TIP3    H118234   5.862   5.763   4.845 -1.0780 -1.4357  1.1642
 6090TIP3    H218235   5.898   5.720   4.986 -0.2073  2.6802  2.3250
 6091TIP3   OH218236   1.751   4.128   1.569 -0.3644 -0.3516  0.4085
 6091TIP3    H118237   1.714   4.104   1.484 -0.4754  0.5669  0.1864
 6091TIP3    H218238   1.756   4.224   1.567  1.1644 -0.3981  0.7987
 6092TIP3   OH218239   4.235   4.733   5.127 -0.3788 -0.1970 -0.0587
 6092TIP3    H118240   4.232   4.698   5.038 -1.6527  0.6456 -0.3691
 6092TIP3    H218241   4.322   4.711   5.159 -0.0569 -0.8735 -1.3686
 6093TIP3   OH218242   0.417   6.392   1.857 -0.0490 -0.6667  0.4696
 6093TIP3    H118243   0.341   6.334   1.857 -0.8855  0.3791  1.0290
 6093TIP3    H218244   0.389   6.467   1.910  0.5188  0.8187 -1.2257
 6094TIP3   OH218245   5.701   5.648   2.186  0.3680 -0.1000  0.3360
 6094TIP3    H118246   5.785   5.604   2.195  0.1936 -0.4952  0.0505
 6094TIP3    H218247   5.653   5.625   2.265 -0.2210 -1.5159 -0.4046
 6095TIP3   OH218248   5.978   4.799   4.943 -0.4636  0.3180 -0.2215
 6095TIP3    H118249   5.987   4.894   4.952  1.4802 -0.0020  1.8871
 6095TIP3    H218250   5.883   4.784   4.947 -0.9503  2.2432 -2.3002
 6096TIP3   OH218251   3.231   1.107   5.402  0.1124 -0.1208 -0.0540
 6096TIP3    H118252   3.282   1.183   5.375  1.3922 -1.2309 -0.9079
 6096TIP3    H218253   3.188   1.077   5.322  1.6969 -1.7918 -0.3379
 6097TIP3   OH218254   1.283   5.652   5.334 -0.1700  0.0339  0.0293
 6097TIP3    H118255   1.316   5.678   5.420 -1.6581 -0.1750  0.7021
 6097TIP3    H218256   1.198   5.696   5.328 -1.2015 -1.8975 -0.2664
 6098TIP3   OH218257   0.235   1.848   2.309  0.4921 -0.0207  0.0954
 6098TIP3    H118258   0.299   1.799   2.361 -0.0259  0.1457  0.8960
 6098TIP3    H218259   0.205   1.785   2.244  0.4861 -0.5054  0.5603
 6099TIP3   OH218260   6.055   2.186   1.126 -0.0664 -0.2443  0.6163
 6099TIP3    H118261   5.996   2.184   1.050  2.0230 -3.2307 -1.1673
 6099TIP3    H218262   6.108   2.264   1.112 -0.6999  0.0666 -0.1904
 6100TIP3   OH218263   0.404   6.353   2.982 -0.0407 -0.8181  0.3572
 6100TIP3    H118264   0.346   6.280   2.960 -0.0087 -0.7870  0.1688
 6100TIP3    H218265   0.367   6.389   3.063  1.5705 -2.7942  2.0491
 6101TIP3   OH218266   1.681   3.604   0.631  0.8111  0.4679 -0.0838
 6101TIP3    H118267   1.641   3.654   0.560  0.9117 -0.1967 -0.6146
 6101TIP3    H218268   1.775   3.608   0.613  0.9906  1.7138  0.9546
 6102TIP3   OH218269   2.866   3.276   3.280 -0.3252 -0.3495  0.4185
 6102TIP3    H118270   2.905   3.189   3.284 -1.9160 -1.0512  2.2270
 6102TIP3    H218271   2.840   3.287   3.189  0.4118 -1.5191  0.0463
 6103TIP3   OH218272   3.683   2.925   3.839 -0.1694  0.1035 -0.1644
 6103TIP3    H118273   3.658   3.012   3.809 -0.5163  0.5040  1.1889
 6103TIP3    H218274   3.601   2.882   3.862  0.1034  0.0638  0.7952
 6104TIP3   OH218275   3.216   3.938   4.399 -0.1948  0.0932  0.2036
 6104TIP3    H118276   3.285   3.889   4.443 -0.1364  0.7392  0.8555
 6104TIP3    H218277   3.232   4.029   4.425  0.1849  0.5792 -1.5901
 6105TIP3   OH218278   6.864   0.158   0.360  0.2194 -0.6941 -0.3591
 6105TIP3    H118279   6.960   0.162   0.355  0.2418  2.0291  0.3517
 6105TIP3    H218280   6.843   0.207   0.440 -1.8284  0.7108 -1.6755
 6106TIP3   OH218281   3.017   5.573   3.383 -0.4876 -0.0635  0.0949
 6106TIP3    H118282   3.017   5.518   3.305  0.8148  0.8978 -0.6267
 6106TIP3    H218283   2.974   5.521   3.449 -0.8665 -1.2442 -1.0451
 6107TIP3   OH218284   2.950   6.321   3.873 -0.1786  0.1006  0.4795
 6107TIP3    H118285   3.037   6.280   3.867  0.4101  1.1151  1.5706
 6107TIP3    H218286   2.921   6.330   3.783  1.3785  0.7802  0.0131
 6108TIP3   OH218287   6.936   2.839   1.181  0.0001  0.2145 -0.3913
 6108TIP3    H118288   6.977   2.764   1.138 -1.0217 -1.2237  1.0221
 6108TIP3    H218289   6.852   2.850   1.135  0.2788  0.6762 -0.7877
 6109TIP3   OH218290   3.893  -0.000   0.609  0.1721 -0.3952 -0.5728
 6109TIP3    H118291   3.989  -0.004   0.611  0.1321 -2.4975 -0.2831
 6109TIP3    H218292   3.871   0.063   0.678  1.3327 -0.5495 -0.0198
 6110TIP3   OH218293   2.762   2.877   2.338 -0.1376 -0.1062 -0.3079
 6110TIP3    H118294   2.838   2.855   2.392  1.7910  1.5937 -2.1179
 6110TIP3    H218295   2.746   2.970   2.355 -1.7290 -0.3895 -0.1099
 6111TIP3   OH218296   1.585   4.726   2.666  0.4735 -0.2704 -0.3312
 6111TIP3    H118297   1.619   4.784   2.734  0.8579 -0.4612 -0.3532
 6111TIP3    H218298   1.521   4.779   2.619  2.5173  1.0027 -1.8755
 6112TIP3   OH218299   1.358   4.961   1.634 -0.2218 -0.2074 -0.5702
 6112TIP3    H118300   1.446   4.949   1.669 -0.4851  0.3806  0.3302
 6112TIP3    H218301   1.367   4.944   1.540  0.6801 -0.9601 -0.3691
 6113TIP3   OH218302   0.590   1.775   4.525  0.1574  0.5055  0.2939
 6113TIP3    H118303   0.594   1.767   4.621 -0.4017  0.3231  0.3059
 6113TIP3    H218304   0.673   1.737   4.495 -0.2938 -0.8201  0.6352
 6114TIP3   OH218305   2.331   3.224   0.579  0.1848  0.0796  0.1936
 6114TIP3    H118306   2.350   3.312   0.612  0.6695  0.2524 -0.5230
 6114TIP3    H218307   2.364   3.165   0.647 -1.2112  0.4442  1.2383
 6115TIP3   OH218308   6.902   1.707   5.403  0.5978 -0.0859 -0.2372
 6115TIP3    H118309   6.839   1.730   5.471 -0.0060  0.2642 -0.8946
 6115TIP3    H218310   6.849   1.699   5.323  1.3699  0.1086 -0.7788
 6116TIP3   OH218311   1.545   1.541   2.771 -0.3135 -0.2189  0.2072
 6116TIP3    H118312   1.493   1.574   2.844 -1.2258 -0.7602 -0.1853
 6116TIP3    H218313   1.481   1.516   2.705  0.5242  0.8492 -1.0418
 6117TIP3   OH218314   0.887   0.033   5.086  0.6521  0.0472  0.6940
 6117TIP3    H118315   0.865   0.050   4.995  0.8224  2.0744  0.9876
 6117TIP3    H218316   0.873  -0.061   5.097 -1.1551  0.0630 -0.9289
 6118TIP3   OH218317   4.739   5.404   2.772 -0.4140  0.2436  0.4795
 6118TIP3    H118318   4.784   5.386   2.689 -0.5436  0.1773  0.4237
 6118TIP3    H218319   4.723   5.498   2.771 -1.7310  0.0280 -0.2375
 6119TIP3   OH218320   1.420   0.208   5.189  0.3512 -0.1825 -0.2546
 6119TIP3    H118321   1.446   0.179   5.277 -0.0702 -2.1051 -0.7126
 6119TIP3    H218322   1.498   0.193   5.135  0.7851  1.4872 -0.1595
 6120TIP3   OH218323   4.737   3.154   2.457 -0.1695  0.2915  0.3013
 6120TIP3    H118324   4.754   3.238   2.501 -0.0922 -0.1942  1.2091
 6120TIP3    H218325   4.816   3.138   2.405 -0.0294  0.5998  0.4163
 6121TIP3   OH218326   0.759   1.286   4.474 -0.3981  0.1115  0.5004
 6121TIP3    H118327   0.770   1.289   4.569 -1.0298  1.1103  0.5550
 6121TIP3    H218328   0.668   1.259   4.462 -0.7132  1.2654  0.2063
 6122TIP3   OH218329   4.548   2.050   4.149  0.1830  0.0779  0.1481
 6122TIP3    H118330   4.607   2.045   4.224  0.9009  1.4144 -0.2876
 6122TIP3    H218331   4.559   2.139   4.116  0.3190 -0.6565 -1.9024
 6123TIP3   OH218332   7.103   0.318   2.071  0.5054 -0.1083 -0.5866
 6123TIP3    H118333   7.111   0.233   2.116  0.6509  0.0063 -0.3940
 6123TIP3    H218334   7.183   0.364   2.094  1.1601 -0.5139 -1.9611
 6124TIP3   OH218335   2.257   6.523   3.118  0.1760 -0.1928  0.1570
 6124TIP3    H118336   2.179   6.539   3.172 -0.3173  0.5340 -0.7349
 6124TIP3    H218337   2.229   6.455   3.055  0.6630 -0.8449  0.6322
 6125TIP3   OH218338   0.414   4.204   1.133 -0.0373 -0.4300 -0.0089
 6125TIP3    H118339   0.465   4.271   1.179 -0.1159 -1.2725  1.3731
 6125TIP3    H218340   0.424   4.225   1.041  1.6957  0.2129  0.2924
 6126TIP3   OH218341   3.199   0.560   3.381 -0.1698 -0.2878 -0.2765
 6126TIP3    H118342   3.194   0.550   3.286 -1.6926 -0.3112 -0.2103
 6126TIP3    H218343   3.293   0.555   3.401  0.3011  1.2017 -1.9261
 6127TIP3   OH218344   2.906   2.922   4.229  0.2462 -0.3027  0.1647
 6127TIP3    H118345   2.958   2.844   4.248  0.3177 -0.1299  0.6906
 6127TIP3    H218346   2.881   2.912   4.137  1.4021 -0.2693 -0.1653
 6128TIP3   OH218347   3.172   0.072   3.483 -0.4039 -0.3241 -0.0230
 6128TIP3    H118348   3.131  -0.007   3.446  2.0452 -0.4905 -2.6901
 6128TIP3    H218349   3.265   0.059   3.469  0.2609  2.0816  1.6188
 6129TIP3   OH218350   4.662   3.524   3.324 -0.4362 -0.1786  0.3329
 6129TIP3    H118351   4.572   3.542   3.351  0.1090  2.7611  0.4327
 6129TIP3    H218352   4.703   3.485   3.401 -1.3627 -0.7825  0.5464
 6130TIP3   OH218353   2.510   1.837   4.722  0.3818 -0.7448 -0.0148
 6130TIP3    H118354   2.602   1.833   4.694  1.1594 -0.6477  2.3622
 6130TIP3    H218355   2.514   1.850   4.816 -2.1058 -0.5127  0.1169
 6131TIP3   OH218356   6.079   0.310   4.583  0.1215  0.1364 -0.1247
 6131TIP3    H118357   5.998   0.259   4.585 -0.1055  0.5139  1.4207
 6131TIP3    H218358   6.143   0.257   4.629  1.1240 -0.6738 -2.3245
 6132TIP3   OH218359   2.948   3.864   4.415 -0.1653  0.1017 -0.3930
 6132TIP3    H118360   2.968   3.805   4.488  0.9913 -1.3559 -1.7938
 6132TIP3    H218361   3.034   3.885   4.378 -0.8009 -1.2470 -2.8239
 6133TIP3   OH218362   2.848   2.430   1.095 -0.5317 -0.4978  0.3328
 6133TIP3    H118363   2.791   2.368   1.141  1.1339 -0.9490  1.9180
 6133TIP3    H218364   2.866   2.389   1.011 -0.1096 -1.8248  1.0451
 6134TIP3   OH218365   4.777   2.786   0.735 -0.4493  0.2475 -0.0624
 6134TIP3    H118366   4.828   2.795   0.654  1.2308  3.0512  1.1563
 6134TIP3    H218367   4.690   2.758   0.705  0.0671  1.2333 -2.8359
 6135TIP3   OH218368   6.664   1.718   5.271 -0.6400  0.0864  0.5674
 6135TIP3    H118369   6.647   1.674   5.188 -1.0482 -0.4430  0.9272
 6135TIP3    H218370   6.669   1.811   5.249  0.8932 -0.1629 -0.3161
 6136TIP3   OH218371   0.053   0.746   2.799  0.1985  0.2380  0.1648
 6136TIP3    H118372   0.141   0.776   2.820 -0.1369  0.6952  0.9992
 6136TIP3    H218373   0.009   0.824   2.764  0.1074  0.0235 -0.2060
 6137TIP3   OH218374   1.349   4.374   1.735 -0.2117 -0.7670 -0.0908
 6137TIP3    H118375   1.441   4.360   1.759  0.3363 -0.3876 -1.7988
 6137TIP3    H218376   1.317   4.288   1.709  1.1269 -0.3124 -3.9826
 6138TIP3   OH218377   6.494   6.679   2.341 -0.3579  0.0430 -0.2913
 6138TIP3    H118378   6.481   6.588   2.315 -1.3087 -0.1806  0.8715
 6138TIP3    H218379   6.526   6.674   2.431  1.6107  0.8273 -0.8931
 6139TIP3   OH218380   6.008   4.911   0.424 -0.6481 -0.4011 -0.1096
 6139TIP3    H118381   6.035   5.001   0.441 -1.0863 -0.5671  1.6700
 6139TIP3    H218382   6.089   4.866   0.399 -0.1065  0.0989  0.7031
 6140TIP3   OH218383   1.592   2.709   3.409 -0.3923 -0.1707 -0.0639
 6140TIP3    H118384   1.560   2.619   3.409  0.7181 -0.5830 -0.7881
 6140TIP3    H218385   1.521   2.760   3.371 -0.2224 -1.0559 -1.6480
 6141TIP3   OH218386   1.695   4.620   1.206  0.4044 -0.2161  0.0331
 6141TIP3    H118387   1.626   4.554   1.207 -0.0429  0.2482  0.5787
 6141TIP3    H218388   1.755   4.591   1.138  0.2718 -1.2330  0.3379
 6142TIP3   OH218389   3.972   0.549   2.995  0.1711  0.6332  0.5658
 6142TIP3    H118390   4.031   0.619   2.967  1.4543 -0.5016  0.2922
 6142TIP3    H218391   3.914   0.590   3.059  0.3762  2.1153 -0.1517
 6143TIP3   OH218392   3.593   5.161   2.606  0.1230  0.4635  0.5795
 6143TIP3    H118393   3.528   5.165   2.675 -0.5564 -0.2130 -0.0073
 6143TIP3    H218394   3.546   5.188   2.527  0.3257 -0.8080  0.0036
 6144TIP3   OH218395   1.139   1.607   4.944  0.0071 -0.5012 -0.0462
 6144TIP3    H118396   1.216   1.560   4.976  0.7813  0.4797 -0.4261
 6144TIP3    H218397   1.152   1.613   4.849  0.3975  1.2651  0.0877
 6145TIP3   OH218398   5.071   6.197   5.557  0.3739 -0.1221 -0.3951
 6145TIP3    H118399   5.074   6.281   5.512 -1.2987  0.1236 -0.1236
 6145TIP3    H218400   5.053   6.134   5.488 -2.2970  0.2678 -0.1734
 6146TIP3   OH218401   7.140   1.464   0.995 -0.3964 -0.2398 -0.2509
 6146TIP3    H118402   7.099   1.538   1.040  0.4495 -0.8381  1.6477
 6146TIP3    H218403   7.203   1.505   0.935 -0.8629  0.6054 -0.1868
 6147TIP3   OH218404   1.922   4.369   1.832 -0.5333 -0.3465 -0.1489
 6147TIP3    H118405   1.996   4.317   1.864 -0.9070 -0.5378  0.4278
 6147TIP3    H218406   1.959   4.455   1.813 -0.3801 -0.0646  1.2983
 6148TIP3   OH218407   3.325   0.150   2.893  0.7329  0.0105 -0.0080
 6148TIP3    H118408   3.312   0.200   2.973  0.5459 -1.9190  1.2540
 6148TIP3    H218409   3.243   0.100   2.883 -0.1182  1.7654 -2.6366
 6149TIP3   OH218410   7.100   2.891   0.054 -0.0366  0.4011  0.0987
 6149TIP3    H118411   7.120   2.804   0.090 -0.0286  0.3632  0.0033
 6149TIP3    H218412   7.165   2.949   0.094 -1.4304  0.7872  1.9441
 6150TIP3   OH218413   6.762   4.574   2.427  0.3238  0.0750 -0.0604
 6150TIP3    H118414   6.757   4.588   2.333  0.4442 -0.1570 -0.1022
 6150TIP3    H218415   6.767   4.479   2.437  1.7670  0.1338  0.0991
 6151TIP3   OH218416   6.123   2.366   1.928 -0.0456 -0.5552  0.2472
 6151TIP3    H118417   6.090   2.396   1.843  1.9563 -1.1802 -0.8029
 6151TIP3    H218418   6.050   2.381   1.988 -1.9108 -1.0814 -1.7537
 6152TIP3   OH218419   4.125   2.052   5.483  0.4358  0.2004 -0.2872
 6152TIP3    H118420   4.094   1.969   5.520 -0.3305 -0.5434 -2.4540
 6152TIP3    H218421   4.067   2.118   5.520 -2.7847 -0.9478 -2.7995
 6153TIP3   OH218422   0.323   0.718   3.155 -0.2049 -0.2018 -0.5263
 6153TIP3    H118423   0.326   0.750   3.245  0.3785  0.9225 -0.9260
 6153TIP3    H218424   0.323   0.798   3.101  0.5414 -0.8730 -1.5497
 6154TIP3   OH218425   2.860   2.728   2.973 -0.2376 -0.2949  0.3261
 6154TIP3    H118426   2.797   2.800   2.972  1.0819  0.9444 -2.0181
 6154TIP3    H218427   2.941   2.767   3.007  0.5236 -0.5632 -1.0676
 6155TIP3   OH218428   5.902   6.339   4.874 -0.1943  0.4466 -0.2515
 6155TIP3    H118429   5.922   6.370   4.786  0.3261  0.3127 -0.1828
 6155TIP3    H218430   5.896   6.419   4.927  0.9635  0.4587 -0.1118
 6156TIP3   OH218431   2.509   1.567   2.318  0.2865 -0.3089  0.0675
 6156TIP3    H118432   2.417   1.589   2.335  0.4169 -0.1770  0.6354
 6156TIP3    H218433   2.551   1.652   2.307  0.8379 -0.1819  2.4968
 6157TIP3   OH218434   5.658   4.477   0.923 -0.1172 -0.2403  0.1029
 6157TIP3    H118435   5.580   4.526   0.897 -1.3229 -0.7854  2.4180
 6157TIP3    H218436   5.685   4.431   0.843 -0.8391  1.6318 -1.3001
 6158TIP3   OH218437   6.960   6.233   4.205  0.4577 -0.6853  0.5913
 6158TIP3    H118438   6.996   6.287   4.275 -0.3439  0.2161  0.3238
 6158TIP3    H218439   6.869   6.262   4.196  0.5926 -0.6699 -0.9323
 6159TIP3   OH218440   0.382   0.309   3.876  0.0978 -0.4938  0.1523
 6159TIP3    H118441   0.327   0.240   3.839 -0.5049  0.7178 -1.2893
 6159TIP3    H218442   0.329   0.389   3.868  0.8517  0.1951  1.6178
 6160TIP3   OH218443   7.231   2.290   0.905  0.4932 -0.2488 -0.0431
 6160TIP3    H118444   7.172   2.214   0.901  0.7378 -0.7508  3.3702
 6160TIP3    H218445   7.202   2.338   0.982  2.8251  1.0072  0.1132
 6161TIP3   OH218446   1.180   3.009   5.134 -0.5717 -0.3200 -0.7252
 6161TIP3    H118447   1.095   3.020   5.179  0.1341  0.4263  0.4883
 6161TIP3    H218448   1.164   3.040   5.045 -1.1614  1.4623 -0.0413
 6162TIP3   OH218449   1.708   2.844   0.225 -0.3993 -0.1280  0.1572
 6162TIP3    H118450   1.712   2.938   0.212 -0.2413 -0.1889 -0.2539
 6162TIP3    H218451   1.754   2.829   0.308 -2.4290  0.3914  1.4325
 6163TIP3   OH218452   0.743   4.416   4.675  0.3518 -0.7893 -0.6866
 6163TIP3    H118453   0.648   4.429   4.679  0.1160 -2.5460  0.8065
 6163TIP3    H218454   0.779   4.501   4.698 -0.8056  0.2064 -2.3229
 6164TIP3   OH218455   6.149   3.901   1.909  0.1408  0.0309 -0.4303
 6164TIP3    H118456   6.207   3.871   1.840  0.9438 -0.7253  0.5481
 6164TIP3    H218457   6.139   3.826   1.967 -1.6557  0.2066 -0.4532
 6165TIP3   OH218458   4.629   1.972   5.764  0.2575  0.3427  0.3324
 6165TIP3    H118459   4.622   1.982   5.859 -1.4429 -0.3842  0.3135
 6165TIP3    H218460   4.650   2.060   5.732  1.0130  0.5616  1.3778
 6166TIP3   OH218461   5.202   3.236   2.100 -0.1488  0.2816 -0.0054
 6166TIP3    H118462   5.137   3.305   2.115 -0.5345  0.1957 -1.1624
 6166TIP3    H218463   5.190   3.212   2.008  2.2990  1.0873 -0.6254
 6167TIP3   OH218464   5.655   5.200   2.864 -0.1215  0.2587 -0.3716
 6167TIP3    H118465   5.619   5.220   2.950 -1.0556  0.4532 -0.8035
 6167TIP3    H218466   5.750   5.213   2.875 -0.4244  2.6484  0.0074
 6168TIP3   OH218467   1.291   3.030   4.261  0.1385 -0.2606  0.3744
 6168TIP3    H118468   1.219   2.967   4.268  0.3971 -0.5160  0.7935
 6168TIP3    H218469   1.356   2.985   4.207  0.9172 -0.9421  1.8038
 6169TIP3   OH218470   4.683   1.195   5.385 -0.2371  0.1921  0.0285
 6169TIP3    H118471   4.717   1.108   5.367  1.6717  0.8496  0.1235
 6169TIP3    H218472   4.709   1.213   5.475  2.2627  1.9896 -0.9164
 6170TIP3   OH218473   6.815   5.820   5.026 -0.0243 -0.0426 -0.1971
 6170TIP3    H118474   6.823   5.738   5.074  0.7742 -0.4809 -1.0562
 6170TIP3    H218475   6.753   5.872   5.078  0.1918 -0.8090  0.8581
 6171TIP3   OH218476   0.698   2.172   4.413 -0.0107 -0.0217  0.2096
 6171TIP3    H118477   0.769   2.172   4.348  1.1196 -0.6150  1.3921
 6171TIP3    H218478   0.695   2.263   4.443  0.3015 -0.0003  0.1888
 6172TIP3   OH218479   0.547   6.202   4.115  0.6075  0.7019 -0.5225
 6172TIP3    H118480   0.480   6.207   4.047 -0.4443 -0.7112  0.3423
 6172TIP3    H218481   0.499   6.218   4.197  1.3404 -0.1697  0.1032
 6173TIP3   OH218482   4.453   2.501   2.837  0.0437  0.3032 -0.4701
 6173TIP3    H118483   4.531   2.448   2.851  1.3370  1.9185 -1.2567
 6173TIP3    H218484   4.429   2.531   2.924  1.4044  1.2592 -0.3929
 6174TIP3   OH218485   2.747   1.089   2.431 -0.1017  0.2334 -0.3456
 6174TIP3    H118486   2.660   1.070   2.398  0.6477 -1.7151 -1.3760
 6174TIP3    H218487   2.733   1.120   2.520 -1.9258  1.7728 -1.0933
 6175TIP3   OH218488   1.041   4.719   1.406  0.0506  0.1686  0.3450
 6175TIP3    H118489   1.039   4.775   1.483  0.5707  0.6466  0.0243
 6175TIP3    H218490   1.115   4.752   1.354 -0.4849  0.0683 -0.5085
 6176TIP3   OH218491   7.186   0.521   2.580  0.5162  0.3922  0.2334
 6176TIP3    H118492   7.269   0.535   2.534  2.2819 -0.0630  3.0624
 6176TIP3    H218493   7.162   0.608   2.613  0.7080  0.2779  0.6886
 6177TIP3   OH218494   5.103   2.977   1.745  0.3175  0.1982 -0.0059
 6177TIP3    H118495   5.078   2.990   1.653 -0.0423 -0.7534 -0.0522
 6177TIP3    H218496   5.174   2.913   1.741 -1.9459 -2.5221  0.5536
 6178TIP3   OH218497   3.328   6.000   1.291 -1.0870 -0.1617  0.3037
 6178TIP3    H118498   3.337   6.065   1.361 -0.8431  1.2997 -1.0216
 6178TIP3    H218499   3.414   5.957   1.288 -0.0931  1.7868 -0.9593
 6179TIP3   OH218500   1.226   2.504   2.185 -0.0468  0.2774  0.2578
 6179TIP3    H118501   1.210   2.482   2.277  0.5763 -1.3220  0.0194
 6179TIP3    H218502   1.139   2.519   2.148 -0.3948 -0.3248  0.8179
 6180TIP3   OH218503   5.900   4.171   1.065 -0.4540 -0.4265 -0.0510
 6180TIP3    H118504   5.928   4.084   1.093  0.1838 -0.0343  0.5958
 6180TIP3    H218505   5.826   4.156   1.007  0.5056 -1.4705 -1.0494
 6181TIP3   OH218506   4.332   3.601   0.336  0.5438 -0.0715  0.2988
 6181TIP3    H118507   4.237   3.598   0.349 -0.0547  1.4841 -2.8960
 6181TIP3    H218508   4.350   3.535   0.270  1.9049 -0.9847  1.5047
 6182TIP3   OH218509   0.376   3.585   3.266 -0.0489 -0.0794  0.3667
 6182TIP3    H118510   0.409   3.582   3.356 -1.9426  0.2610  1.1134
 6182TIP3    H218511   0.354   3.677   3.253 -2.9971 -0.6150  0.8399
 6183TIP3   OH218512   4.062   0.160   5.793 -0.0699  0.9770  0.2030
 6183TIP3    H118513   4.142   0.212   5.785  0.7043 -0.0619  0.9380
 6183TIP3    H218514   4.012   0.202   5.863  1.0654  0.1355  1.5749
 6184TIP3   OH218515   5.206   4.854   4.135  0.3126  0.4584 -0.0631
 6184TIP3    H118516   5.172   4.805   4.061  1.3078 -0.0143 -0.2183
 6184TIP3    H218517   5.135   4.853   4.200  0.5041 -1.6687  0.1658
 6185TIP3   OH218518   1.266   3.139   2.887 -0.0355  0.0878 -0.0660
 6185TIP3    H118519   1.343   3.171   2.841 -0.7765  1.8287 -0.1795
 6185TIP3    H218520   1.285   3.155   2.979 -0.8449  2.0059 -0.1879
 6186TIP3   OH218521   0.782   3.246   5.534 -0.0891  0.6113 -0.0609
 6186TIP3    H118522   0.774   3.328   5.582 -1.3598 -0.0399  0.9085
 6186TIP3    H218523   0.698   3.236   5.489  0.2203  0.0624 -0.5358
 6187TIP3   OH218524   5.914   2.238   3.846  0.2034 -0.0064  0.5418
 6187TIP3    H118525   5.904   2.330   3.872  0.6412  0.0892  0.3691
 6187TIP3    H218526   5.964   2.241   3.765  0.7630 -0.4322  0.8648
 6188TIP3   OH218527   1.335   0.279   3.660 -0.1564 -0.4137 -0.4115
 6188TIP3    H118528   1.281   0.354   3.635  2.5590  2.0035  0.4501
 6188TIP3    H218529   1.414   0.317   3.697  1.0748 -3.7580  0.8148
 6189TIP3   OH218530   4.073   3.779   2.242  0.1349  0.0539 -0.2050
 6189TIP3    H118531   4.056   3.698   2.290 -0.0482 -1.0682 -2.0659
 6189TIP3    H218532   4.027   3.768   2.159 -0.3591  2.3238 -0.3050
 6190TIP3   OH218533   1.628   3.613   5.160 -0.7006 -0.0499  0.1035
 6190TIP3    H118534   1.564   3.545   5.137  0.0822 -0.6540 -0.3475
 6190TIP3    H218535   1.657   3.589   5.248 -2.0245  0.9649  0.8473
 6191TIP3   OH218536   1.874   2.834   0.821  0.5356 -0.0741 -0.8583
 6191TIP3    H118537   1.809   2.889   0.862  0.1760 -0.5682 -0.7534
 6191TIP3    H218538   1.829   2.796   0.745 -0.0276 -2.1245  0.4200
 6192TIP3   OH218539   5.576   3.020   3.173  0.3275 -0.2766  0.8974
 6192TIP3    H118540   5.626   3.040   3.252  0.2625  1.0159  0.6345
 6192TIP3    H218541   5.485   3.016   3.203  0.3424 -0.1571  0.9622
 6193TIP3   OH218542   4.235   2.843   4.789 -0.2417 -0.7240  0.4364
 6193TIP3    H118543   4.266   2.924   4.749 -0.5950  0.7414  2.9076
 6193TIP3    H218544   4.143   2.837   4.765  0.0390 -0.9774 -0.6094
 6194TIP3   OH218545   1.339   5.568   3.776  0.3972  0.5366 -0.0095
 6194TIP3    H118546   1.374   5.503   3.715  1.8673  0.6720  0.6564
 6194TIP3    H218547   1.414   5.623   3.798 -0.3257  1.0839  1.1734
 6195TIP3   OH218548   6.148   5.667   0.594  0.1859  0.2674 -0.3028
 6195TIP3    H118549   6.171   5.723   0.668  2.3365  0.5179 -1.0833
 6195TIP3    H218550   6.189   5.583   0.614  0.7910  0.3404 -1.1762
 6196TIP3   OH218551   3.872   5.786   1.765 -0.9471 -0.5939 -0.2077
 6196TIP3    H118552   3.824   5.869   1.773  0.0430  0.1156 -1.3063
 6196TIP3    H218553   3.875   5.770   1.671 -1.4088 -2.0721  0.0142
 6197TIP3   OH218554   2.622   4.866   1.158  0.1545 -0.5199  0.3615
 6197TIP3    H118555   2.658   4.954   1.144 -1.4853 -0.2277 -3.2864
 6197TIP3    H218556   2.547   4.879   1.216 -0.2385  0.5727 -0.3574
 6198TIP3   OH218557   6.903   5.500   0.714 -0.0631  0.3147 -0.1844
 6198TIP3    H118558   6.905   5.545   0.629 -0.1271  5.2914  2.0553
 6198TIP3    H218559   6.810   5.499   0.738 -0.1754 -2.0879 -0.5448
 6199TIP3   OH218560   6.869   5.062   1.423  0.5024 -0.3140 -0.1168
 6199TIP3    H118561   6.797   5.040   1.364  0.7296  1.2635 -1.0524
 6199TIP3    H218562   6.827   5.088   1.504 -0.3016  3.2952 -1.4888
 6200TIP3   OH218563   6.142   4.187   4.755  0.0493  0.1615 -0.0107
 6200TIP3    H118564   6.069   4.175   4.816 -0.9581  0.3205 -1.1695
 6200TIP3    H218565   6.172   4.276   4.772  0.6617 -0.2385  1.1698
 6201TIP3   OH218566   5.879   6.504   4.153  0.1751  0.1813  0.3488
 6201TIP3    H118567   5.846   6.589   4.181  1.8393  1.4215 -1.2307
 6201TIP3    H218568   5.825   6.482   4.076  2.6462  2.1697 -2.1822
 6202TIP3   OH218569   3.048   5.979   1.318 -0.1304  0.0487 -0.1380
 6202TIP3    H118570   3.050   5.923   1.396 -1.1625  0.7742  0.4266
 6202TIP3    H218571   3.133   5.963   1.276  0.1407 -0.9315  0.7128
 6203TIP3   OH218572   4.130   1.380   3.883 -0.7630  0.3656 -0.2788
 6203TIP3    H118573   4.119   1.469   3.851  0.1581  0.4363 -0.4287
 6203TIP3    H218574   4.172   1.333   3.811 -0.2147  0.1015  0.2013
 6204TIP3   OH218575   6.674   5.236   2.631  0.1549 -0.4542  0.2839
 6204TIP3    H118576   6.750   5.237   2.690  1.3359 -1.8279 -1.1333
 6204TIP3    H218577   6.688   5.312   2.575  0.9408 -1.1372 -0.4770
 6205TIP3   OH218578   5.437   6.752   0.423 -0.2095 -0.1575 -0.3706
 6205TIP3    H118579   5.422   6.767   0.330 -1.0058  1.1641 -0.0451
 6205TIP3    H218580   5.404   6.663   0.438 -0.4645 -0.2255 -1.2632
 6206TIP3   OH218581   0.770   5.423   3.481 -0.3042  0.1505  0.1930
 6206TIP3    H118582   0.784   5.415   3.387 -0.8222  2.6892 -0.1755
 6206TIP3    H218583   0.690   5.373   3.498 -1.3429  1.2811 -1.1238
 6207TIP3   OH218584   4.723   5.493   5.184 -0.6014  0.2219  0.2292
 6207TIP3    H118585   4.639   5.536   5.205  0.8832  2.4613  2.1379
 6207TIP3    H218586   4.785   5.566   5.175  1.2062 -1.3807 -0.9631
 6208TIP3   OH218587   7.094   5.160   2.560  1.1202  0.1229  0.5788
 6208TIP3    H118588   7.084   5.252   2.538  0.8799  0.3047  1.4138
 6208TIP3    H218589   7.187   5.142   2.550  0.9913  0.1292 -0.7990
 6209TIP3   OH218590   5.968   3.266   4.527 -0.1023  0.8252  0.1317
 6209TIP3    H118591   5.941   3.182   4.490 -2.1071  0.9586  1.1501
 6209TIP3    H218592   6.044   3.291   4.475 -1.6614  0.1763 -2.7277
 6210TIP3   OH218593   1.531   3.907   4.622  0.3103  0.0626 -0.6161
 6210TIP3    H118594   1.603   3.907   4.685  1.0529 -2.6532 -1.3395
 6210TIP3    H218595   1.488   3.823   4.635  0.1563 -0.3521 -3.3184
 6211TIP3   OH218596   4.385   1.518   5.655  0.2160 -0.0974 -0.8586
 6211TIP3    H118597   4.385   1.441   5.598  1.1954 -0.8126  0.0735
 6211TIP3    H218598   4.390   1.592   5.595 -0.0542 -0.7769 -1.7473
 6212TIP3   OH218599   1.660   5.320   2.032 -0.1948 -0.2016 -0.4599
 6212TIP3    H118600   1.614   5.239   2.013 -2.8336  0.9397  0.5402
 6212TIP3    H218601   1.688   5.312   2.123 -1.5126  0.4124  0.0256
 6213TIP3   OH218602   6.428   6.508   1.153 -0.0129 -0.6861 -0.0855
 6213TIP3    H118603   6.445   6.432   1.208  0.2936 -0.2691  0.4050
 6213TIP3    H218604   6.334   6.504   1.135 -0.4016 -0.1401  1.5521
 6214TIP3   OH218605   3.318   5.623   0.812 -0.1008 -0.5776 -0.0177
 6214TIP3    H118606   3.398   5.576   0.835 -0.1439  0.8994  3.9655
 6214TIP3    H218607   3.349   5.701   0.767  0.4385 -1.3112 -0.9640
 6215TIP3   OH218608   7.033   5.611   5.488  0.1918 -0.1760  0.4290
 6215TIP3    H118609   6.979   5.686   5.515  1.7766  1.2793 -0.2906
 6215TIP3    H218610   7.101   5.606   5.555  1.3935  0.4759 -0.7063
 6216TIP3   OH218611   0.447   1.059   5.056  0.2773  0.0393  0.0336
 6216TIP3    H118612   0.464   0.995   5.125  1.2178  1.0339  0.7520
 6216TIP3    H218613   0.472   1.143   5.094 -1.4352  0.9394 -0.6966
 6217TIP3   OH218614   1.331   0.497   4.902  0.1762 -0.1061  0.3906
 6217TIP3    H118615   1.406   0.438   4.914  0.0845 -0.1150  0.9528
 6217TIP3    H218616   1.338   0.559   4.975 -0.6649 -0.4395  0.7614
 6218TIP3   OH218617   4.445   3.741   2.987 -0.1394 -0.3921 -0.4399
 6218TIP3    H118618   4.383   3.802   2.947  0.7907 -0.0038 -1.3087
 6218TIP3    H218619   4.407   3.722   3.073 -0.1928  1.8106  0.0817
 6219TIP3   OH218620   1.625   3.663   3.419 -0.1863 -0.2428 -0.1797
 6219TIP3    H118621   1.664   3.576   3.410  0.0883 -0.0656 -0.7500
 6219TIP3    H218622   1.609   3.672   3.513 -2.4807 -1.8805 -0.3187
 6220TIP3   OH218623   2.100   5.849   1.666  0.3950 -0.2666  0.8161
 6220TIP3    H118624   2.023   5.845   1.610 -0.4255  1.7905  1.6837
 6220TIP3    H218625   2.118   5.758   1.690 -1.1252 -0.8774 -0.2153
 6221TIP3   OH218626   0.538   2.039   1.529  0.3378  0.0782 -0.2202
 6221TIP3    H118627   0.490   1.957   1.543  0.6941 -0.5294 -2.2968
 6221TIP3    H218628   0.618   2.028   1.580 -0.4768 -0.0245  1.0852
 6222TIP3   OH218629   5.618   1.053   2.256  0.1715  0.2444  0.0043
 6222TIP3    H118630   5.589   0.970   2.295 -2.8513  1.7365  1.2007
 6222TIP3    H218631   5.642   1.107   2.332  0.9989  0.8892 -0.6986
 6223TIP3   OH218632   1.074   5.018   4.827  0.6510 -0.1383 -0.2689
 6223TIP3    H118633   1.129   5.081   4.781  0.6124  0.9013  1.0544
 6223TIP3    H218634   1.126   4.993   4.904  0.8793 -2.1199 -1.0184
 6224TIP3   OH218635   3.548   3.763   1.737  0.3777  0.5413  0.0693
 6224TIP3    H118636   3.594   3.730   1.660  2.9871  0.5070  1.5259
 6224TIP3    H218637   3.511   3.685   1.778  2.3634 -0.0395  0.8872
 6225TIP3   OH218638   2.214   2.676   3.806  0.2763  0.0963  0.7209
 6225TIP3    H118639   2.224   2.583   3.782  0.2811  0.3666 -0.4058
 6225TIP3    H218640   2.280   2.721   3.754 -1.3431  1.0015 -0.6905
 6226TIP3   OH218641   1.210   1.551   2.551 -0.0529 -0.3871 -0.0093
 6226TIP3    H118642   1.179   1.537   2.641 -1.0109 -1.3970 -0.4806
 6226TIP3    H218643   1.300   1.519   2.553 -0.3322 -1.1984  0.4017
 6227TIP3   OH218644   6.258   6.383   4.983 -0.3510  0.2287  0.0700
 6227TIP3    H118645   6.189   6.416   5.040 -1.7405 -0.5581 -1.0751
 6227TIP3    H218646   6.267   6.290   5.006  0.1821  0.2701  0.0535
 6228TIP3   OH218647   6.477   1.855   0.957  0.0014  0.5489 -0.8597
 6228TIP3    H118648   6.415   1.921   0.988  1.0449  2.2866 -2.3020
 6228TIP3    H218649   6.557   1.874   1.005  0.8030  1.4729 -2.4950
 6229TIP3   OH218650   5.977   5.718   1.494  0.1379 -0.6138  0.0480
 6229TIP3    H118651   6.064   5.678   1.487  1.0912  1.1404  1.0645
 6229TIP3    H218652   5.987   5.804   1.454 -1.1157 -0.3428  0.2667
 6230TIP3   OH218653   0.149   4.312   0.640 -0.0627  0.1284  0.4542
 6230TIP3    H118654   0.212   4.352   0.580 -0.9723 -0.3167 -0.8451
 6230TIP3    H218655   0.198   4.240   0.681  0.3694 -0.0234 -0.3086
 6231TIP3   OH218656   0.442   3.094   5.811 -0.2285 -0.1095  0.4688
 6231TIP3    H118657   0.528   3.120   5.778 -0.7309 -0.4433 -1.2278
 6231TIP3    H218658   0.443   2.998   5.808 -1.5088 -0.1453 -2.1673
 6232TIP3   OH218659   0.881   1.447   4.284 -0.5880  0.5158  0.2443
 6232TIP3    H118660   0.870   1.378   4.350 -0.2666  0.8250  0.6262
 6232TIP3    H218661   0.956   1.417   4.231 -0.1338  0.8042  0.7152
 6233TIP3   OH218662   0.234   0.147   0.408  0.0802 -0.1815 -0.1815
 6233TIP3    H118663   0.241   0.167   0.314  0.9747  1.1685  0.1433
 6233TIP3    H218664   0.200   0.228   0.446  0.3193 -0.5163  0.7544
 6234TIP3   OH218665   6.671   4.879   0.942  0.0616  0.4158  0.3985
 6234TIP3    H118666   6.597   4.907   0.888 -0.1144  1.3090  1.0981
 6234TIP3    H218667   6.634   4.811   0.999 -0.0707  0.4286  0.3294
 6235TIP3   OH218668   6.657   4.504   3.403  0.3163 -0.0451 -0.5861
 6235TIP3    H118669   6.708   4.500   3.484  0.5334 -1.5494 -0.7579
 6235TIP3    H218670   6.566   4.506   3.433  0.3987 -0.4731 -0.2855
 6236TIP3   OH218671   4.790   4.590   1.767  0.3068 -0.0901 -0.1076
 6236TIP3    H118672   4.703   4.600   1.804 -0.3153  0.5474 -1.6853
 6236TIP3    H218673   4.776   4.569   1.675  1.7898  1.7146 -0.8181
 6237TIP3   OH218674   2.369   6.397   0.364  0.1886  0.2350  0.2806
 6237TIP3    H118675   2.443   6.407   0.424 -0.5732  0.3490  1.2438
 6237TIP3    H218676   2.403   6.424   0.279  1.0468  1.0045  0.8412
 6238TIP3   OH218677   5.187   4.178   3.146 -0.0537 -0.2134 -0.4779
 6238TIP3    H118678   5.179   4.202   3.239 -0.3968 -0.9320 -0.3049
 6238TIP3    H218679   5.281   4.164   3.133  0.0742  0.5848 -0.4258
 6239TIP3   OH218680   0.103   1.887   0.311  0.1690 -0.3410 -0.1609
 6239TIP3    H118681   0.109   1.952   0.380 -1.3393  0.3165 -0.6051
 6239TIP3    H218682   0.032   1.829   0.339  0.4726 -0.8879 -0.5031
 6240TIP3   OH218683   2.022   4.885   3.912 -0.1663 -0.0866  0.0705
 6240TIP3    H118684   2.003   4.919   3.824  0.5503 -1.0640 -0.4802
 6240TIP3    H218685   1.953   4.922   3.967  0.5799  2.3209 -0.4485
 6241TIP3   OH218686   0.817   4.928   3.050  0.2381  0.0473  0.4051
 6241TIP3    H118687   0.872   4.904   3.124 -0.7843 -1.3195  0.7592
 6241TIP3    H218688   0.749   4.984   3.088 -2.1578 -3.1319  1.2549
 6242TIP3   OH218689   3.834   5.936   3.893 -0.3309  0.4722  0.0383
 6242TIP3    H118690   3.750   5.974   3.865 -0.4917  0.2329  0.1855
 6242TIP3    H218691   3.814   5.843   3.907  0.2578  0.1402 -1.1926
 6243TIP3   OH218692   0.660   5.580   4.744 -0.2136 -0.2713 -0.4140
 6243TIP3    H118693   0.652   5.628   4.661 -0.4209  3.7532  1.6698
 6243TIP3    H218694   0.744   5.535   4.737 -0.0354  0.2779 -2.6718
 6244TIP3   OH218695   4.337   6.735   0.844 -0.1699 -0.0524  0.4704
 6244TIP3    H118696   4.370   6.646   0.843  0.9939  0.3231  2.3411
 6244TIP3    H218697   4.245   6.727   0.816 -0.2735 -1.9049  1.2255
 6245TIP3   OH218698   5.203   2.643   1.068  0.1515  0.1469 -0.3082
 6245TIP3    H118699   5.188   2.627   0.975 -0.2095 -0.6192 -0.1279
 6245TIP3    H218700   5.287   2.688   1.072 -0.2964  1.0991 -1.0765
 6246TIP3   OH218701   1.266   1.715   1.674  0.1183 -0.0021 -0.5628
 6246TIP3    H118702   1.185   1.707   1.622 -0.8330 -0.9204  0.9733
 6246TIP3    H218703   1.264   1.805   1.706 -0.7897 -0.2597  0.1708
 6247TIP3   OH218704   0.546   4.596   5.352  0.0529 -0.3115 -0.0932
 6247TIP3    H118705   0.564   4.685   5.322 -1.7959  0.2279  0.2195
 6247TIP3    H218706   0.519   4.606   5.443 -1.3897 -0.9874 -0.4023
 6248TIP3   OH218707   4.084   4.063   0.866 -0.9698  0.2975  0.3566
 6248TIP3    H118708   4.019   4.132   0.876 -2.7502 -0.5459 -3.4462
 6248TIP3    H218709   4.155   4.104   0.816 -1.1528 -0.0972 -0.2440
 6249TIP3   OH218710   0.043   6.233   5.051  0.8386  0.2017 -0.5435
 6249TIP3    H118711   0.085   6.313   5.083 -0.6837  0.9427 -0.3323
 6249TIP3    H218712  -0.006   6.261   4.974 -0.9114 -0.1798  0.3700
 6250TIP3   OH218713   5.179   5.527   4.154 -0.1684  0.4496  0.7662
 6250TIP3    H118714   5.093   5.518   4.195 -0.6986 -1.2619 -0.6185
 6250TIP3    H218715   5.185   5.620   4.131 -1.1641  0.8055  1.8684
 6251TIP3   OH218716   1.966   3.205   2.484  0.6788  0.3335  0.0487
 6251TIP3    H118717   1.872   3.198   2.498  0.4043  0.6663 -1.3925
 6251TIP3    H218718   1.997   3.115   2.480  0.6238  0.2283  1.6315
 6252TIP3   OH218719   4.567   1.003   2.899 -0.3873  0.2871  0.1638
 6252TIP3    H118720   4.633   0.950   2.943 -1.8200 -1.7577  0.0192
 6252TIP3    H218721   4.555   0.961   2.814 -1.3430  1.0233 -0.0856
 6253TIP3   OH218722   5.047   3.333   3.493  0.2814  0.1200 -0.1526
 6253TIP3    H118723   4.962   3.373   3.511 -0.6089 -1.6164 -0.2619
 6253TIP3    H218724   5.109   3.380   3.549 -0.1293  3.5068 -2.2312
 6254TIP3   OH218725   0.934   3.379   0.604  0.1539 -0.1454  0.1044
 6254TIP3    H118726   0.849   3.350   0.570  0.3600  1.5084 -2.0275
 6254TIP3    H218727   0.998   3.323   0.560  0.2794  0.0983 -0.0245
 6255TIP3   OH218728   0.164   0.584   1.583  0.0035 -0.0192 -0.2379
 6255TIP3    H118729   0.227   0.648   1.617 -1.5441  0.2818  2.3603
 6255TIP3    H218730   0.116   0.631   1.515 -0.7832  1.4910  1.2949
 6256TIP3   OH218731   6.173   4.847   0.702  0.4107  0.6756 -0.6471
 6256TIP3    H118732   6.234   4.781   0.669  0.2406  0.0994  0.1689
 6256TIP3    H218733   6.103   4.797   0.744 -0.3650  1.3470 -1.1230
 6257TIP3   OH218734   5.744   2.581   2.268 -0.0717  0.4714 -0.1701
 6257TIP3    H118735   5.684   2.610   2.199 -0.4105  0.4760  0.1209
 6257TIP3    H218736   5.689   2.574   2.346  0.4876  1.3779  0.3251
 6258TIP3   OH218737   6.586   6.050   0.012 -0.5738 -0.0788 -0.3381
 6258TIP3    H118738   6.569   5.995   0.089  0.0022 -0.0737 -0.2022
 6258TIP3    H218739   6.590   5.987  -0.061 -1.7469 -0.0203 -0.4713
 6259TIP3   OH218740   6.001   1.395   1.040 -0.2989 -0.1679 -0.5832
 6259TIP3    H118741   6.082   1.381   1.090 -0.9317 -1.7371  0.0867
 6259TIP3    H218742   6.018   1.472   0.986  1.4342 -0.1424 -0.0426
 6260TIP3   OH218743   4.265   3.812   0.094 -0.6586  0.0536  0.0506
 6260TIP3    H118744   4.290   3.721   0.104 -0.5538  0.1018  0.2408
 6260TIP3    H218745   4.196   3.812   0.028  0.0729 -0.0473 -0.7341
 6261TIP3   OH218746   1.646   2.968   0.951 -0.0695 -0.1783  0.3318
 6261TIP3    H118747   1.596   2.985   0.871 -0.4562  0.9771  0.7924
 6261TIP3    H218748   1.584   2.922   1.008 -0.4860  0.8479  0.7311
 6262TIP3   OH218749   6.885   0.590   2.644 -0.0985 -0.6222  0.7762
 6262TIP3    H118750   6.830   0.569   2.719  0.2258  0.7384  1.4171
 6262TIP3    H218751   6.868   0.519   2.582 -3.0437  0.0088  0.6922
 6263TIP3   OH218752   4.663   4.570   2.547  0.0734  0.9027 -0.2065
 6263TIP3    H118753   4.616   4.642   2.587 -2.0404 -1.8283  2.7434
 6263TIP3    H218754   4.611   4.492   2.569  0.8936 -1.4125 -5.0877
 6264TIP3   OH218755   2.888   1.953   4.050 -0.0424 -0.1195 -0.4632
 6264TIP3    H118756   2.970   1.992   4.080 -1.0582  1.0819  0.9131
 6264TIP3    H218757   2.892   1.961   3.955  0.7540  1.3993 -0.3465
 6265TIP3   OH218758   2.267   5.482   1.050 -0.0650 -0.2684  0.0842
 6265TIP3    H118759   2.190   5.482   1.108  0.0533 -0.2606  0.2402
 6265TIP3    H218760   2.340   5.502   1.107  0.4088 -2.6184  0.4023
 6266TIP3   OH218761   7.116   6.273   0.690  0.4236  0.6721  0.0751
 6266TIP3    H118762   7.179   6.345   0.683  0.9952  0.3774  1.7450
 6266TIP3    H218763   7.059   6.299   0.763  0.0224 -0.1102  0.0441
 6267TIP3   OH218764   1.358   2.121   5.038  0.7589 -0.3545 -0.5305
 6267TIP3    H118765   1.421   2.119   5.110 -1.0450 -1.8370  1.1289
 6267TIP3    H218766   1.346   2.030   5.013 -0.7226 -0.1366 -0.7583
 6268TIP3   OH218767   4.301   4.169   0.680  0.0703  0.3164 -0.0852
 6268TIP3    H118768   4.367   4.141   0.616 -1.0574 -0.4570 -0.9303
 6268TIP3    H218769   4.263   4.249   0.643 -0.3015  0.0975 -0.1752
 6269TIP3   OH218770   1.600   2.287   3.085  0.6305  0.1495 -0.1389
 6269TIP3    H118771   1.530   2.223   3.073  1.1129 -0.3554 -0.3231
 6269TIP3    H218772   1.648   2.256   3.162 -0.3666  1.4520  1.0435
 6270TIP3   OH218773   6.435   5.069   2.909 -0.1934  0.3128  0.1855
 6270TIP3    H118774   6.516   5.019   2.909 -0.3094  0.1043  1.1412
 6270TIP3    H218775   6.433   5.112   2.995 -0.5695  1.1816 -0.2452
 6271TIP3   OH218776   3.512   0.238   4.562 -0.5024  0.0958  0.1812
 6271TIP3    H118777   3.554   0.309   4.610 -0.5500  0.8918 -0.9285
 6271TIP3    H218778   3.521   0.262   4.470  1.7797 -2.5551 -0.4270
 6272TIP3   OH218779   5.381   5.335   4.099  0.0575  0.3873 -0.2907
 6272TIP3    H118780   5.345   5.417   4.133  0.6410  0.0809  1.1547
 6272TIP3    H218781   5.357   5.270   4.165 -0.6073 -0.6776 -1.5348
 6273TIP3   OH218782   0.807   1.010   2.554 -0.3474  0.1002  0.3029
 6273TIP3    H118783   0.753   0.933   2.568  0.5004 -0.5893 -0.0963
 6273TIP3    H218784   0.875   1.004   2.621 -0.2251  0.4447  0.2106
 6274TIP3   OH218785   0.460   5.814   3.947 -0.2662 -0.2551 -0.2942
 6274TIP3    H118786   0.452   5.764   3.866 -1.1335  0.6624 -0.7937
 6274TIP3    H218787   0.532   5.875   3.932 -0.8183  0.3305 -0.6158
 6275TIP3   OH218788   6.338   2.938   3.379 -0.1335  0.2614  0.5934
 6275TIP3    H118789   6.339   2.953   3.284  1.9031 -3.5413 -0.1654
 6275TIP3    H218790   6.413   2.988   3.412 -0.1541  0.6655  0.0402
 6276TIP3   OH218791   5.111   2.472   0.842 -0.2530 -0.0362  0.3867
 6276TIP3    H118792   5.023   2.496   0.870 -0.0697 -0.7003  1.6046
 6276TIP3    H218793   5.115   2.377   0.856 -0.3132 -0.5386 -2.4303
 6277TIP3   OH218794   1.199   4.646   5.149  0.3985  0.0700  0.5353
 6277TIP3    H118795   1.175   4.738   5.139  1.9784  0.6308  1.4357
 6277TIP3    H218796   1.285   4.640   5.106  0.5044 -0.8726  0.8742
 6278TIP3   OH218797   6.314   3.235   2.558 -0.3571  0.1638 -0.3714
 6278TIP3    H118798   6.232   3.211   2.601 -1.5477  1.2963 -1.9124
 6278TIP3    H218799   6.358   3.152   2.540 -0.4474 -0.4039  1.7325
 6279TIP3   OH218800   3.451   4.036   3.290 -0.3475 -0.0267 -0.5357
 6279TIP3    H118801   3.499   4.079   3.218  1.0742 -0.3175  0.2069
 6279TIP3    H218802   3.520   4.002   3.347 -1.4439  0.3106  1.0444
 6280TIP3   OH218803   5.496   1.903   1.364  0.5324 -0.1485 -0.1195
 6280TIP3    H118804   5.475   1.811   1.379 -1.3107  0.0559 -1.1182
 6280TIP3    H218805   5.417   1.950   1.388  1.1018  1.0879 -0.5683
 6281TIP3   OH218806   0.121   3.626   0.269  0.6086 -0.6147 -0.4835
 6281TIP3    H118807   0.134   3.716   0.296  0.3709 -0.2609 -1.4810
 6281TIP3    H218808   0.176   3.574   0.328  0.1814  0.1030  0.5706
 6282TIP3   OH218809   3.919   3.747   2.016  0.2840 -0.2454 -0.1477
 6282TIP3    H118810   3.908   3.673   1.957 -1.3592  0.2329 -0.5054
 6282TIP3    H218811   3.838   3.798   2.006  1.3676  1.6274  0.0591
 6283TIP3   OH218812   4.146   2.769   4.074 -0.0002 -0.5310 -0.3496
 6283TIP3    H118813   4.119   2.799   3.987 -1.0262 -0.8348 -0.1444
 6283TIP3    H218814   4.078   2.707   4.100 -1.1647  1.4971  1.7948
 6284TIP3   OH218815   0.287   6.520   3.332 -0.9256  0.2664 -0.3240
 6284TIP3    H118816   0.380   6.545   3.333 -0.1243 -2.0649  3.0615
 6284TIP3    H218817   0.287   6.431   3.296 -1.4094 -0.6588  1.8044
 6285TIP3   OH218818   6.124   1.568   1.449 -0.2979 -0.2431 -0.6010
 6285TIP3    H118819   6.187   1.541   1.515 -2.7369 -0.9034  1.6493
 6285TIP3    H218820   6.122   1.496   1.386  0.4955 -0.6189 -0.2051
 6286TIP3   OH218821   5.861   4.421   0.437 -0.0313  0.0993  0.1231
 6286TIP3    H118822   5.797   4.436   0.367 -1.3448 -1.3333  0.9374
 6286TIP3    H218823   5.870   4.506   0.480  0.4407  0.8945 -1.4607
 6287TIP3   OH218824   5.384   3.613   1.924  0.4301 -0.8636 -0.7387
 6287TIP3    H118825   5.328   3.690   1.933  1.5776 -0.1109  0.1939
 6287TIP3    H218826   5.385   3.594   1.830  0.5144  0.5398 -1.0330
 6288TIP3   OH218827   1.602   0.165   1.882  0.6059 -0.4548 -0.3125
 6288TIP3    H118828   1.679   0.187   1.829  1.1676  1.0634  1.0393
 6288TIP3    H218829   1.588   0.243   1.936 -1.8694 -0.7194 -0.4791
 6289TIP3   OH218830   6.001   5.733   4.412  0.0010 -0.0034  0.2035
 6289TIP3    H118831   6.024   5.798   4.345 -0.6738  0.0870  0.0546
 6289TIP3    H218832   5.941   5.779   4.471  0.2908 -0.1996  0.6565
 6290TIP3   OH218833   4.965   5.626   1.674 -0.5146  0.2653 -0.4150
 6290TIP3    H118834   4.872   5.608   1.660 -0.0487 -3.2901 -0.0126
 6290TIP3    H218835   5.006   5.611   1.589 -0.0352 -1.4217  0.0554
 6291TIP3   OH218836   4.744   5.946   4.723  0.5222 -0.0852 -0.2525
 6291TIP3    H118837   4.794   6.012   4.675  1.0282 -0.1699  0.1581
 6291TIP3    H218838   4.796   5.927   4.801  0.3691 -0.9381 -0.3411
 6292TIP3   OH218839   2.842   1.362   4.209  0.2208  0.0264  0.0885
 6292TIP3    H118840   2.858   1.298   4.278  0.1456 -1.5387 -1.2547
 6292TIP3    H218841   2.879   1.444   4.241  2.5735 -1.2689  0.8740
 6293TIP3   OH218842   5.102   0.940   3.014 -0.9384  0.3713 -0.7458
 6293TIP3    H118843   5.166   0.868   3.012 -1.5441 -0.1991 -0.2270
 6293TIP3    H218844   5.062   0.938   2.927 -1.3221 -0.2698 -0.5594
 6294TIP3   OH218845   3.800   1.582   0.214  0.2368 -0.5907 -0.3204
 6294TIP3    H118846   3.828   1.507   0.161 -0.0532  0.6293 -2.2956
 6294TIP3    H218847   3.881   1.617   0.252  0.3631 -1.9062  0.7036
 6295TIP3   OH218848   3.869   3.065   3.198  0.5171  0.1843  0.7128
 6295TIP3    H118849   3.864   3.093   3.106  0.7290  0.6239  0.8298
 6295TIP3    H218850   3.963   3.057   3.216  0.4499 -2.2395  0.2180
 6296TIP3   OH218851   5.885   3.998   4.269  0.1216  0.2559 -0.3538
 6296TIP3    H118852   5.863   4.077   4.221  0.6255  0.0764 -0.9071
 6296TIP3    H218853   5.949   4.026   4.334  0.6816  0.2314 -0.8793
 6297TIP3   OH218854   0.107   5.179   5.389  0.1671  0.0278  0.5133
 6297TIP3    H118855   0.146   5.247   5.443  1.9006 -0.8334  0.4340
 6297TIP3    H218856   0.158   5.100   5.409  0.1993 -0.5612 -1.5753
 6298TIP3   OH218857   0.475   3.747   2.794  0.0652 -0.2620 -0.1685
 6298TIP3    H118858   0.498   3.795   2.714 -1.4536  0.6438 -0.0957
 6298TIP3    H218859   0.406   3.799   2.834 -0.6888 -1.8140  0.6312
 6299TIP3   OH218860   0.748   5.410   1.281  0.2705 -0.6900 -0.3237
 6299TIP3    H118861   0.797   5.424   1.361  0.0076  0.9080 -0.4072
 6299TIP3    H218862   0.660   5.387   1.310  0.5273 -1.5022 -0.1711
 6300TIP3   OH218863   6.570   1.393   0.052 -0.4793  0.1496  0.2147
 6300TIP3    H118864   6.580   1.385  -0.043 -1.3608 -0.6805  0.1789
 6300TIP3    H218865   6.575   1.304   0.085 -0.3070  0.4184  0.9465
 6301TIP3   OH218866   1.374   1.487   3.589 -0.0437  0.4846  0.5667
 6301TIP3    H118867   1.368   1.391   3.583  0.7272  0.4363  0.5548
 6301TIP3    H218868   1.461   1.508   3.557 -0.1252  1.1769  0.7869
 6302TIP3   OH218869   4.258   4.153   4.755 -0.3136  0.0616  0.0447
 6302TIP3    H118870   4.186   4.097   4.726 -0.3781  0.2710 -0.2028
 6302TIP3    H218871   4.294   4.108   4.832 -1.0642  0.2465  0.5107
 6303TIP3   OH218872   2.677   1.309   3.097 -0.0793 -0.0368  0.1032
 6303TIP3    H118873   2.723   1.241   3.147  0.9180 -0.8155 -1.7580
 6303TIP3    H218874   2.591   1.273   3.079  0.1375 -0.4377 -0.1285
 6304TIP3   OH218875   2.402   2.310   4.675  0.2335  0.2716  0.1153
 6304TIP3    H118876   2.388   2.230   4.625 -3.8387  1.3800 -0.8863
 6304TIP3    H218877   2.334   2.309   4.743  1.8990  1.6037  1.9239
 6305TIP3   OH218878   1.104   6.031   3.206 -0.3329  0.1341  0.0498
 6305TIP3    H118879   1.190   5.990   3.207 -0.2154  0.3593  1.4960
 6305TIP3    H218880   1.116   6.111   3.156 -0.6281 -1.5955 -3.0778
 6306TIP3   OH218881   1.174   5.347   4.237 -0.4206 -0.7525 -0.0581
 6306TIP3    H118882   1.216   5.426   4.272 -0.3216 -0.8617  0.0708
 6306TIP3    H218883   1.153   5.295   4.315 -0.6373 -0.7769 -0.1319
 6307TIP3   OH218884   6.435   6.352   4.053 -0.4207  0.7289 -0.1743
 6307TIP3    H118885   6.400   6.289   4.116  0.3990  1.1873  0.7618
 6307TIP3    H218886   6.477   6.297   3.986 -0.0554  0.2621  0.4235
 6308TIP3   OH218887   4.948   2.484   0.503  0.1036 -0.1161  0.2302
 6308TIP3    H118888   5.021   2.427   0.527  0.2154  0.2765  0.8408
 6308TIP3    H218889   4.870   2.434   0.526  0.1329 -0.9357 -1.3074
 6309TIP3   OH218890   3.631   1.390   2.875 -0.9291 -0.4165  0.7746
 6309TIP3    H118891   3.706   1.396   2.934  0.2410  1.9876 -0.7822
 6309TIP3    H218892   3.667   1.353   2.794 -1.4253  0.6087  0.0686
 6310TIP3   OH218893   1.970   0.679   0.721  0.0841  0.0112 -0.2356
 6310TIP3    H118894   2.019   0.725   0.654 -0.4745  0.7797 -0.1298
 6310TIP3    H218895   2.018   0.597   0.735  1.7225  1.0270  0.3775
 6311TIP3   OH218896   4.989   6.442   0.996 -0.1091 -0.3892 -0.1548
 6311TIP3    H118897   5.000   6.533   0.967 -0.2709  0.2477  1.6062
 6311TIP3    H218898   5.078   6.409   1.004 -0.0550 -0.4735 -1.0226
 6312TIP3   OH218899   2.568   1.534   0.281 -0.5913 -0.1222 -0.2284
 6312TIP3    H118900   2.640   1.590   0.312 -0.8272 -0.4057  0.8841
 6312TIP3    H218901   2.599   1.445   0.295 -0.8866 -0.2530 -0.3927
 6313TIP3   OH218902   4.570   3.410   1.493 -0.4856 -0.1469  0.1009
 6313TIP3    H118903   4.475   3.411   1.487 -0.4955  2.0086 -0.2921
 6313TIP3    H218904   4.599   3.373   1.409 -0.9917  0.0573 -0.1707
 6314TIP3   OH218905   0.468   5.613   0.624  0.3491  0.1178  0.1523
 6314TIP3    H118906   0.499   5.610   0.534 -2.1649 -1.8088 -0.7655
 6314TIP3    H218907   0.429   5.700   0.633  1.4084  0.6549 -0.3055
 6315TIP3   OH218908   2.151   2.635   1.532 -0.1709 -0.6876 -0.2908
 6315TIP3    H118909   2.237   2.665   1.562 -0.1058 -1.4601  0.3100
 6315TIP3    H218910   2.097   2.634   1.611 -0.7858 -0.0755 -0.6864
 6316TIP3   OH218911   0.192   3.125   1.656  0.3176  0.3691 -0.1694
 6316TIP3    H118912   0.131   3.171   1.714 -0.0082 -0.8930  0.5303
 6316TIP3    H218913   0.261   3.188   1.637 -0.8054  1.5837 -0.3521
 6317TIP3   OH218914   4.592   6.571   4.467 -0.2619  0.2858 -0.2935
 6317TIP3    H118915   4.604   6.502   4.532 -0.1416  0.1815 -0.4242
 6317TIP3    H218916   4.524   6.627   4.503 -1.7735 -0.9834 -1.0591
 6318TIP3   OH218917   3.575   4.708   5.236  0.3877 -0.2357  0.1358
 6318TIP3    H118918   3.664   4.725   5.205 -0.3712 -0.1684 -2.1648
 6318TIP3    H218919   3.550   4.626   5.193 -0.3905 -0.7169  1.4311
 6319TIP3   OH218920   6.709   4.890   1.918 -0.3997  0.2139 -0.4361
 6319TIP3    H118921   6.701   4.824   1.987 -0.4048  0.3370 -0.3194
 6319TIP3    H218922   6.743   4.968   1.962  1.2781 -0.2230 -0.8662
 6320TIP3   OH218923   4.904   1.012   2.040  0.2567  0.0558 -0.3102
 6320TIP3    H118924   4.930   1.089   2.092  2.4145 -0.6833 -0.2094
 6320TIP3    H218925   4.926   1.036   1.950 -1.3192  0.4336 -0.6293
 6321TIP3   OH218926   5.855   4.666   5.567 -0.4986  0.0754 -0.3424
 6321TIP3    H118927   5.948   4.659   5.546 -0.6286  0.6262 -1.1432
 6321TIP3    H218928   5.827   4.575   5.584 -0.4329 -0.4961 -2.9131
 6322TIP3   OH218929   1.342   2.112   4.247 -0.4560 -0.1211 -0.1011
 6322TIP3    H118930   1.343   2.034   4.303 -3.3187  0.7367  1.3273
 6322TIP3    H218931   1.267   2.099   4.189 -0.6933  1.3350 -0.1600
 6323TIP3   OH218932   5.293   4.226   0.771 -0.0380 -0.3425 -0.2116
 6323TIP3    H118933   5.263   4.304   0.723 -0.5610 -0.3230  0.1355
 6323TIP3    H218934   5.349   4.260   0.840 -1.6011 -0.1060  0.9940
 6324TIP3   OH218935   3.622   6.103   3.789  0.4501  0.0839  0.3551
 6324TIP3    H118936   3.619   6.186   3.742 -0.4043  0.2754  0.7202
 6324TIP3    H218937   3.561   6.047   3.742  0.5264 -0.1270  0.5066
 6325TIP3   OH218938   5.475   0.678   5.024 -0.1867  0.2237  0.0323
 6325TIP3    H118939   5.473   0.713   5.113 -0.6943  1.4844 -0.4511
 6325TIP3    H218940   5.478   0.756   4.968  0.7965 -0.5549 -1.0417
 6326TIP3   OH218941   1.051   0.635   2.855  0.3958  0.2993 -0.6010
 6326TIP3    H118942   1.029   0.557   2.907 -2.4739  2.1068  1.2035
 6326TIP3    H218943   1.144   0.623   2.833  0.2550 -3.2997  0.0535
 6327TIP3   OH218944   4.718   2.350   0.234 -0.9994  0.4801  0.0750
 6327TIP3    H118945   4.658   2.276   0.228  0.5162 -0.8075 -0.0535
 6327TIP3    H218946   4.742   2.353   0.327  0.7115 -0.7271 -0.2825
 6328TIP3   OH218947   2.891   2.098   4.576 -0.0954  0.3619  0.0147
 6328TIP3    H118948   2.801   2.130   4.565  0.2345  1.3613  0.1739
 6328TIP3    H218949   2.936   2.124   4.496  0.7136  2.1897  1.0125
 6329TIP3   OH218950   3.417   5.272   4.183 -0.1983  0.0579 -0.6191
 6329TIP3    H118951   3.419   5.203   4.117  0.3517  0.5862 -1.1648
 6329TIP3    H218952   3.374   5.346   4.139 -1.9399 -0.3236  0.3572
 6330TIP3   OH218953   1.427   2.057   3.029  0.2552 -0.2566  0.3722
 6330TIP3    H118954   1.354   1.995   3.028  0.4388 -0.4924 -1.1383
 6330TIP3    H218955   1.451   2.067   2.937 -0.5374  2.9636  0.3869
 6331TIP3   OH218956   5.188   5.841   2.013  0.5837  0.2068  0.1872
 6331TIP3    H118957   5.228   5.774   2.069  2.1229  1.4103  0.6180
 6331TIP3    H218958   5.233   5.922   2.037  0.6795  0.9373 -2.1586
 6332TIP3   OH218959   2.895   4.795   1.128  0.2030 -0.1111  0.4000
 6332TIP3    H118960   2.944   4.777   1.209  0.4263  0.0411  0.3014
 6332TIP3    H218961   2.804   4.804   1.157 -0.0974 -2.3445  0.3211
 6333TIP3   OH218962   3.440   4.201   1.266 -0.1926 -0.2174  0.1016
 6333TIP3    H118963   3.358   4.213   1.312  0.8155  0.5717  1.7859
 6333TIP3    H218964   3.487   4.135   1.317 -0.6270 -2.4025 -2.1112
 6334TIP3   OH218965   1.767   1.915   0.986  0.0356 -0.5458 -0.3997
 6334TIP3    H118966   1.673   1.933   0.986  0.4541  2.0981 -1.3775
 6334TIP3    H218967   1.785   1.880   0.899 -0.0534 -1.2841 -0.1293
 6335TIP3   OH218968   2.908   4.291   4.654  0.1924  0.0701 -0.0992
 6335TIP3    H118969   2.848   4.221   4.630 -2.0730  2.1284 -0.8153
 6335TIP3    H218970   2.985   4.246   4.690 -0.7413 -2.7576 -1.4043
 6336TIP3   OH218971   1.218   3.530   4.096 -0.1222 -0.3193 -0.2189
 6336TIP3    H118972   1.303   3.550   4.056 -0.2407  2.1739  0.5649
 6336TIP3    H218973   1.199   3.440   4.071  2.2664 -0.5841 -1.2774
 6337TIP3   OH218974   5.717   6.742   5.608  0.1416  0.1501  0.3275
 6337TIP3    H118975   5.637   6.774   5.567  0.1297  0.4489  0.5823
 6337TIP3    H218976   5.727   6.795   5.687 -0.2767 -0.9774  1.1608
 6338TIP3   OH218977   4.566   1.395   4.316  0.5694 -0.6215 -0.5306
 6338TIP3    H118978   4.629   1.366   4.251  0.2701 -0.5199 -0.8676
 6338TIP3    H218979   4.520   1.315   4.343 -0.5089 -0.4471 -1.7253
 6339TIP3   OH218980   1.136   4.287   4.751 -0.2843 -0.3123 -0.3188
 6339TIP3    H118981   1.075   4.249   4.814 -1.1347  0.4917 -0.6360
 6339TIP3    H218982   1.191   4.345   4.804  0.0683 -0.8766 -0.0640
 6340TIP3   OH218983   4.472   5.876   2.832  0.2226 -0.0523 -0.0814
 6340TIP3    H118984   4.381   5.896   2.854  0.4180 -0.7099  1.4700
 6340TIP3    H218985   4.516   5.961   2.832  0.4987 -0.0181  3.7851
 6341TIP3   OH218986   0.209   5.845   4.308 -0.6532 -0.1836 -0.3479
 6341TIP3    H118987   0.255   5.896   4.241  3.9509 -0.4359  2.1813
 6341TIP3    H218988   0.237   5.755   4.294 -0.2562 -0.3615  1.3332
 6342TIP3   OH218989   5.541   4.320   0.547  0.0764  0.4439  0.0819
 6342TIP3    H118990   5.617   4.295   0.599  0.3199 -0.0030 -0.4912
 6342TIP3    H218991   5.558   4.411   0.522  0.9235  0.0143 -0.9331
 6343TIP3   OH218992   4.543   2.404   1.199 -0.2189  0.1569 -0.3877
 6343TIP3    H118993   4.474   2.339   1.215  0.0713 -1.1672 -3.6711
 6343TIP3    H218994   4.503   2.466   1.137  0.1072  2.1923  1.3202
 6344TIP3   OH218995   6.118   2.300   1.386  0.5919  0.0749  0.2966
 6344TIP3    H118996   6.167   2.367   1.337 -1.6003  0.2672 -1.8483
 6344TIP3    H218997   6.060   2.261   1.320 -0.2928 -1.8868  2.1501
 6345TIP3   OH218998   3.353   5.042   4.476  0.1103  0.4566 -0.0239
 6345TIP3    H118999   3.348   5.128   4.435 -1.6819 -0.4178 -1.8249
 6345TIP3    H219000   3.398   4.987   4.412  0.6340 -0.1164  0.8151
 6346TIP3   OH219001   2.824   6.499   4.495  0.3930  0.0543 -0.2749
 6346TIP3    H119002   2.748   6.532   4.447  0.3643 -0.7462 -0.7968
 6346TIP3    H219003   2.879   6.458   4.428  1.5304  1.0447  0.0182
 6347TIP3   OH219004   2.047   5.297   2.963 -0.3241  0.4230 -0.5286
 6347TIP3    H119005   2.041   5.256   3.049 -0.0667  2.5008  0.5412
 6347TIP3    H219006   2.141   5.298   2.943  0.1988  4.0800  1.3973
 6348TIP3   OH219007   5.629   3.142   0.510  0.2216 -0.2950 -0.0573
 6348TIP3    H119008   5.604   3.173   0.423  1.6374 -1.4607 -0.9354
 6348TIP3    H219009   5.547   3.137   0.559 -0.3238  2.5916 -0.5481
 6349TIP3   OH219010   3.455   5.676   2.080 -0.0686 -0.6701 -0.1946
 6349TIP3    H119011   3.469   5.665   2.174 -0.0099  0.0600 -0.1145
 6349TIP3    H219012   3.394   5.606   2.057  0.5784 -1.3933  0.2144
 6350TIP3   OH219013   5.060   2.486   3.365  0.4801  0.2858  0.5569
 6350TIP3    H119014   4.983   2.452   3.411  0.6413  1.4907  1.8015
 6350TIP3    H219015   5.091   2.557   3.421  2.9419 -0.6269  0.4839
 6351TIP3   OH219016   4.557   3.580   5.030  0.2920  0.1175  0.1941
 6351TIP3    H119017   4.647   3.553   5.013 -0.0746 -0.7217 -0.4858
 6351TIP3    H219018   4.535   3.541   5.114  0.1824 -0.6873 -0.1959
 6352TIP3   OH219019   5.984   1.948   1.283 -0.1161  0.6250 -0.3075
 6352TIP3    H119020   6.068   1.920   1.318 -0.2547 -0.2352 -0.6279
 6352TIP3    H219021   6.006   2.008   1.212  0.2310  0.5564 -0.2578
 6353TIP3   OH219022   1.693   6.198   2.323  0.5951  0.4277  0.2923
 6353TIP3    H119023   1.750   6.271   2.300  1.7992 -0.5383  0.0475
 6353TIP3    H219024   1.699   6.138   2.248 -1.5507  0.7304 -0.1707
 6354TIP3   OH219025   4.542   3.383   5.233  0.5118 -0.0807 -0.2343
 6354TIP3    H119026   4.467   3.380   5.293  1.4759  0.0791  1.0246
 6354TIP3    H219027   4.600   3.314   5.264  0.7224 -0.4589 -1.4404
 6355TIP3   OH219028   0.950   2.259   3.088  0.3090  0.3240  0.1568
 6355TIP3    H119029   0.877   2.319   3.109  0.0676  0.1842 -0.2785
 6355TIP3    H219030   0.954   2.259   2.993 -0.0006 -0.7220  0.1364
 6356TIP3   OH219031   5.899   3.320   4.786 -0.2126  0.5780 -0.2246
 6356TIP3    H119032   5.913   3.302   4.693 -0.1731  1.1556 -0.3318
 6356TIP3    H219033   5.962   3.264   4.831 -2.6298 -2.5133 -0.3423
 6357TIP3   OH219034   1.723   0.977   4.587  0.0822 -0.0803  0.5567
 6357TIP3    H119035   1.756   0.906   4.641  0.1415  0.0181  0.6492
 6357TIP3    H219036   1.738   1.056   4.638  1.2780  0.1519 -0.1222
 6358TIP3   OH219037   1.619   5.896   3.064  0.1256  0.3695 -0.4928
 6358TIP3    H119038   1.543   5.951   3.083 -0.1028 -0.2706  0.5093
 6358TIP3    H219039   1.584   5.808   3.055  0.8508 -0.0865  0.9384
 6359TIP3   OH219040   2.996   1.147   1.484 -0.0599 -0.4046 -0.0252
 6359TIP3    H119041   2.928   1.132   1.419 -0.2575 -1.1112  0.3327
 6359TIP3    H219042   3.078   1.132   1.436 -0.1179  0.9875 -0.5939
 6360TIP3   OH219043   4.284   2.006   4.123 -0.3632 -0.0403 -0.3450
 6360TIP3    H119044   4.260   2.088   4.080  1.4171 -0.1280 -1.6008
 6360TIP3    H219045   4.377   2.016   4.142  0.1863 -2.2328 -1.6121
 6361TIP3   OH219046   3.134   5.697   1.046  0.1038  0.0700 -0.3263
 6361TIP3    H119047   3.224   5.697   1.077  0.0931  1.3711 -0.2560
 6361TIP3    H219048   3.141   5.716   0.952 -0.1476  1.3881 -0.0933
 6362TIP3   OH219049   2.465   6.727   0.600 -0.5408 -0.1077  0.5546
 6362TIP3    H119050   2.412   6.648   0.597 -0.5187 -0.1033  0.0906
 6362TIP3    H219051   2.406   6.794   0.636 -0.7489 -0.1858  0.3597
 6363TIP3   OH219052   4.859   3.799   2.818 -0.6796  0.2699  0.4610
 6363TIP3    H119053   4.773   3.764   2.794 -0.4502 -0.4884  0.7104
 6363TIP3    H219054   4.921   3.731   2.793 -0.0276  1.2619 -0.7269
 6364TIP3   OH219055   5.298   0.390   4.894  0.0085  0.3945 -0.0004
 6364TIP3    H119056   5.289   0.402   4.989  2.2177 -0.7054  0.4215
 6364TIP3    H219057   5.248   0.310   4.876  0.3483  0.0843  0.4101
 6365TIP3   OH219058   0.381   4.513   5.144  0.6478 -0.3011  0.6346
 6365TIP3    H119059   0.330   4.586   5.181  1.7236  0.4861  0.6255
 6365TIP3    H219060   0.460   4.510   5.198  1.7633  0.1661 -0.8996
 6366TIP3   OH219061   3.849   3.190   2.719 -0.5839  0.0388  0.4345
 6366TIP3    H119062   3.757   3.169   2.709 -0.2706 -1.1156 -0.0716
 6366TIP3    H219063   3.896   3.109   2.699  0.5529  0.6511  0.4994
 6367TIP3   OH219064   6.751   1.487   2.866  0.6375  0.4765 -0.1248
 6367TIP3    H119065   6.669   1.528   2.893  0.3491 -1.0560  1.4888
 6367TIP3    H219066   6.819   1.550   2.892  0.1116  0.6734  0.8310
 6368TIP3   OH219067   1.595   3.523   5.818  0.6583 -0.0841 -0.1454
 6368TIP3    H119068   1.615   3.439   5.859  0.1387 -0.2162 -0.1669
 6368TIP3    H219069   1.664   3.534   5.753  1.9590  0.4950  1.2625
 6369TIP3   OH219070   2.072   0.241   1.793 -0.4724 -0.1581 -0.3827
 6369TIP3    H119071   2.147   0.236   1.734 -1.1980  0.4310 -1.3732
 6369TIP3    H219072   2.089   0.173   1.859 -0.6792 -2.3300 -2.4515
 6370TIP3   OH219073   2.683   2.660   1.066 -0.2319  0.4683  0.0403
 6370TIP3    H119074   2.623   2.624   1.000  0.9834  0.9649 -1.3896
 6370TIP3    H219075   2.748   2.591   1.079 -1.1088 -0.1235  1.6901
 6371TIP3   OH219076   0.949   2.157   0.257 -0.0842 -0.6783 -0.1987
 6371TIP3    H119077   0.960   2.176   0.350  0.7681  1.8115 -0.7507
 6371TIP3    H219078   0.920   2.239   0.218 -0.2382 -1.6024 -2.1919
 6372TIP3   OH219079   4.703   2.026   5.491 -0.0201  0.2601 -0.0163
 6372TIP3    H119080   4.678   1.973   5.567  0.8312 -0.0622  0.0449
 6372TIP3    H219081   4.679   1.971   5.415  0.2051  0.0858  0.0375
 6373TIP3   OH219082   1.181   5.292   1.017 -0.2288 -0.0878 -0.0144
 6373TIP3    H119083   1.094   5.259   1.040  0.3405 -0.3602  1.9751
 6373TIP3    H219084   1.174   5.318   0.926 -2.3942 -0.1046  0.1027
 6374TIP3   OH219085   2.265   3.468   5.403  0.0142  0.6150 -0.8030
 6374TIP3    H119086   2.324   3.474   5.478 -1.3300 -0.3728  0.3800
 6374TIP3    H219087   2.303   3.398   5.349  1.9399  2.4675 -1.9981
 6375TIP3   OH219088   6.364   3.896   0.805  0.2053  0.0867  0.0801
 6375TIP3    H119089   6.391   3.928   0.718  2.5055 -0.5913  0.4673
 6375TIP3    H219090   6.279   3.856   0.790  0.0834  0.8876 -1.6611
 6376TIP3   OH219091   1.232   3.707   2.901 -0.0599  0.2393 -0.0005
 6376TIP3    H119092   1.225   3.723   2.995  0.0002  0.2763 -0.0018
 6376TIP3    H219093   1.237   3.795   2.863  0.1818  0.2189 -0.0164
 6377TIP3   OH219094   2.921   1.552   2.869 -0.1346  0.0114 -0.2676
 6377TIP3    H119095   2.950   1.643   2.876 -2.1740  0.5939  1.7157
 6377TIP3    H219096   2.839   1.548   2.918 -0.8465 -2.6160 -1.4301
 6378TIP3   OH219097   5.985   1.700   4.705  0.1903 -0.3017 -0.1778
 6378TIP3    H119098   6.050   1.638   4.737 -0.0594 -0.2749  0.3974
 6378TIP3    H219099   5.948   1.659   4.627  0.7799 -0.3882 -0.4196
 6379TIP3   OH219100   0.319   0.071   1.868  0.3924  0.4662 -0.0471
 6379TIP3    H119101   0.316   0.166   1.881 -2.7128  0.4564 -0.0099
 6379TIP3    H219102   0.307   0.035   1.956  0.8575  0.0417 -0.1586
 6380TIP3   OH219103   1.075   4.353   0.062  0.5713 -0.2160  0.1477
 6380TIP3    H119104   1.114   4.436   0.088 -2.0627  1.4156 -0.7656
 6380TIP3    H219105   1.119   4.288   0.117  1.2712  2.0153  2.4230
 6381TIP3   OH219106   2.233   0.471   0.473  0.3960 -0.0259 -0.2102
 6381TIP3    H119107   2.289   0.441   0.545 -0.0301 -0.6282 -0.1239
 6381TIP3    H219108   2.281   0.545   0.435  1.8738 -1.3036 -0.9573
 6382TIP3   OH219109   6.126   3.904   0.248 -0.3314 -0.1702 -0.1931
 6382TIP3    H119110   6.096   3.991   0.274 -1.2543  0.3775 -2.7978
 6382TIP3    H219111   6.220   3.914   0.234 -0.0134 -0.2144  1.6219
 6383TIP3   OH219112   6.176   5.903   1.228  0.0966  0.3214 -0.4648
 6383TIP3    H119113   6.217   5.989   1.217 -0.8811  0.7859 -0.6141
 6383TIP3    H219114   6.134   5.908   1.314 -1.3172  0.6006 -1.1364
 6384TIP3   OH219115   6.059   3.388   2.050  0.8820  0.1373  0.3497
 6384TIP3    H119116   6.027   3.431   1.970  2.8038 -1.0557 -1.1429
 6384TIP3    H219117   5.984   3.337   2.080 -0.0889  1.1244 -0.2941
 6385TIP3   OH219118   1.537   1.379   1.339 -0.2557  0.1640  0.0132
 6385TIP3    H119119   1.563   1.399   1.250  0.0075  1.2494  0.3254
 6385TIP3    H219120   1.618   1.350   1.382 -0.3473 -0.1903 -0.0492
 6386TIP3   OH219121   0.770   6.350   3.247 -0.5576  0.4148  0.3307
 6386TIP3    H119122   0.715   6.310   3.314 -2.8632  3.0342  0.2141
 6386TIP3    H219123   0.855   6.309   3.258 -2.2825 -3.4223  0.9735
 6387TIP3   OH219124   0.225   2.445   2.819  0.1923  0.2852 -0.0184
 6387TIP3    H119125   0.197   2.357   2.793  0.0529 -0.0152  1.0595
 6387TIP3    H219126   0.310   2.456   2.778  0.1955 -0.3396 -0.2041
 6388TIP3   OH219127   0.188   5.845   5.016  0.1010  0.1961  0.6997
 6388TIP3    H119128   0.227   5.791   5.085  1.1112 -0.5895 -0.4343
 6388TIP3    H219129   0.135   5.783   4.965 -1.1603  0.8950  1.1223
 6389TIP3   OH219130   6.147   3.254   0.495 -0.7665  0.0425  0.4890
 6389TIP3    H119131   6.199   3.283   0.570  0.7069 -1.5776  0.1784
 6389TIP3    H219132   6.194   3.289   0.419 -0.5063 -0.8594  0.2254
 6390TIP3   OH219133   2.150   0.130   5.214  0.3642 -0.1070 -0.0581
 6390TIP3    H119134   2.089   0.077   5.265 -0.4605 -0.1792 -1.0848
 6390TIP3    H219135   2.154   0.087   5.128 -0.1351  1.3397 -0.8324
 6391TIP3   OH219136   6.377   6.431   4.422  0.6491  0.1628  0.3634
 6391TIP3    H119137   6.296   6.479   4.404  0.1885 -1.1460 -1.3038
 6391TIP3    H219138   6.447   6.495   4.408 -0.0644  1.3719  2.0334
 6392TIP3   OH219139   6.263   6.016   0.028  0.0254 -0.1328 -0.1794
 6392TIP3    H119140   6.223   6.097   0.060  0.9286  1.1236 -2.0443
 6392TIP3    H219141   6.337   6.001   0.087  0.2325  0.7604 -0.2061
 6393TIP3   OH219142   5.996   4.289   5.004  0.4943 -0.1995  0.3199
 6393TIP3    H119143   5.985   4.238   5.084  1.2618 -0.2035  0.4314
 6393TIP3    H219144   6.033   4.373   5.034  1.1352 -0.3398 -0.0551
 6394TIP3   OH219145   1.904   0.770   5.701  0.0045  0.1208  0.0508
 6394TIP3    H119146   1.862   0.827   5.636  0.1362  0.6174  0.4046
 6394TIP3    H219147   1.837   0.703   5.720  1.0351 -2.0489 -3.0424
 6395TIP3   OH219148   2.891   6.032   0.042 -0.1107  0.2193  0.0160
 6395TIP3    H119149   2.869   6.104  -0.017  0.4112  0.7422  0.4469
 6395TIP3    H219150   2.863   5.954  -0.004 -0.3634  0.6725 -0.6148
 6396TIP3   OH219151   3.737   4.029   0.764  0.0217  0.3674 -0.1466
 6396TIP3    H119152   3.721   3.936   0.780 -0.8779 -0.2325 -3.6689
 6396TIP3    H219153   3.832   4.035   0.754  0.1217 -0.0858  0.4296
 6397TIP3   OH219154   5.120   6.627   0.074 -0.8383 -0.1573  0.3914
 6397TIP3    H119155   5.175   6.703   0.062  1.5331 -1.9259 -0.6827
 6397TIP3    H219156   5.103   6.624   0.169  0.2943  0.8511  0.6394
 6398TIP3   OH219157   3.155   0.719   4.859 -0.6346  0.1415  0.5808
 6398TIP3    H119158   3.076   0.714   4.912 -0.9136 -0.7654  0.0983
 6398TIP3    H219159   3.134   0.782   4.790 -0.8457  0.1046  0.6111
 6399TIP3   OH219160   6.829   6.132   0.643 -0.2337 -0.3917  0.3297
 6399TIP3    H119161   6.823   6.150   0.737 -0.5533 -0.4686  0.3239
 6399TIP3    H219162   6.907   6.180   0.615 -1.4397  1.6183  0.1814
 6400TIP3   OH219163   6.616   6.479   4.602  0.4713  0.4148  0.2036
 6400TIP3    H119164   6.653   6.502   4.517 -1.2220 -1.5619 -1.1337
 6400TIP3    H219165   6.538   6.534   4.610 -0.0974 -0.3203 -0.1534
 6401TIP3   OH219166   4.395   5.561   1.301  0.4486  0.0139  0.0521
 6401TIP3    H119167   4.440   5.553   1.385 -2.2590 -0.1267  1.6317
 6401TIP3    H219168   4.357   5.649   1.302 -1.3505 -0.7013 -0.0030
 6402TIP3   OH219169   6.451   0.993   0.073 -0.1604 -0.3987  0.1017
 6402TIP3    H119170   6.481   0.908   0.041  0.2643 -0.7120  1.2923
 6402TIP3    H219171   6.520   1.055   0.049 -0.4650 -0.3745 -0.7560
 6403TIP3   OH219172   0.626   0.422   0.228 -0.2601 -0.3482  0.4612
 6403TIP3    H119173   0.716   0.416   0.259  0.1360 -1.8838 -0.8506
 6403TIP3    H219174   0.575   0.375   0.293 -0.1822  0.7230  1.3295
 6404TIP3   OH219175   0.416   4.303   0.897  0.5688  1.1953  0.3082
 6404TIP3    H119176   0.468   4.377   0.864  0.1122  0.0957 -3.2558
 6404TIP3    H219177   0.325   4.332   0.890  0.2722 -0.1379 -2.7688
 6405TIP3   OH219178   4.557   3.424   4.625  0.5805 -0.1339  0.0761
 6405TIP3    H119179   4.488   3.475   4.668  1.8444 -0.5981  2.8724
 6405TIP3    H219180   4.512   3.347   4.590 -0.7189  0.9444 -0.7292
 6406TIP3   OH219181   2.035   4.134   3.080 -0.0755  0.6761 -0.5129
 6406TIP3    H119182   2.003   4.141   2.990  0.9469  2.2339 -0.7782
 6406TIP3    H219183   1.982   4.198   3.129  1.0949  1.6885 -0.5317
 6407TIP3   OH219184   4.570   5.125   0.459  0.3782 -0.6549 -0.5182
 6407TIP3    H119185   4.604   5.184   0.526 -1.5145  1.4090 -1.2441
 6407TIP3    H219186   4.648   5.082   0.423  1.8758  1.4666  0.0156
 6408TIP3   OH219187   2.622   4.919   0.665  0.4134  0.0503 -0.3090
 6408TIP3    H119188   2.699   4.935   0.719 -0.0137  0.9215  0.0605
 6408TIP3    H219189   2.633   4.976   0.589  0.3498 -0.1512 -0.4705
 6409TIP3   OH219190   1.918   1.425   2.875 -0.0913  0.5167  0.0652
 6409TIP3    H119191   1.900   1.434   2.781 -1.9632 -0.3385  0.2930
 6409TIP3    H219192   2.012   1.435   2.882  0.7107 -3.0780 -2.4548
 6410TIP3   OH219193   4.025   1.375   2.200  0.3856 -0.4206  0.2149
 6410TIP3    H119194   4.033   1.288   2.239 -0.9783 -0.7399 -0.1803
 6410TIP3    H219195   3.985   1.360   2.115  1.1804  0.5050 -0.3410
 6411TIP3   OH219196   3.789   3.342   0.474  0.1048 -0.1443 -0.3340
 6411TIP3    H119197   3.852   3.363   0.543 -0.1679 -1.2923  0.2951
 6411TIP3    H219198   3.836   3.355   0.393  0.7611  0.2139  0.0973
 6412TIP3   OH219199   4.439   3.043   1.822  0.8853  0.2033 -0.2055
 6412TIP3    H119200   4.455   3.098   1.744  0.6733 -0.2001 -0.5383
 6412TIP3    H219201   4.390   3.100   1.881  1.8090  0.7978  0.0006
 6413TIP3   OH219202   5.701   0.875   2.789 -0.0708 -0.4442  0.0714
 6413TIP3    H119203   5.703   0.808   2.857  0.0019  0.3580  0.8780
 6413TIP3    H219204   5.621   0.925   2.806  1.6822  1.9980  1.8354
 6414TIP3   OH219205   3.629   3.514   0.242  0.2697 -0.2775  0.0624
 6414TIP3    H119206   3.617   3.574   0.168 -1.0169  0.7563  1.0602
 6414TIP3    H219207   3.651   3.571   0.316 -0.8830 -1.0313  1.0135
 6415TIP3   OH219208   2.331   6.152   0.486 -0.5057  0.0734 -0.5062
 6415TIP3    H119209   2.369   6.228   0.443 -0.3882 -0.0471 -0.6186
 6415TIP3    H219210   2.315   6.090   0.414  3.2323 -1.6914 -0.0513
 6416TIP3   OH219211   3.678   3.887   4.051 -0.1239  0.6033 -0.1485
 6416TIP3    H119212   3.611   3.864   3.986  0.8833 -0.4881 -0.8237
 6416TIP3    H219213   3.633   3.878   4.135 -0.3802 -1.8988 -0.4777
 6417TIP3   OH219214   3.649   5.944   5.235 -0.0388 -0.5066 -0.7693
 6417TIP3    H119215   3.744   5.932   5.239 -0.1304 -1.3175 -0.7819
 6417TIP3    H219216   3.625   5.978   5.321  0.3606  0.5349 -1.0534
 6418TIP3   OH219217   1.423   2.403   2.031 -0.2422  0.8290 -0.0509
 6418TIP3    H119218   1.345   2.420   2.084 -0.1806 -0.4141  0.4554
 6418TIP3    H219219   1.492   2.455   2.073 -0.7413  1.8011 -0.4026
 6419TIP3   OH219220   0.804   3.283   3.279  0.2994 -0.0758  0.0756
 6419TIP3    H119221   0.751   3.205   3.297  0.3586 -0.1645 -0.1306
 6419TIP3    H219222   0.798   3.295   3.184  0.2868  0.1734  0.1084
 6420TIP3   OH219223   0.143   5.376   1.274 -0.5238 -0.1282 -0.2517
 6420TIP3    H119224   0.073   5.364   1.209 -1.0954 -1.3119  0.5349
 6420TIP3    H219225   0.130   5.304   1.336  1.3579 -0.3244 -0.0287
 6421TIP3   OH219226   7.073   0.009   2.903 -0.4910 -0.3881 -0.6363
 6421TIP3    H119227   7.019   0.083   2.876  1.1613  0.5486 -1.6082
 6421TIP3    H219228   7.147   0.011   2.842  0.9786 -1.1587  1.0310
 6422TIP3   OH219229   3.870   0.195   1.970 -0.0033  0.3956 -0.4078
 6422TIP3    H119230   3.795   0.137   1.957 -1.0385  1.6099 -0.0660
 6422TIP3    H219231   3.942   0.137   1.994 -1.4970 -0.6339  1.9417
 6423TIP3   OH219232   6.295   4.205   1.387 -0.2994 -0.5180 -0.0211
 6423TIP3    H119233   6.327   4.292   1.362 -0.9375 -0.1629  0.3531
 6423TIP3    H219234   6.367   4.166   1.436 -0.6428  0.5208  1.3822
 6424TIP3   OH219235   2.164   2.388   2.285 -0.0967 -0.3880 -0.2587
 6424TIP3    H119236   2.083   2.395   2.235 -0.1370  1.2407 -0.0124
 6424TIP3    H219237   2.216   2.464   2.259  0.4264 -0.1998  1.2066
 6425TIP3   OH219238   4.201   1.225   3.661  0.1608 -0.5198 -0.5716
 6425TIP3    H119239   4.266   1.256   3.598  0.7293 -1.5410 -0.5043
 6425TIP3    H219240   4.237   1.143   3.695 -0.6963 -0.5914  0.2075
 6426TIP3   OH219241   6.482   1.972   4.944  0.3093 -0.3670  0.8128
 6426TIP3    H119242   6.537   1.945   4.870 -0.0715 -1.6800  0.9743
 6426TIP3    H219243   6.429   2.043   4.910  1.6487  0.5057  0.4653
 6427TIP3   OH219244   5.353   2.383   4.412  0.0162  0.0186  0.1480
 6427TIP3    H119245   5.301   2.462   4.393 -0.3033 -0.3338 -0.4626
 6427TIP3    H219246   5.318   2.316   4.353  1.1815 -0.2230 -0.2954
 6428TIP3   OH219247   0.759   5.570   0.174 -0.2734 -0.0856  0.1445
 6428TIP3    H119248   0.672   5.611   0.175  0.6617  2.0729  1.0254
 6428TIP3    H219249   0.818   5.639   0.206  1.8349 -1.3383 -0.8062
 6429TIP3   OH219250   0.073   3.828   4.432  0.0721 -0.2206  0.3650
 6429TIP3    H119251   0.148   3.780   4.466 -0.2965 -1.0692  0.0062
 6429TIP3    H219252   0.092   3.920   4.453  1.3061 -0.3907  0.0882
 6430TIP3   OH219253   4.467   1.000   1.638 -0.2378  0.0561 -0.2097
 6430TIP3    H119254   4.527   0.961   1.575 -0.3197 -1.0374  0.3667
 6430TIP3    H219255   4.466   1.093   1.616  0.8255 -0.0824 -0.9061
 6431TIP3   OH219256   3.944   6.282   5.826 -0.6221  0.0590 -0.2185
 6431TIP3    H119257   4.002   6.207   5.809 -1.3901 -0.6073  0.0812
 6431TIP3    H219258   3.991   6.334   5.892  0.3426  0.3497 -1.0941
 6432TIP3   OH219259   6.531   1.084   5.377 -0.3775  0.6312 -0.1010
 6432TIP3    H119260   6.486   1.110   5.457 -0.5409 -0.2157  0.0935
 6432TIP3    H219261   6.474   1.018   5.337  0.1821  0.3219 -0.4033
 6433TIP3   OH219262   3.956   3.817   0.879  0.0432 -0.6791 -0.1425
 6433TIP3    H119263   3.911   3.827   0.963  0.4073 -3.1492  0.4422
 6433TIP3    H219264   4.018   3.890   0.875  1.9852 -1.9291  3.1091
 6434TIP3   OH219265   2.676   6.738   1.958 -0.0815 -0.6994  0.3423
 6434TIP3    H119266   2.656   6.696   2.042 -0.4364 -0.3249  0.4423
 6434TIP3    H219267   2.772   6.741   1.955 -0.0334 -1.8164  0.1889
 6435TIP3   OH219268   6.582   4.299   0.332  0.4743  0.1814  0.1676
 6435TIP3    H119269   6.594   4.390   0.361  0.5710  0.1805  0.1317
 6435TIP3    H219270   6.490   4.293   0.306  0.2321  0.0345  1.0210
 6436TIP3   OH219271   2.364   4.554   2.911  0.2135  0.2534 -0.7849
 6436TIP3    H119272   2.308   4.530   2.837  1.5094  0.6154 -1.9457
 6436TIP3    H219273   2.356   4.482   2.972  1.4984 -1.6557 -2.7112
 6437TIP3   OH219274   4.596   6.428   2.761 -0.0555 -0.1517  0.3272
 6437TIP3    H119275   4.576   6.420   2.667 -1.2010  0.9924  0.4453
 6437TIP3    H219276   4.559   6.350   2.800  0.0323 -0.4190 -0.1139
 6438TIP3   OH219277   6.544   2.203   3.796  0.4293 -0.1949  0.3367
 6438TIP3    H119278   6.592   2.283   3.776 -0.5030  0.3129  0.0915
 6438TIP3    H219279   6.527   2.209   3.890  1.1389 -0.5531  0.4990
 6439TIP3   OH219280   3.248   6.105   3.250  0.2525  0.2978  0.4661
 6439TIP3    H119281   3.255   6.043   3.323 -0.7275  0.1376  0.4441
 6439TIP3    H219282   3.198   6.178   3.286 -0.8068 -0.0761 -0.2145
 6440TIP3   OH219283   5.030   0.013   0.820 -0.1471 -0.4122  0.4545
 6440TIP3    H119284   5.064   0.087   0.770 -0.6411 -0.1034  0.5716
 6440TIP3    H219285   4.966  -0.028   0.761 -2.3448  1.2072  1.5494
 6441TIP3   OH219286   3.181   6.366   0.758  1.0323  0.0089 -0.1480
 6441TIP3    H119287   3.252   6.347   0.820  0.2408  0.3015  0.8862
 6441TIP3    H219288   3.124   6.289   0.763  1.1246 -0.0966 -0.7472
 6442TIP3   OH219289   4.565   6.578   2.466  0.5270 -0.2693  0.1898
 6442TIP3    H119290   4.481   6.534   2.454  0.0607  0.6401  0.0224
 6442TIP3    H219291   4.542   6.669   2.487  1.4649 -0.0279  0.2221
 6443TIP3   OH219292   0.767   4.683   4.740 -0.0685  0.0293 -0.3025
 6443TIP3    H119293   0.713   4.760   4.758 -1.2485 -0.7192 -0.5084
 6443TIP3    H219294   0.853   4.718   4.716 -0.6623  1.2847 -0.6704
 6444TIP3   OH219295   0.078   6.377   5.508 -0.9103 -0.4868 -0.1172
 6444TIP3    H119296   0.004   6.316   5.508  0.1428 -1.8296  0.3491
 6444TIP3    H219297   0.141   6.337   5.568  1.0166 -0.4252 -1.9869
 6445TIP3   OH219298   5.053   2.443   1.205  0.3160 -0.1000 -0.2921
 6445TIP3    H119299   5.009   2.482   1.281  1.4446 -0.4046  0.5546
 6445TIP3    H219300   5.077   2.517   1.150  0.1822  0.1909  0.0371
 6446TIP3   OH219301   5.527   6.402   4.413  0.4218 -0.2396  0.5887
 6446TIP3    H119302   5.432   6.398   4.418  0.4457 -1.7119  0.5238
 6446TIP3    H219303   5.556   6.415   4.503  0.1923 -2.2624  1.0079
 6447TIP3   OH219304   3.064   3.395   0.518  0.5360 -0.2542  1.1758
 6447TIP3    H119305   3.140   3.384   0.461 -0.6769 -0.0449 -0.5539
 6447TIP3    H219306   3.070   3.323   0.580  0.6108 -2.0026 -0.7513
 6448TIP3   OH219307   0.776   0.571   4.600  0.4209  0.5056 -0.5280
 6448TIP3    H119308   0.768   0.618   4.518  0.9549 -0.3150 -1.0666
 6448TIP3    H219309   0.848   0.613   4.646  0.6790  0.4200 -0.8578
 6449TIP3   OH219310   6.040   5.832   5.757  0.1418  0.0472  0.0639
 6449TIP3    H119311   6.113   5.770   5.759 -0.0121 -0.1081  1.2277
 6449TIP3    H219312   5.963   5.779   5.775 -0.1599  0.3669 -0.2652
 6450TIP3   OH219313   4.423   4.539   4.272  0.5725 -0.1510 -0.5372
 6450TIP3    H119314   4.504   4.496   4.245  2.1882  3.4614 -1.9687
 6450TIP3    H219315   4.452   4.616   4.321 -2.0096  1.2327 -1.0437
 6451TIP3   OH219316   6.847   6.359   2.729  0.1334  0.2966  0.1127
 6451TIP3    H119317   6.862   6.439   2.679  0.7040 -0.0326 -0.2585
 6451TIP3    H219318   6.758   6.369   2.764 -0.0763  0.7747 -0.5260
 6452TIP3   OH219319   0.636   3.460   1.324 -0.1337  0.8280 -0.1068
 6452TIP3    H119320   0.667   3.525   1.387  2.2412 -0.6028  0.3558
 6452TIP3    H219321   0.710   3.448   1.264 -0.5726 -1.2138 -0.3087
 6453TIP3   OH219322   4.245   3.192   3.445 -0.4653  0.5926 -0.0630
 6453TIP3    H119323   4.163   3.160   3.483 -0.7652 -2.1920 -2.6678
 6453TIP3    H219324   4.255   3.281   3.479 -2.7547 -0.1821  3.0275
 6454TIP3   OH219325   4.970   4.144   4.948  0.0467  0.6155  0.3973
 6454TIP3    H119326   5.048   4.156   5.002  1.3954  2.1800 -1.7116
 6454TIP3    H219327   4.948   4.052   4.958  2.5243 -0.0372  0.6838
 6455TIP3   OH219328   0.959   3.346   2.327  0.7308  0.0185  0.1023
 6455TIP3    H119329   1.035   3.297   2.297 -0.5499 -1.3142 -1.1414
 6455TIP3    H219330   0.924   3.295   2.401  0.3288 -0.0751 -0.1468
 6456TIP3   OH219331   2.909   6.265   1.026  0.4288 -0.3870  0.1599
 6456TIP3    H119332   2.918   6.181   1.071 -2.3524  0.4863  2.6725
 6456TIP3    H219333   2.979   6.319   1.063  0.5229 -0.7941  0.5910
 6457TIP3   OH219334   6.830   3.991   4.327  0.2094 -0.9310  0.9001
 6457TIP3    H119335   6.833   4.018   4.419 -0.1802 -0.3744  0.7567
 6457TIP3    H219336   6.919   4.005   4.295  0.3695 -1.2169  1.2165
 6458TIP3   OH219337   4.405   0.003   4.023 -0.2517  0.0330  0.2716
 6458TIP3    H119338   4.385  -0.017   4.115  0.0042  0.0944  0.3425
 6458TIP3    H219339   4.419   0.097   4.022  0.2757 -0.0444  0.2710
 6459TIP3   OH219340   3.858   5.215   1.617 -0.4058  0.2413  0.5520
 6459TIP3    H119341   3.894   5.256   1.696 -1.1169  0.9668  0.5046
 6459TIP3    H219342   3.796   5.278   1.583  1.5647  1.0059 -1.9303
 6460TIP3   OH219343   5.658   6.772   3.394  0.0802 -0.6573 -0.3791
 6460TIP3    H119344   5.593   6.764   3.465 -0.5844 -0.0302 -0.8992
 6460TIP3    H219345   5.739   6.739   3.432 -0.1710  0.0169  0.8127
 6461TIP3   OH219346   0.464   0.634   0.150  0.1057 -0.6624  0.2447
 6461TIP3    H119347   0.411   0.621   0.071  0.7510  1.0948 -0.5170
 6461TIP3    H219348   0.528   0.563   0.148 -0.7323 -1.4204 -0.0853
 6462TIP3   OH219349   3.980   6.536   4.215 -0.1070 -0.1378  0.5395
 6462TIP3    H119350   3.950   6.514   4.303 -0.1450  0.2757  0.6313
 6462TIP3    H219351   4.062   6.487   4.205  0.0528  0.0445  0.9186
 6463TIP3   OH219352   6.442   6.587   2.865  0.0155 -0.4822 -0.3360
 6463TIP3    H119353   6.495   6.524   2.816  0.7658 -0.4933  0.4712
 6463TIP3    H219354   6.409   6.647   2.798  0.0205 -1.2105 -1.0029
 6464TIP3   OH219355   3.977   4.486   5.032  0.2755 -0.0927 -0.1530
 6464TIP3    H119356   3.932   4.412   4.992 -0.5032  0.9562 -1.2765
 6464TIP3    H219357   4.069   4.461   5.034  0.3682 -0.1772 -2.6935
 6465TIP3   OH219358   1.860   1.544   5.178 -0.1096 -0.1766 -0.4238
 6465TIP3    H119359   1.820   1.631   5.180  1.8588  0.8138 -1.2455
 6465TIP3    H219360   1.810   1.497   5.111  0.3374  1.1964 -1.7977
 6466TIP3   OH219361   1.647   4.462   4.386 -0.3012  0.4176  0.5174
 6466TIP3    H119362   1.579   4.431   4.327  1.1103 -1.5296 -0.1925
 6466TIP3    H219363   1.708   4.509   4.330 -0.0004  0.3521  0.7845
 6467TIP3   OH219364   4.041   3.553   2.582 -0.0485 -0.4572 -0.0648
 6467TIP3    H119365   3.985   3.484   2.546  2.6056 -1.7003 -2.2253
 6467TIP3    H219366   4.029   3.546   2.677 -0.1336 -3.8034 -0.1782
 6468TIP3   OH219367   0.943   3.256   1.307  0.1514 -0.2167  0.3582
 6468TIP3    H119368   1.008   3.312   1.264 -0.6206  0.9975  0.7231
 6468TIP3    H219369   0.882   3.233   1.237  1.2113 -1.7993 -0.1074
 6469TIP3   OH219370   7.144   4.700   1.205  0.6870  0.2568 -0.2070
 6469TIP3    H119371   7.139   4.606   1.223 -0.8881  0.5743  1.2750
 6469TIP3    H219372   7.086   4.740   1.269 -0.6087  2.0600 -2.3498
 6470TIP3   OH219373   3.518   4.801   3.535 -0.5442 -0.3917 -0.4542
 6470TIP3    H119374   3.524   4.890   3.569  0.2896  0.0598 -1.7162
 6470TIP3    H219375   3.492   4.813   3.443  1.2406 -1.3515 -1.1180
 6471TIP3   OH219376   4.838   6.636   3.824  0.0054 -0.4309  0.5395
 6471TIP3    H119377   4.891   6.661   3.899  1.4147  1.0711 -0.8759
 6471TIP3    H219378   4.765   6.698   3.823  0.0157 -0.4180  0.6090
 6472TIP3   OH219379   1.547   3.543   1.753 -0.3363  0.2345  0.1972
 6472TIP3    H119380   1.500   3.491   1.818 -1.1776 -0.1009 -0.6615
 6472TIP3    H219381   1.599   3.605   1.805 -0.0924 -0.7849  1.2107
 6473TIP3   OH219382   0.274   3.490   4.014  0.4437 -0.7119 -0.1628
 6473TIP3    H119383   0.283   3.563   4.075 -1.9070  0.0350 -0.6097
 6473TIP3    H219384   0.358   3.444   4.019  1.2485  0.8216  1.6562
 6474TIP3   OH219385   1.071   6.040   0.721  0.0628 -0.0591 -0.4342
 6474TIP3    H119386   1.049   5.947   0.713 -1.2119 -0.0143  1.7597
 6474TIP3    H219387   0.988   6.085   0.706  0.4838  0.6737 -0.5702
 6475TIP3   OH219388   4.396   3.066   5.183 -0.0111  0.2407 -0.3077
 6475TIP3    H119389   4.451   3.064   5.262  1.4884  2.2001 -1.2260
 6475TIP3    H219390   4.426   2.991   5.131  2.7250  1.8758 -1.3024
 6476TIP3   OH219391   6.081   5.680   0.084  0.0761  0.5808  0.2615
 6476TIP3    H119392   6.162   5.674   0.033 -1.2959  0.1369 -1.9934
 6476TIP3    H219393   6.048   5.769   0.067 -1.1205 -0.0460 -0.8556
 6477TIP3   OH219394   5.385   0.543   2.216  0.0200 -0.0083 -0.9169
 6477TIP3    H119395   5.293   0.543   2.187 -0.5427  0.8041  0.6944
 6477TIP3    H219396   5.412   0.452   2.209 -1.2362 -0.4423 -0.5388
 6478TIP3   OH219397   2.340   3.025   0.790  0.0123 -0.0466 -0.0652
 6478TIP3    H119398   2.322   2.946   0.840  1.2136 -0.9169 -0.9468
 6478TIP3    H219399   2.436   3.032   0.789  0.0210  0.0941 -1.9738
 6479TIP3   OH219400   0.836   1.775   3.082 -0.1100 -0.2887 -0.1965
 6479TIP3    H119401   0.927   1.748   3.089  0.7843  2.1499 -1.3509
 6479TIP3    H219402   0.827   1.847   3.144 -1.4847 -0.9363  0.4133
 6480TIP3   OH219403   2.424   4.031   4.568  0.0157  0.1214 -0.0931
 6480TIP3    H119404   2.346   4.034   4.514  1.1339  1.9860 -1.7620
 6480TIP3    H219405   2.473   3.955   4.537 -0.9262 -0.8787  0.7634
 6481TIP3   OH219406   6.294   1.892   4.413  0.2047  0.0827  0.3562
 6481TIP3    H119407   6.224   1.853   4.361  0.7192 -0.2825 -0.0658
 6481TIP3    H219408   6.341   1.948   4.351 -0.0518  0.7786  0.7726
 6482TIP3   OH219409   1.226   1.353   2.018 -0.2704  0.5940 -0.6906
 6482TIP3    H119410   1.271   1.393   1.944 -2.1347  0.2008 -2.0946
 6482TIP3    H219411   1.181   1.277   1.981 -1.4934  0.5606  0.7788
 6483TIP3   OH219412   1.189   0.446   3.468 -0.3605 -0.2623 -0.5949
 6483TIP3    H119413   1.266   0.502   3.455 -0.1413 -0.5968 -0.7618
 6483TIP3    H219414   1.119   0.507   3.492  0.5366 -0.1248  2.1285
 6484TIP3   OH219415   4.659   0.413   3.401 -0.3297  0.2089  0.2777
 6484TIP3    H119416   4.659   0.507   3.420  0.4898 -0.1451  2.2723
 6484TIP3    H219417   4.631   0.372   3.483 -0.1879 -1.3079 -0.4063
 6485TIP3   OH219418   4.157   4.157   3.030  0.2007  0.1071 -0.3089
 6485TIP3    H119419   4.253   4.159   3.023  0.3373  2.3164  0.9782
 6485TIP3    H219420   4.140   4.175   3.123 -1.4635 -0.3275 -0.5016
 6486TIP3   OH219421   5.421   3.401   2.100 -0.4256 -0.1251  0.0483
 6486TIP3    H119422   5.359   3.331   2.081  1.7737 -1.8755 -1.1356
 6486TIP3    H219423   5.398   3.471   2.040 -0.1044 -1.5097 -1.7738
 6487TIP3   OH219424   0.781   3.371   0.254 -0.5286 -0.2138  0.8117
 6487TIP3    H119425   0.855   3.310   0.252 -0.0959  0.3087  0.8058
 6487TIP3    H219426   0.821   3.457   0.247 -1.1437  0.0712  0.7909
 6488TIP3   OH219427   4.095   4.344   0.277 -0.3603  0.3451  0.3878
 6488TIP3    H119428   4.087   4.248   0.281  0.0207  0.2860 -0.1521
 6488TIP3    H219429   4.010   4.376   0.305 -0.5537 -0.1580  0.3923
 6489TIP3   OH219430   2.679   3.742   1.352  0.1895  0.3514  0.5590
 6489TIP3    H119431   2.664   3.757   1.445  2.4784  1.2963  0.8369
 6489TIP3    H219432   2.667   3.648   1.340  1.8749 -0.1386  2.2671
 6490TIP3   OH219433   0.251   1.745   5.569 -0.5592 -0.0258  0.0628
 6490TIP3    H119434   0.195   1.813   5.530 -0.1025 -0.6962 -1.8668
 6490TIP3    H219435   0.318   1.729   5.503  0.1038 -1.4388  1.0342
 6491TIP3   OH219436   4.799   2.853   3.972 -0.1016  1.3223  0.3251
 6491TIP3    H119437   4.840   2.824   4.054  0.7547  0.4782 -0.3877
 6491TIP3    H219438   4.723   2.903   4.001  0.4257  1.4121  1.6503
 6492TIP3   OH219439   6.128   2.990   0.644 -0.5464 -0.0749  0.5031
 6492TIP3    H119440   6.170   3.076   0.643  1.7431 -1.0393  2.5825
 6492TIP3    H219441   6.136   2.958   0.554  0.4100  1.0629  0.1643
 6493TIP3   OH219442   5.093   1.239   5.786  0.1238 -0.8001 -0.0096
 6493TIP3    H119443   5.175   1.218   5.831 -0.7416 -0.8895  1.6031
 6493TIP3    H219444   5.025   1.199   5.840 -1.3388  2.9638  1.2355
 6494TIP3   OH219445   7.002   1.626   3.397 -0.5525  0.1900  0.6695
 6494TIP3    H119446   6.980   1.682   3.471 -1.9377  2.0311 -1.0394
 6494TIP3    H219447   6.922   1.624   3.344  1.0730  0.9159 -1.9749
 6495TIP3   OH219448   6.077   2.764   0.000  0.6823  0.3936  0.1843
 6495TIP3    H119449   5.984   2.769   0.022  0.7395  0.2858  0.4532
 6495TIP3    H219450   6.110   2.853   0.012  0.6948  0.3540  0.4603
 6496TIP3   OH219451   1.614   2.368  -0.031 -0.2887  0.5806 -0.4543
 6496TIP3    H119452   1.648   2.438   0.025 -1.3256  0.9263 -0.2231
 6496TIP3    H219453   1.617   2.290   0.023  0.4595  0.5332 -0.5595
 6497TIP3   OH219454   5.963   5.478   2.767 -0.9142  0.3809  0.2747
 6497TIP3    H119455   6.015   5.559   2.771 -1.5486  0.8418 -0.4521
 6497TIP3    H219456   5.890   5.494   2.826  0.0520 -0.5139  1.7918
 6498TIP3   OH219457   7.079   6.776   1.061  0.1683  0.2854  0.6195
 6498TIP3    H119458   7.034   6.858   1.043 -1.7837 -0.3799  2.1667
 6498TIP3    H219459   7.023   6.708   1.022  0.9759 -0.4371  0.6655
 6499TIP3   OH219460   2.431   5.596   5.534  0.2113 -0.1409  0.1354
 6499TIP3    H119461   2.377   5.560   5.604  1.2693  0.4886  1.3057
 6499TIP3    H219462   2.410   5.543   5.458 -0.3936 -1.3438  1.1156
 6500TIP3   OH219463   6.614   5.513   1.241  0.2114  0.0855 -0.4573
 6500TIP3    H119464   6.592   5.467   1.321 -1.0577  0.0855 -0.7844
 6500TIP3    H219465   6.562   5.470   1.173 -0.1720  1.2763 -0.9471
 6501TIP3   OH219466   1.557   1.453   3.842 -0.1988 -0.4620  0.1620
 6501TIP3    H119467   1.616   1.516   3.800  0.1553 -0.4337  0.6997
 6501TIP3    H219468   1.519   1.501   3.916 -1.2458 -0.3311 -0.4373
 6502TIP3   OH219469   5.137   0.178   4.863 -0.1042  0.2855  0.3345
 6502TIP3    H119470   5.152   0.098   4.813  0.8737  0.6978 -0.0650
 6502TIP3    H219471   5.072   0.154   4.928 -1.8127 -0.1343 -1.4425
 6503TIP3   OH219472   1.395   3.435   1.388 -0.4013 -0.5255  0.0801
 6503TIP3    H119473   1.409   3.529   1.374  1.6156 -1.2188 -4.1531
 6503TIP3    H219474   1.472   3.407   1.438 -1.3705  0.0807  2.0085
 6504TIP3   OH219475   4.007   0.182   2.328 -0.0211 -0.5482  0.4784
 6504TIP3    H119476   4.027   0.114   2.392  0.4369 -0.5958  0.2937
 6504TIP3    H219477   4.033   0.144   2.244  2.3073  0.6070  0.5829
 6505TIP3   OH219478   1.852   0.292   3.416  0.3220 -0.4230 -0.3346
 6505TIP3    H119479   1.853   0.386   3.401  2.2589 -0.5630 -1.3076
 6505TIP3    H219480   1.824   0.282   3.507 -0.4082  1.0376 -0.3784
 6506TIP3   OH219481   6.185   5.765   0.913 -0.0438  0.1861 -0.2234
 6506TIP3    H119482   6.177   5.860   0.922 -2.4475 -0.1492  2.2642
 6506TIP3    H219483   6.096   5.735   0.892 -0.0601 -1.7243  2.1549
 6507TIP3   OH219484   0.657   1.358   4.053 -0.0827  0.2066  0.0583
 6507TIP3    H119485   0.623   1.294   4.116  1.7484 -1.3042 -0.4054
 6507TIP3    H219486   0.743   1.324   4.028  0.0265  1.7312 -1.8614
 6508TIP3   OH219487   2.023   0.093   5.878  0.4327  0.3983 -0.1117
 6508TIP3    H119488   2.003   0.021   5.938 -0.0159  0.5577 -0.0651
 6508TIP3    H219489   2.040   0.050   5.794 -0.8730  0.2884 -0.3453
 6509TIP3   OH219490   5.769   3.392   1.861 -0.5990 -0.1928  0.3512
 6509TIP3    H119491   5.737   3.470   1.907 -0.4396  0.0937 -0.0232
 6509TIP3    H219492   5.844   3.423   1.810 -2.7023  0.2389 -2.7246
 6510TIP3   OH219493   2.742   5.322   5.310  0.1176  0.1203 -0.3054
 6510TIP3    H119494   2.779   5.264   5.243  0.9195 -0.2304  0.4324
 6510TIP3    H219495   2.668   5.365   5.266 -1.4009 -2.4662 -0.5095
 6511TIP3   OH219496   7.126   5.253   2.901 -0.2929  0.0843  0.5062
 6511TIP3    H119497   7.196   5.188   2.896  0.3622  0.8077  0.0760
 6511TIP3    H219498   7.171   5.337   2.890 -1.5800  0.4496 -3.5115
 6512TIP3   OH219499   6.481   0.229   2.036 -0.3176 -0.1555 -0.4542
 6512TIP3    H119500   6.408   0.210   1.976 -0.1412 -1.2122 -0.3558
 6512TIP3    H219501   6.558   0.233   1.979 -0.6197  2.8178 -0.8401
 6513TIP3   OH219502   3.021   4.987   1.673  0.2242 -0.4278  0.2597
 6513TIP3    H119503   2.958   5.031   1.730  0.3265  1.3070 -0.8882
 6513TIP3    H219504   3.088   4.954   1.733  0.1735  1.0546  1.1847
 6514TIP3   OH219505   3.420   1.513   4.122 -0.3002  0.1988 -0.2563
 6514TIP3    H119506   3.413   1.605   4.095  0.0540  0.2736 -0.1014
 6514TIP3    H219507   3.356   1.467   4.068  1.8720 -0.0078 -2.8410
 6515TIP3   OH219508   0.552   0.905   3.052  0.1040 -0.1523  0.2163
 6515TIP3    H119509   0.565   0.873   3.141 -0.5278  0.0997  0.4027
 6515TIP3    H219510   0.486   0.974   3.060 -1.2109 -1.2506 -0.6719
 6516TIP3   OH219511   1.928   6.153   0.532 -0.0910 -0.5329 -0.1602
 6516TIP3    H119512   1.963   6.121   0.449 -0.2305 -0.6063 -0.1902
 6516TIP3    H219513   1.851   6.100   0.548 -0.2451 -0.3066 -0.1410
 6517TIP3   OH219514   5.942   5.160   5.340  0.5434 -0.5243  0.3055
 6517TIP3    H119515   5.904   5.073   5.353  1.7364 -1.0805  0.2431
 6517TIP3    H219516   5.922   5.207   5.421 -0.7391 -0.5904  0.0562
 6518TIP3   OH219517   2.133   4.320   2.618  0.2554  0.1283  0.2459
 6518TIP3    H119518   2.048   4.329   2.575  0.3322 -1.2044 -0.2342
 6518TIP3    H219519   2.197   4.341   2.550  0.3418 -0.6807  0.0645
 6519TIP3   OH219520   5.548   5.218   2.410  0.3417  0.5466 -0.0696
 6519TIP3    H119521   5.494   5.139   2.402  1.9871 -0.6291 -0.2032
 6519TIP3    H219522   5.527   5.252   2.497 -2.3979  1.5884 -1.0260
 6520TIP3   OH219523   3.359  -0.005   3.133 -0.0215  0.2055 -0.0036
 6520TIP3    H119524   3.269   0.019   3.155  0.3790  0.9195  0.9590
 6520TIP3    H219525   3.406   0.079   3.132  1.1933 -0.3490  2.3005
 6521TIP3   OH219526   5.680   5.609   0.769  0.2181  0.3409  0.3234
 6521TIP3    H119527   5.629   5.530   0.750  1.6584 -0.7870  0.9499
 6521TIP3    H219528   5.685   5.611   0.864  1.7336  0.1330  0.2680
 6522TIP3   OH219529   2.050   2.688   1.293  0.7728 -0.0416 -0.1562
 6522TIP3    H119530   1.960   2.722   1.300  0.2188 -1.5716  0.4353
 6522TIP3    H219531   2.086   2.700   1.381  0.6238 -0.8301  0.0150
 6523TIP3   OH219532   5.045   0.891   4.797 -0.1866 -0.1827  0.5709
 6523TIP3    H119533   5.015   0.972   4.755 -1.4609 -0.1419  1.5169
 6523TIP3    H219534   5.137   0.883   4.770 -0.9338 -0.2101 -2.2659
 6524TIP3   OH219535   2.165   1.246   0.574  0.2821 -0.1117  0.1881
 6524TIP3    H119536   2.181   1.178   0.639 -0.8593 -0.1625  0.4295
 6524TIP3    H219537   2.072   1.239   0.554 -0.2242  2.2950  1.3135
 6525TIP3   OH219538   3.114   0.769   1.001 -0.2963 -0.1835 -0.4915
 6525TIP3    H119539   3.046   0.803   1.059 -0.7998 -0.1475 -1.0939
 6525TIP3    H219540   3.193   0.818   1.024 -0.9006  1.0763 -1.0339
 6526TIP3   OH219541   2.781   6.594   0.849  0.2387 -0.7737 -0.2677
 6526TIP3    H119542   2.868   6.628   0.831  0.2669 -0.1156  0.9731
 6526TIP3    H219543   2.725   6.672   0.852 -0.0201 -0.9874  0.9123
 6527TIP3   OH219544   3.073   3.950   3.342 -0.3367 -0.2518 -0.1987
 6527TIP3    H119545   3.019   3.964   3.420  0.4771 -0.1428  0.3584
 6527TIP3    H219546   3.145   3.895   3.372 -0.5674 -1.0946 -1.1251
 6528TIP3   OH219547   1.488   0.553   1.936  0.6291  0.6381 -0.0179
 6528TIP3    H119548   1.525   0.515   1.856  1.4825  2.2295 -0.4013
 6528TIP3    H219549   1.398   0.576   1.912  0.7095  0.6084 -0.3539
 6529TIP3   OH219550   1.107   3.179   0.526  0.6168  0.3920 -0.2194
 6529TIP3    H119551   1.200   3.179   0.548  0.5931 -0.4031 -0.0790
 6529TIP3    H219552   1.081   3.086   0.529 -0.7141  0.7669  1.9785
 6530TIP3   OH219553   6.218   3.113   2.155  0.2200 -0.1326  0.3328
 6530TIP3    H119554   6.162   3.035   2.152  0.1826 -0.0828 -0.4001
 6530TIP3    H219555   6.196   3.162   2.076  1.0961  0.0341  0.1810
 6531TIP3   OH219556   5.064   5.198   3.598  0.2950  0.3081 -0.2768
 6531TIP3    H119557   5.055   5.107   3.626  0.2394  0.1035 -0.9535
 6531TIP3    H219558   5.018   5.248   3.666 -1.3614 -0.3111 -0.8867
 6532TIP3   OH219559   1.988   5.290   3.443  0.8428 -0.5449  0.2191
 6532TIP3    H119560   1.914   5.237   3.472 -0.3762  0.8544 -0.2257
 6532TIP3    H219561   1.955   5.338   3.366  1.8878  0.8362  0.5844
 6533TIP3   OH219562   5.059   4.214   2.894  0.0730  0.2545 -0.2988
 6533TIP3    H119563   5.116   4.208   2.971  0.5821 -0.4263 -0.7173
 6533TIP3    H219564   5.059   4.126   2.857 -0.7348  0.4083 -0.6805
 6534TIP3   OH219565   3.506   1.864   4.391  0.2768  0.7274 -0.0866
 6534TIP3    H119566   3.508   1.792   4.455  0.9867  0.0562 -0.8441
 6534TIP3    H219567   3.466   1.936   4.439  0.3009  0.0809  0.9602
 6535TIP3   OH219568   5.387   3.453   0.117 -0.1521  0.7521 -0.3127
 6535TIP3    H119569   5.369   3.368   0.077  1.3870  0.5068 -0.5186
 6535TIP3    H219570   5.355   3.444   0.207  0.3625 -0.1950 -0.2088
 6536TIP3   OH219571   2.921   0.635   0.885 -0.2194 -0.6079 -0.7727
 6536TIP3    H119572   2.991   0.698   0.903 -1.5007  0.9334 -0.8997
 6536TIP3    H219573   2.920   0.628   0.789 -1.4472  0.8781 -0.8998
 6537TIP3   OH219574   2.737   4.054   4.651  0.3336  0.8700 -0.2410
 6537TIP3    H119575   2.711   4.043   4.559 -2.1940  2.0289  0.2491
 6537TIP3    H219576   2.724   3.968   4.690  0.9170  0.5018 -0.8332
 6538TIP3   OH219577   3.790   0.095   4.298 -0.2829  0.0953 -0.1172
 6538TIP3    H119578   3.840   0.110   4.379  0.5554  0.3020 -0.6589
 6538TIP3    H219579   3.712   0.047   4.327 -1.5961  2.8348  1.2698
 6539TIP3   OH219580   1.658   5.872   0.721  0.6688  0.0936  0.1728
 6539TIP3    H119581   1.686   5.912   0.639  0.3557  0.4175  0.2205
 6539TIP3    H219582   1.565   5.893   0.728  0.2903 -1.3677 -0.2128
 6540TIP3   OH219583   2.806   0.350   1.375 -0.3263 -0.4898 -0.2482
 6540TIP3    H119584   2.810   0.444   1.391 -1.4379 -0.3950 -0.4004
 6540TIP3    H219585   2.896   0.324   1.359  0.0484  0.4719  0.2269
 6541TIP3   OH219586   2.765   5.567   2.501  0.6371 -0.1132  0.1045
 6541TIP3    H119587   2.837   5.595   2.557  0.9439  1.8075 -1.1766
 6541TIP3    H219588   2.779   5.613   2.418 -0.4746 -1.9163 -1.1786
 6542TIP3   OH219589   2.354   0.691   0.339  0.8010  0.0939  0.3958
 6542TIP3    H119590   2.279   0.701   0.279 -0.6379  0.1218  2.1128
 6542TIP3    H219591   2.424   0.655   0.284  0.0011  1.3800 -1.5958
 6543TIP3   OH219592   2.029   0.262   5.450  0.0983 -0.5439  0.3309
 6543TIP3    H119593   2.109   0.230   5.409 -1.1641  0.3156 -3.1792
 6543TIP3    H219594   2.003   0.192   5.510  1.6717 -2.3685 -0.9876
 6544TIP3   OH219595   2.145   6.578   5.610  0.7098 -0.1855 -0.3393
 6544TIP3    H119596   2.151   6.560   5.703  0.7915  1.6615  0.0659
 6544TIP3    H219597   2.198   6.511   5.568 -0.4700 -1.9059  0.7993
 6545TIP3   OH219598   3.691   2.543   5.579  0.0939 -0.0059 -0.4782
 6545TIP3    H119599   3.659   2.556   5.489  0.9575  0.3206 -0.7440
 6545TIP3    H219600   3.669   2.452   5.599 -1.6311  0.3976 -0.3945
 6546TIP3   OH219601   2.532   0.311   2.428  0.4987 -0.3075  0.2669
 6546TIP3    H119602   2.563   0.266   2.507  0.0652 -1.0779  0.0114
 6546TIP3    H219603   2.481   0.244   2.381  0.1075  0.3684 -0.2824
 6547TIP3   OH219604   5.919   5.987   1.110 -0.1563 -0.2110  0.0719
 6547TIP3    H119605   5.951   5.975   1.020 -1.6389  1.1452 -0.6852
 6547TIP3    H219606   5.996   5.973   1.164  1.5695  2.0840 -1.6070
 6548TIP3   OH219607   5.886   5.143   0.283  0.3402  0.2862 -0.4580
 6548TIP3    H119608   5.836   5.068   0.316 -1.0130  1.4223  0.1752
 6548TIP3    H219609   5.914   5.116   0.196  0.7244 -1.3112  0.1061
 6549TIP3   OH219610   0.761   4.832   4.019 -0.3510 -0.3828 -0.5034
 6549TIP3    H119611   0.808   4.884   3.954 -1.3674  0.5900 -0.4933
 6549TIP3    H219612   0.759   4.743   3.983 -0.2184 -0.0242 -1.4174
 6550TIP3   OH219613   5.275   4.497   4.466  0.0657  0.4052  0.5078
 6550TIP3    H119614   5.191   4.451   4.473  0.8108 -1.4066 -1.3286
 6550TIP3    H219615   5.339   4.428   4.449  1.5417  1.9581 -0.6540
 6551TIP3   OH219616   5.403   0.934   4.397  0.6696 -0.0512 -0.2461
 6551TIP3    H119617   5.360   0.894   4.473 -0.9765  1.9646 -0.0530
 6551TIP3    H219618   5.481   0.975   4.434  0.4339  0.0284  0.1760
 6552TIP3   OH219619   5.222   1.591   4.790 -0.1205  0.0871  0.1235
 6552TIP3    H119620   5.251   1.670   4.836 -0.1631  1.2104 -1.6684
 6552TIP3    H219621   5.142   1.565   4.835  0.7931  0.0297  1.8102
 6553TIP3   OH219622   4.313   6.615   5.320  0.7583  0.0780 -0.3050
 6553TIP3    H119623   4.264   6.538   5.291 -1.9836  2.1543 -1.6467
 6553TIP3    H219624   4.315   6.672   5.244  1.2639  2.0093  1.0947
 6554TIP3   OH219625   5.846   1.706   4.403  0.4723  0.8437 -0.2807
 6554TIP3    H119626   5.780   1.732   4.339 -0.6938  2.4578  1.4881
 6554TIP3    H219627   5.824   1.616   4.426 -0.1374  0.8385 -0.8635
 6555TIP3   OH219628   7.119   1.592   3.108 -0.1045  0.5234 -0.6930
 6555TIP3    H119629   7.032   1.628   3.092 -0.9273 -0.0749  1.9726
 6555TIP3    H219630   7.106   1.497   3.114  0.7203  0.4199 -0.2797
 6556TIP3   OH219631   3.927   0.481   5.221  0.0089 -0.2156 -0.2317
 6556TIP3    H119632   4.007   0.483   5.168 -1.4370  1.5997 -2.4960
 6556TIP3    H219633   3.957   0.499   5.310  2.2096 -0.5205 -0.8591
 6557TIP3   OH219634   0.389   4.151   2.335  0.3020 -0.0373  0.1291
 6557TIP3    H119635   0.405   4.240   2.366 -0.5333  0.3016 -0.3980
 6557TIP3    H219636   0.477   4.113   2.327  0.8012  1.3346 -1.4009
 6558TIP3   OH219637   2.505   4.566   4.267 -0.0981  0.3644 -0.1305
 6558TIP3    H119638   2.499   4.661   4.253  1.6196  0.2620 -1.7695
 6558TIP3    H219639   2.431   4.530   4.218 -0.1591  0.7706 -0.3393
 6559TIP3   OH219640   6.962   0.109   3.512 -0.2033  0.4138  0.3660
 6559TIP3    H119641   6.983   0.144   3.425 -0.0419  0.1285  0.2854
 6559TIP3    H219642   6.888   0.161   3.543 -0.4122  0.3651 -0.0437
 6560TIP3   OH219643   4.073   0.590   5.439 -0.2784 -0.0276  0.3269
 6560TIP3    H119644   4.143   0.529   5.460  0.2913  0.7129  0.6378
 6560TIP3    H219645   4.113   0.654   5.381 -0.8222  0.1435  0.1315
 6561TIP3   OH219646   6.408   5.062   3.905  0.5891 -0.1617 -0.7469
 6561TIP3    H119647   6.464   4.991   3.936  1.7976  1.7189  1.7178
 6561TIP3    H219648   6.345   5.075   3.976 -2.0291 -1.1134 -2.7344
 6562TIP3   OH219649   0.895   1.970   2.356 -0.2320  0.5253  0.2272
 6562TIP3    H119650   0.858   2.043   2.406 -0.3830 -0.0619  0.9964
 6562TIP3    H219651   0.849   1.973   2.272 -0.8323  0.8261  0.5569
 6563TIP3   OH219652   5.100   3.528   2.523 -0.3808  0.2650 -0.1133
 6563TIP3    H119653   5.162   3.481   2.468 -0.6051  1.5843 -1.5669
 6563TIP3    H219654   5.091   3.614   2.481 -2.3107  0.5100  0.6814
 6564TIP3   OH219655   0.088   5.527   2.413  0.0210 -0.2848 -0.1009
 6564TIP3    H119656   0.177   5.506   2.443  0.5604  1.8066 -0.0613
 6564TIP3    H219657   0.030   5.486   2.478  1.0623  1.1286  1.8224
 6565TIP3   OH219658   1.970   0.532   5.376  0.1726  0.5655 -0.1150
 6565TIP3    H119659   1.965   0.473   5.301  0.8103  1.8683 -1.2304
 6565TIP3    H219660   1.986   0.475   5.451 -2.0261 -0.9280 -0.6856
 6566TIP3   OH219661   1.534   2.423   5.234 -0.0309 -0.3979 -0.4284
 6566TIP3    H119662   1.535   2.357   5.166 -1.5268 -1.2640  0.3360
 6566TIP3    H219663   1.441   2.443   5.248  0.1356 -0.9346  1.9727
 6567TIP3   OH219664   0.382   5.749   0.909  0.1089 -0.3773  0.3742
 6567TIP3    H119665   0.477   5.753   0.904  0.0806 -0.5709 -0.5383
 6567TIP3    H219666   0.363   5.674   0.965  0.4890 -0.8332 -0.1050
 6568TIP3   OH219667   3.655   5.355   5.410 -0.1080  0.2591 -0.5070
 6568TIP3    H119668   3.719   5.284   5.418 -0.3594  0.0204 -0.6023
 6568TIP3    H219669   3.707   5.431   5.386  0.2136  0.1914 -0.0488
 6569TIP3   OH219670   2.672   6.672   0.460  0.4039 -0.3436 -0.0773
 6569TIP3    H119671   2.740   6.669   0.528  0.1574  0.4181  0.2230
 6569TIP3    H219672   2.592   6.695   0.507  0.7115  2.9456 -0.8789
 6570TIP3   OH219673   4.001   3.594   3.449 -0.0318 -0.2842 -0.2165
 6570TIP3    H119674   3.938   3.624   3.514  0.4468 -0.7126  0.4599
 6570TIP3    H219675   3.987   3.652   3.374 -0.9693 -0.1437  0.0540
 6571TIP3   OH219676   3.523   0.103   0.690  0.8077  0.5033 -0.0325
 6571TIP3    H119677   3.456   0.093   0.757 -0.0676 -0.3905 -0.9968
 6571TIP3    H219678   3.542   0.014   0.661  1.3687  0.8463 -0.7744
 6572TIP3   OH219679   3.419   0.455   5.601  0.3142 -0.2862  0.3762
 6572TIP3    H119680   3.386   0.532   5.648 -0.4919 -0.2891 -0.1664
 6572TIP3    H219681   3.369   0.382   5.635 -0.3440 -0.2771 -0.5192
 6573TIP3   OH219682   0.203   5.917   1.607 -0.1880 -0.6492  0.1122
 6573TIP3    H119683   0.260   5.961   1.543  1.1200  0.6696  2.0682
 6573TIP3    H219684   0.230   5.825   1.604  0.3441 -0.4747 -0.7074
 6574TIP3   OH219685   4.813   5.829   3.566 -0.3448  0.1882 -0.4059
 6574TIP3    H119686   4.840   5.914   3.531  2.2971 -1.2046 -2.0810
 6574TIP3    H219687   4.782   5.781   3.489 -0.4178 -0.8420  0.2587
 6575TIP3   OH219688   4.128   1.197   5.818  0.0071  0.8161  0.8312
 6575TIP3    H119689   4.195   1.150   5.769 -1.8584 -0.4008 -0.6839
 6575TIP3    H219690   4.096   1.264   5.757 -3.2778 -1.5623 -0.3293
 6576TIP3   OH219691   1.489   2.540   5.593 -0.3274 -0.2907 -0.1689
 6576TIP3    H119692   1.562   2.520   5.535  1.4334  0.0820  1.7742
 6576TIP3    H219693   1.452   2.621   5.558 -0.3494 -0.9067 -1.6428
 6577TIP3   OH219694   6.077   0.881   5.352 -0.5708 -0.1697 -0.3170
 6577TIP3    H119695   6.027   0.954   5.316  0.4900  0.1077 -1.3295
 6577TIP3    H219696   6.028   0.802   5.326 -0.7105  0.1091 -0.9217
 6578TIP3   OH219697   2.506   4.463   1.758 -0.4376 -0.1412  0.4202
 6578TIP3    H119698   2.456   4.523   1.813  0.9941  0.4399  1.1253
 6578TIP3    H219699   2.595   4.466   1.793  0.2940 -0.5306 -1.3074
 6579TIP3   OH219700   5.564   5.283   3.142 -0.4911  0.1006  0.0106
 6579TIP3    H119701   5.652   5.288   3.180 -0.1063 -0.2428 -0.8056
 6579TIP3    H219702   5.506   5.275   3.217  0.1673  0.3897  0.5667
 6580TIP3   OH219703   3.121   1.197   0.560 -0.0640  0.2239  0.3891
 6580TIP3    H119704   3.175   1.177   0.483 -0.4492  1.1657 -0.1550
 6580TIP3    H219705   3.056   1.127   0.563  0.3604 -0.1819  0.2528
 6581TIP3   OH219706   0.533   3.655   1.720  0.1067  0.3022  0.0353
 6581TIP3    H119707   0.555   3.627   1.632 -1.7447 -1.1388 -0.0431
 6581TIP3    H219708   0.449   3.701   1.711 -0.8589 -1.1291  1.1653
 6582TIP3   OH219709   1.541   4.540   0.082  0.0678  0.0033 -0.8111
 6582TIP3    H119710   1.548   4.564   0.175 -1.6873  0.7032 -0.8168
 6582TIP3    H219711   1.627   4.507   0.059  0.1060 -1.7834  1.5245
 6583TIP3   OH219712   2.394   4.115   4.832  0.6256 -0.1017 -0.1639
 6583TIP3    H119713   2.403   4.086   4.741  1.0938 -0.0751 -0.1320
 6583TIP3    H219714   2.354   4.202   4.826 -0.9837 -0.8186 -0.2475
 6584TIP3   OH219715   3.201   5.764   5.730 -0.3711  0.0226  0.5192
 6584TIP3    H119716   3.228   5.687   5.679 -2.5183 -0.3854 -0.0966
 6584TIP3    H219717   3.283   5.813   5.743  0.8463 -1.7023 -0.1601
 6585TIP3   OH219718   1.901   5.031   2.573 -0.5403  0.5241  0.3777
 6585TIP3    H119719   1.827   5.070   2.526 -1.5725 -2.4382 -0.7112
 6585TIP3    H219720   1.864   5.006   2.658 -0.9894 -1.2202 -0.2728
 6586TIP3   OH219721   2.718   6.414   5.261 -0.0207 -0.1184  0.1567
 6586TIP3    H119722   2.793   6.355   5.265 -1.4034 -1.8978  1.5881
 6586TIP3    H219723   2.685   6.418   5.351 -2.4270 -0.5173 -0.6307
 6587TIP3   OH219724   4.855   6.560   4.388 -0.4327  0.0923  0.2829
 6587TIP3    H119725   4.890   6.592   4.471  0.2298  0.3698 -0.0969
 6587TIP3    H219726   4.761   6.555   4.402 -0.1324 -3.0222  2.1589
 6588TIP3   OH219727   4.865   0.338   2.784  0.1485 -0.2209  0.4059
 6588TIP3    H119728   4.831   0.347   2.873  1.0025 -2.7984  1.0611
 6588TIP3    H219729   4.788   0.340   2.728 -0.4407  0.8758  1.2262
 6589TIP3   OH219730   6.091   4.147   2.162 -0.2744 -0.4942  0.1279
 6589TIP3    H119731   6.173   4.127   2.207  0.3125 -0.1060 -0.7433
 6589TIP3    H219732   6.117   4.166   2.071 -1.3974 -1.0216 -0.3233
 6590TIP3   OH219733   4.033   5.099   0.827  0.1096 -0.0216  0.2834
 6590TIP3    H119734   4.027   5.129   0.918  1.5338  1.7483 -0.1525
 6590TIP3    H219735   3.942   5.083   0.802 -0.4651  0.9589  1.5615
 6591TIP3   OH219736   5.709   2.389   4.198 -0.6987 -0.2394  0.1518
 6591TIP3    H119737   5.662   2.306   4.189  0.5966 -1.1988  1.7884
 6591TIP3    H219738   5.787   2.378   4.144 -1.5932  0.8438 -1.4685
 6592TIP3   OH219739   4.635   4.500   4.564 -0.2655  0.6683  0.5390
 6592TIP3    H119740   4.561   4.451   4.601 -0.1108  0.5968  0.7558
 6592TIP3    H219741   4.698   4.432   4.541 -0.6502  0.6523 -0.5228
 6593TIP3   OH219742   2.172   6.494   0.815  0.6411  0.3185  0.7149
 6593TIP3    H119743   2.250   6.439   0.805  1.0884  0.3637  3.2485
 6593TIP3    H219744   2.099   6.432   0.809  1.0712 -0.3596  2.0113
 6594TIP3   OH219745   5.954   2.553   1.364  0.2312 -0.1571  0.1286
 6594TIP3    H119746   5.982   2.520   1.449  1.1230 -1.0369 -0.4797
 6594TIP3    H219747   5.907   2.479   1.324  0.4782 -0.0163 -0.4365
 6595TIP3   OH219748   2.423   5.286   0.934  0.2477 -0.2815 -0.7237
 6595TIP3    H119749   2.501   5.341   0.945  0.3329 -0.8660  2.5498
 6595TIP3    H219750   2.353   5.334   0.978  0.2615 -2.5007  1.9816
 6596TIP3   OH219751   2.255   0.273   3.042  0.3874 -0.0549 -0.0366
 6596TIP3    H119752   2.202   0.309   2.971 -1.3656 -0.2821  1.0844
 6596TIP3    H219753   2.247   0.337   3.113  2.3096  0.2970 -0.1002
 6597TIP3   OH219754   3.456   6.314   5.097 -0.1859  0.0978 -0.1350
 6597TIP3    H119755   3.494   6.231   5.068 -0.2721  0.3710 -1.0399
 6597TIP3    H219756   3.395   6.339   5.028  0.2204  1.1814 -0.1232
 6598TIP3   OH219757   2.447   3.369   4.326  0.0390  0.4749  0.0851
 6598TIP3    H119758   2.475   3.339   4.240 -0.7477  0.2130 -0.0930
 6598TIP3    H219759   2.498   3.317   4.388 -0.7096 -0.6795 -0.2238
 6599TIP3   OH219760   5.632   4.572   2.817  0.4066 -0.3068 -0.2585
 6599TIP3    H119761   5.672   4.593   2.902 -1.2622 -0.0809  0.5225
 6599TIP3    H219762   5.696   4.516   2.773  0.8174 -1.3900  1.6249
 6600TIP3   OH219763   3.149   5.781   3.936 -0.3133  0.2515 -0.6903
 6600TIP3    H119764   3.181   5.871   3.941 -1.5351  0.6871  4.0625
 6600TIP3    H219765   3.226   5.727   3.951 -0.1302  0.7258  0.1030
 6601TIP3   OH219766   6.082   1.207   1.369  0.0709  0.4816  0.0116
 6601TIP3    H119767   6.142   1.261   1.420  0.4924 -0.2131  0.2626
 6601TIP3    H219768   6.135   1.172   1.298  0.5235 -1.7512  1.3535
 6602TIP3   OH219769   0.987   4.194   3.102  0.2827 -0.1309 -0.2340
 6602TIP3    H119770   0.980   4.239   3.018 -1.3308  0.4035  0.1535
 6602TIP3    H219771   0.968   4.102   3.081 -2.4662  0.3448 -0.1700
 6603TIP3   OH219772   4.645   1.863   3.373  0.1324  0.0911  0.6716
 6603TIP3    H119773   4.549   1.860   3.375  0.1382 -0.9760 -0.3287
 6603TIP3    H219774   4.669   1.843   3.283  1.2657  2.3093  0.3883
 6604TIP3   OH219775   1.297   4.724   4.660  0.0627 -0.1020  0.1094
 6604TIP3    H119776   1.261   4.746   4.574 -0.5461 -0.4735  0.2622
 6604TIP3    H219777   1.364   4.658   4.642 -2.6783 -3.1771  0.1754
 6605TIP3   OH219778   3.351   5.597   1.310 -0.2089  0.6958 -0.2209
 6605TIP3    H119779   3.394   5.628   1.230 -0.6418  1.1695 -0.2697
 6605TIP3    H219780   3.391   5.649   1.380  0.0372  0.4112 -0.1494
 6606TIP3   OH219781   5.332   4.727   0.465 -0.2657  0.5595  0.0933
 6606TIP3    H119782   5.268   4.707   0.534  3.0467 -0.4425  3.2179
 6606TIP3    H219783   5.334   4.823   0.461  0.2593  0.6959  2.3396
 6607TIP3   OH219784   5.550   1.246   3.261 -0.4512 -0.1572 -0.0086
 6607TIP3    H119785   5.468   1.232   3.308 -0.5945  0.7145  0.0089
 6607TIP3    H219786   5.534   1.324   3.207  0.2445 -0.1942 -0.2731
 6608TIP3   OH219787   1.126   1.980   2.048  0.0619  0.2311  0.1378
 6608TIP3    H119788   1.198   1.919   2.068  0.7946  1.1961  0.5409
 6608TIP3    H219789   1.168   2.052   2.001 -0.3402  1.5083  1.6324
 6609TIP3   OH219790   3.780   1.055   3.421 -0.3097  0.1067  0.2502
 6609TIP3    H119791   3.840   1.042   3.495  1.4777 -0.9690 -1.3042
 6609TIP3    H219792   3.778   1.149   3.408 -0.2349  0.2728  1.3215
 6610TIP3   OH219793   3.667   6.289   5.875 -0.2607  0.2963  0.0035
 6610TIP3    H119794   3.761   6.289   5.889 -0.4655  1.1978  1.7249
 6610TIP3    H219795   3.643   6.197   5.869  0.5959  0.0237  0.6045
 6611TIP3   OH219796   3.350   2.336   3.924  0.2494 -0.3752  0.2041
 6611TIP3    H119797   3.439   2.306   3.940 -0.1096 -1.6411 -0.0458
 6611TIP3    H219798   3.358   2.431   3.912  1.7000 -0.5955 -0.8477
 6612TIP3   OH219799   2.540   6.569   3.083  0.0623 -0.1476 -0.3987
 6612TIP3    H119800   2.515   6.478   3.101  0.6566 -0.4572 -1.1245
 6612TIP3    H219801   2.505   6.587   2.996 -0.2098  0.3835 -0.1839
 6613TIP3   OH219802   2.434   3.479   0.656  0.0614 -0.1465 -0.2952
 6613TIP3    H119803   2.474   3.434   0.731  0.1468 -2.2288 -1.5009
 6613TIP3    H219804   2.478   3.564   0.652  0.5943 -0.3009  1.5362
 6614TIP3   OH219805   0.459   4.333   1.390 -0.1471  0.1063 -0.3703
 6614TIP3    H119806   0.520   4.378   1.332  1.2752 -0.8174  0.3346
 6614TIP3    H219807   0.373   4.350   1.353  0.6207  0.5256 -2.0482
 6615TIP3   OH219808   1.921   4.579   1.425 -0.0229  0.0026 -0.3028
 6615TIP3    H119809   1.892   4.667   1.398 -0.0999  0.4940  1.2830
 6615TIP3    H219810   2.012   4.592   1.451  0.3241 -0.6469 -1.1669
 6616TIP3   OH219811   0.039   5.731   0.643  0.4359  0.3029 -0.2447
 6616TIP3    H119812   0.080   5.770   0.720 -1.0265  1.0038  0.2188
 6616TIP3    H219813   0.009   5.645   0.673 -0.0202  0.5248 -0.0465
 6617TIP3   OH219814   4.391   5.009   1.868  0.1993 -0.0629  0.4410
 6617TIP3    H119815   4.373   5.095   1.905  0.6719 -0.5670  1.9284
 6617TIP3    H219816   4.459   4.973   1.926  1.3727 -0.6897 -1.2559
 6618TIP3   OH219817   3.334   6.467   1.442 -0.0273 -0.4733 -0.1796
 6618TIP3    H119818   3.239   6.461   1.436 -0.1421  2.0198 -2.0516
 6618TIP3    H219819   3.350   6.522   1.519 -0.2181  0.4483 -0.7770
 6619TIP3   OH219820   0.659   0.887   3.305 -0.6913 -0.1339  0.6698
 6619TIP3    H119821   0.599   0.851   3.370  1.0340 -0.4427  2.1727
 6619TIP3    H219822   0.674   0.977   3.335 -0.3663 -0.0792  0.3411
 6620TIP3   OH219823   4.599   1.093   4.139  0.1170  0.3589  0.7196
 6620TIP3    H119824   4.543   1.083   4.216  0.5138  0.2050  0.9934
 6620TIP3    H219825   4.547   1.145   4.078 -0.4150  0.0098  0.8717
 6621TIP3   OH219826   2.169   1.265   2.813 -0.0611 -0.4847 -0.0905
 6621TIP3    H119827   2.162   1.339   2.753  0.5741 -0.6403 -0.3730
 6621TIP3    H219828   2.162   1.188   2.757  0.4055 -0.6325  0.0495
 6622TIP3   OH219829   7.057   3.576   1.250 -0.0986 -0.1500 -0.1047
 6622TIP3    H119830   7.126   3.597   1.312 -0.5149 -1.1329  0.7322
 6622TIP3    H219831   6.996   3.520   1.300 -0.1284 -1.4831 -1.5591
 6623TIP3   OH219832   5.292   0.795   4.624  0.1616 -0.6245 -0.0998
 6623TIP3    H119833   5.219   0.733   4.627  0.4022 -0.9116 -0.1221
 6623TIP3    H219834   5.361   0.752   4.675  0.4784 -0.5705 -0.4755
 6624TIP3   OH219835   3.596   4.109   3.035 -0.4279 -0.3288  0.4761
 6624TIP3    H119836   3.571   4.200   3.024  0.9717  0.0957  0.6674
 6624TIP3    H219837   3.562   4.065   2.957 -0.3417  0.5216 -0.0433
 6625TIP3   OH219838   5.487   4.630   1.769 -0.6547  0.3736  0.7567
 6625TIP3    H119839   5.461   4.584   1.849 -0.8743 -0.4415  0.2300
 6625TIP3    H219840   5.559   4.687   1.797 -1.9900  1.5429  1.9157
 6626TIP3   OH219841   0.910   5.423   4.681  0.4078 -0.6300  0.3504
 6626TIP3    H119842   0.934   5.469   4.601  0.7189 -2.4465 -0.6598
 6626TIP3    H219843   0.851   5.353   4.652 -1.9894  0.5190  2.1232
 6627TIP3   OH219844   6.468   6.077   4.840 -0.0509  0.5127  0.5862
 6627TIP3    H119845   6.463   6.144   4.773 -1.6866  0.7970  0.9637
 6627TIP3    H219846   6.411   6.006   4.809  0.3034  0.0350  0.9956
 6628TIP3   OH219847   3.499   3.415   2.944 -0.2020  0.0305 -0.5578
 6628TIP3    H119848   3.408   3.403   2.917 -1.1032 -0.2416  2.3094
 6628TIP3    H219849   3.504   3.505   2.974 -0.0313 -0.4772  1.0029
 6629TIP3   OH219850   1.962   6.001   1.970 -0.6143  0.4116 -0.3609
 6629TIP3    H119851   1.927   6.036   1.888  0.2834 -1.1107 -1.4392
 6629TIP3    H219852   2.046   6.047   1.981 -1.1426  1.2744  0.2151
 6630TIP3   OH219853   4.269   1.686   5.470  0.0872  0.2828  0.0373
 6630TIP3    H119854   4.194   1.730   5.509 -0.0083 -1.0547  1.4384
 6630TIP3    H219855   4.275   1.724   5.382 -1.8315  0.8630  0.1028
 6631TIP3   OH219856   3.126   1.318   2.667 -0.7643 -0.1718  0.1761
 6631TIP3    H119857   3.038   1.352   2.653 -0.2071  2.3949  2.0253
 6631TIP3    H219858   3.141   1.328   2.761  2.1141  1.3366 -0.3136
 6632TIP3   OH219859   3.423   4.131   2.607  0.3916  0.1235 -0.1786
 6632TIP3    H119860   3.394   4.193   2.674  2.9747  0.9318  0.2795
 6632TIP3    H219861   3.457   4.185   2.536  0.3853 -0.7555 -0.8755
 6633TIP3   OH219862   4.080   4.881   4.511  0.0605 -0.2988  0.0460
 6633TIP3    H119863   4.029   4.878   4.592 -1.8368  0.0876 -1.0833
 6633TIP3    H219864   4.163   4.923   4.536 -1.1834  1.4573  1.4285
 6634TIP3   OH219865   6.269   1.234   3.870 -0.0407  0.0884 -0.3678
 6634TIP3    H119866   6.297   1.161   3.816 -0.4553 -0.8237  0.6245
 6634TIP3    H219867   6.258   1.197   3.957 -2.3047  0.8362 -0.2729
 6635TIP3   OH219868   4.291   3.146   0.715 -0.6732  0.3815  0.1137
 6635TIP3    H119869   4.377   3.104   0.718 -0.3291  1.0282 -0.2420
 6635TIP3    H219870   4.310   3.240   0.724 -1.3332  0.5392 -0.0355
 6636TIP3   OH219871   2.700   4.659   3.537  0.1486 -0.2708 -0.4831
 6636TIP3    H119872   2.636   4.632   3.603  1.0136  0.1235  0.5372
 6636TIP3    H219873   2.780   4.614   3.561  0.2222 -0.9718 -1.9101
 6637TIP3   OH219874   4.981   1.205   1.798 -0.2018  0.0271  0.5122
 6637TIP3    H119875   4.905   1.149   1.780 -0.0782  0.0404 -0.0574
 6637TIP3    H219876   4.950   1.264   1.867 -1.1562  0.9228 -0.6506
 6638TIP3   OH219877   1.699   6.349   0.750 -0.3265 -0.1999 -0.2510
 6638TIP3    H119878   1.620   6.296   0.743 -0.2926 -0.5150  1.3635
 6638TIP3    H219879   1.667   6.438   0.761 -0.3831  0.2086 -2.9166
 6639TIP3   OH219880   3.981   6.027   2.974 -0.3550  0.4375  0.1392
 6639TIP3    H119881   4.017   6.048   2.887 -0.1853  0.1033  0.1282
 6639TIP3    H219882   3.972   6.112   3.017  1.2379  0.4667  0.4543
 6640TIP3   OH219883   3.489   2.316   5.247  0.2385 -0.0755  0.2733
 6640TIP3    H119884   3.527   2.401   5.269 -0.2184  0.1620  0.1640
 6640TIP3    H219885   3.554   2.275   5.190 -0.8611  1.5465 -2.3839
 6641TIP3   OH219886   5.138   1.648   4.163 -0.1880  0.5611  0.1557
 6641TIP3    H119887   5.066   1.638   4.225 -0.1133 -1.1690  0.0208
 6641TIP3    H219888   5.146   1.562   4.122  0.2282  1.4532 -1.7650
 6642TIP3   OH219889   6.123   6.296   3.843  0.5414 -0.1769 -0.0972
 6642TIP3    H119890   6.112   6.392   3.841  1.1057 -0.1154 -0.7347
 6642TIP3    H219891   6.109   6.269   3.752 -0.2180 -0.7804  0.1901
 6643TIP3   OH219892   2.363   4.667   1.874  0.1158 -0.6244 -0.0472
 6643TIP3    H119893   2.407   4.735   1.822 -0.9368 -0.2572 -0.4826
 6643TIP3    H219894   2.390   4.685   1.964 -0.8812  0.9907 -0.0263
 6644TIP3   OH219895   3.882   4.978   4.384 -0.4565 -0.5092  0.0967
 6644TIP3    H119896   3.824   4.907   4.355  0.0024 -1.0604  0.4876
 6644TIP3    H219897   3.962   4.933   4.411  0.0520  0.2155 -0.1800
 6645TIP3   OH219898   4.706   3.030   1.226  0.0575 -0.0951 -0.7704
 6645TIP3    H119899   4.702   2.983   1.142  0.6708  0.9073 -1.3775
 6645TIP3    H219900   4.763   3.105   1.209 -0.5070  0.6036  0.3121
 6646TIP3   OH219901   1.484   1.939   2.744 -0.9995 -0.1667  0.2645
 6646TIP3    H119902   1.518   2.021   2.710  0.0735 -0.0208  1.6161
 6646TIP3    H219903   1.406   1.922   2.691  1.1653 -0.5994 -3.0598
 6647TIP3   OH219904   4.509   2.918   5.888 -0.2227 -0.0080  0.2481
 6647TIP3    H119905   4.424   2.911   5.844 -0.3584  0.2107  0.4726
 6647TIP3    H219906   4.573   2.917   5.817 -0.3814 -0.6454  0.1012
 6648TIP3   OH219907   6.214   5.194   1.668  0.3307  0.4991  0.0804
 6648TIP3    H119908   6.157   5.127   1.705  0.0173  0.7495  0.0622
 6648TIP3    H219909   6.167   5.276   1.683  0.1964  0.6118 -0.8605
 6649TIP3   OH219910   2.563   3.206   5.734  0.3962 -0.7405 -0.0699
 6649TIP3    H119911   2.614   3.213   5.815 -0.3156 -0.3860  0.3485
 6649TIP3    H219912   2.524   3.118   5.738 -0.3783 -0.3861  0.4206
 6650TIP3   OH219913   6.355   3.488   1.668 -0.4214  0.2684 -0.3773
 6650TIP3    H119914   6.400   3.484   1.584 -0.1394  0.0487 -0.2164
 6650TIP3    H219915   6.411   3.545   1.722  0.4826 -1.2214  0.3123
 6651TIP3   OH219916   5.349   5.356   1.013 -0.3627  0.7551  0.6830
 6651TIP3    H119917   5.339   5.261   1.011  0.3715  0.6839 -0.3372
 6651TIP3    H219918   5.261   5.390   1.000 -0.5756  0.2125  0.6778
 6652TIP3   OH219919   6.715   0.215   5.205 -0.3525 -0.4099  0.1204
 6652TIP3    H119920   6.642   0.256   5.160 -2.9732 -2.2208  2.4276
 6652TIP3    H219921   6.759   0.163   5.137 -1.5391  0.2542 -1.2052
 6653TIP3   OH219922   1.836   6.210   3.531 -0.7167 -0.6000 -0.7842
 6653TIP3    H119923   1.810   6.294   3.569 -1.6433  0.4988 -3.6252
 6653TIP3    H219924   1.930   6.205   3.546 -0.7897  0.4837  0.1901
 6654TIP3   OH219925   5.829   0.047   0.986  0.0811  0.0663  0.0912
 6654TIP3    H119926   5.820  -0.039   1.026 -1.7596  0.1384 -0.0722
 6654TIP3    H219927   5.832   0.108   1.060  0.6973 -0.0784  0.1901
 6655TIP3   OH219928   2.826   4.838   3.764  0.5683 -0.5965 -0.0409
 6655TIP3    H119929   2.786   4.923   3.783  0.2297 -0.9666  0.9483
 6655TIP3    H219930   2.913   4.860   3.730  1.5545  0.1536  2.6673
 6656TIP3   OH219931   1.857   4.344   2.551 -0.2276  0.3603  0.0835
 6656TIP3    H119932   1.763   4.361   2.554 -0.2245  0.7593 -1.4908
 6656TIP3    H219933   1.865   4.261   2.503  0.3215  1.5489 -1.9536
 6657TIP3   OH219934   2.550   1.581   4.072 -0.0906  0.4798 -0.1287
 6657TIP3    H119935   2.573   1.568   3.980  1.4942  0.0685  0.2955
 6657TIP3    H219936   2.606   1.653   4.101 -0.3252  0.3815  0.5986
 6658TIP3   OH219937   0.558   3.963   5.615  0.3174 -0.3909  0.4043
 6658TIP3    H119938   0.501   3.930   5.546 -0.5411  2.5393 -0.4333
 6658TIP3    H219939   0.646   3.960   5.577 -0.0986  0.8087 -0.6991
 6659TIP3   OH219940   3.189   5.893   0.308 -0.2944  0.4708  0.7232
 6659TIP3    H119941   3.222   5.806   0.284 -0.2159 -0.1403  2.8709
 6659TIP3    H219942   3.189   5.942   0.226  3.5165 -0.2698  0.0789
 6660TIP3   OH219943   2.359   0.190   1.637 -0.0242 -0.3014 -0.4890
 6660TIP3    H119944   2.304   0.165   1.563 -0.3812  0.2388 -0.4058
 6660TIP3    H219945   2.447   0.194   1.600 -0.2576  0.4048 -0.9979
 6661TIP3   OH219946   4.787   1.451   0.955  0.3803  0.6182  0.2132
 6661TIP3    H119947   4.753   1.379   0.902 -0.4973 -0.8587  2.6557
 6661TIP3    H219948   4.718   1.517   0.954 -0.0162  0.2043  0.2871
 6662TIP3   OH219949   4.454   6.513   5.018  0.5504 -0.4788 -0.0182
 6662TIP3    H119950   4.485   6.499   5.107 -1.0832 -2.8989  0.2604
 6662TIP3    H219951   4.456   6.426   4.978  1.2017  0.5488 -2.3732
 6663TIP3   OH219952   1.483   1.022   4.051  0.0663  0.8746  0.1747
 6663TIP3    H119953   1.489   1.094   3.988  0.2416  1.5481  0.9409
 6663TIP3    H219954   1.536   1.051   4.125  0.6739 -0.3348  0.2330
 6664TIP3   OH219955   2.173   2.799   5.838 -0.1692 -0.9220 -0.1231
 6664TIP3    H119956   2.204   2.847   5.761  0.0050 -1.0322 -0.1224
 6664TIP3    H219957   2.219   2.840   5.912 -0.2660 -0.8771 -0.0869
 6665TIP3   OH219958   0.700   1.182   1.711  1.0225  0.0559 -0.0025
 6665TIP3    H119959   0.621   1.203   1.662  1.2305 -0.1323 -0.4295
 6665TIP3    H219960   0.668   1.150   1.796  0.6641  0.5021  0.0320
 6666TIP3   OH219961   4.634   4.602   3.956  0.2546  0.4613  0.0429
 6666TIP3    H119962   4.547   4.581   3.922  0.3647 -0.4344  0.2832
 6666TIP3    H219963   4.681   4.519   3.955  0.7126  0.6887  1.0418
 6667TIP3   OH219964   3.736   1.022   0.222  0.8304 -0.1789  0.0106
 6667TIP3    H119965   3.686   0.940   0.217 -1.6769  0.9475  3.1181
 6667TIP3    H219966   3.819   0.998   0.262  0.6680 -1.3673 -0.3341
 6668TIP3   OH219967   0.801   0.412   5.752  0.3807 -0.5990 -0.6508
 6668TIP3    H119968   0.802   0.440   5.660 -1.0542 -1.5280 -0.9723
 6668TIP3    H219969   0.845   0.327   5.752  0.9985 -0.2926 -0.3410
 6669TIP3   OH219970   0.172   6.097   0.944 -0.3317  0.6906  0.0785
 6669TIP3    H119971   0.248   6.098   1.002  0.3722  3.6304 -0.6757
 6669TIP3    H219972   0.110   6.158   0.984 -1.9681 -0.9947  0.2236
 6670TIP3   OH219973   1.660   3.726   2.861  0.5670 -0.1624  0.5296
 6670TIP3    H119974   1.674   3.808   2.909 -0.5900  0.8863 -0.8181
 6670TIP3    H219975   1.744   3.708   2.818  0.7014  0.6036  0.4503
 6671TIP3   OH219976   2.324   5.236   3.022  0.2549  0.1727  0.3218
 6671TIP3    H119977   2.380   5.162   2.999  0.1750  0.1945  0.0528
 6671TIP3    H219978   2.322   5.236   3.118 -2.0481 -1.9739  0.3726
 6672TIP3   OH219979   4.203   4.747   4.740 -0.2123 -0.0288  0.3861
 6672TIP3    H119980   4.150   4.811   4.787  1.6688  2.0640 -0.2032
 6672TIP3    H219981   4.210   4.781   4.651  1.5027 -0.5920  0.2566
 6673TIP3   OH219982   2.587   0.793   4.046  0.3972  0.6071 -0.3437
 6673TIP3    H119983   2.556   0.883   4.056 -2.6826 -0.2305 -1.1835
 6673TIP3    H219984   2.619   0.788   3.956  1.3220  1.0067 -0.0539
 6674TIP3   OH219985   4.714   1.158   3.089 -0.1689  0.1564  0.4388
 6674TIP3    H119986   4.646   1.125   3.031 -0.1723  0.1860  0.4258
 6674TIP3    H219987   4.795   1.150   3.039  0.1510 -1.7917  1.1975
 6675TIP3   OH219988   1.368   5.106   2.661  0.5157  0.2292 -0.0113
 6675TIP3    H119989   1.278   5.092   2.692  0.4223  0.0938 -0.3405
 6675TIP3    H219990   1.418   5.126   2.740  0.2883 -0.1692  0.2332
 6676TIP3   OH219991   6.650   4.229   4.494 -0.0671 -0.1792 -0.1018
 6676TIP3    H119992   6.719   4.178   4.536 -0.0950  1.9066  2.7283
 6676TIP3    H219993   6.638   4.305   4.550 -2.1413  1.4256 -2.4852
 6677TIP3   OH219994   1.555   6.089   0.989 -0.0023  0.0347 -0.3726
 6677TIP3    H119995   1.475   6.122   0.947 -1.0401 -2.8159 -0.8145
 6677TIP3    H219996   1.589   6.023   0.928  1.5491 -0.3050  0.7927
 6678TIP3   OH219997   7.083   3.349   3.023 -0.5549  0.1797  0.4264
 6678TIP3    H119998   7.140   3.425   3.026 -1.5456  0.9129  1.4426
 6678TIP3    H219999   7.005   3.378   2.975 -0.9922 -0.1331  0.9236
 6679TIP3   OH220000   1.374   5.104   3.134 -0.2292  0.4236 -0.4506
 6679TIP3    H120001   1.438   5.165   3.170 -0.3983 -0.0687  0.7275
 6679TIP3    H220002   1.391   5.021   3.179 -1.0198  0.0198 -0.8695
 6680TIP3   OH220003   6.972   4.483   5.450 -0.0624 -0.0362  0.3473
 6680TIP3    H120004   6.888   4.464   5.490 -0.0060 -2.1128 -0.4043
 6680TIP3    H220005   6.951   4.513   5.361 -0.0230  0.4169  0.4851
 6681TIP3   OH220006   3.343   3.907   2.073  0.5643  0.0265  0.7683
 6681TIP3    H120007   3.412   3.942   2.129  0.2278 -0.2021  1.3247
 6681TIP3    H220008   3.326   3.977   2.010  1.3398  0.0681  0.5872
 6682TIP3   OH220009   6.227   1.463   5.281  0.2840  0.3176 -0.3319
 6682TIP3    H120010   6.320   1.486   5.278  0.6688 -0.8702  1.2003
 6682TIP3    H220011   6.218   1.392   5.218  0.5319  0.0727 -0.0946
 6683TIP3   OH220012   4.640   2.142   4.958  0.6221 -0.1289 -0.1802
 6683TIP3    H120013   4.612   2.204   5.025 -0.0635  0.1944 -0.7581
 6683TIP3    H220014   4.562   2.129   4.904  0.8727 -1.1784 -0.3089
 6684TIP3   OH220015   1.331   3.641   3.576  0.3211 -0.3271  0.5457
 6684TIP3    H120016   1.239   3.662   3.592  0.1072  0.5559 -1.5083
 6684TIP3    H220017   1.378   3.721   3.599  0.2883  0.0213 -0.5096
 6685TIP3   OH220018   1.419   5.670   3.466 -0.2898 -0.4664  0.4848
 6685TIP3    H120019   1.488   5.604   3.460  0.9525  0.9134 -2.7491
 6685TIP3    H220020   1.449   5.730   3.535  1.3252 -0.4238 -0.2073
 6686TIP3   OH220021   1.021   3.837   3.265 -0.0692 -0.2380  0.4904
 6686TIP3    H120022   1.091   3.881   3.217 -0.4462  2.5326  2.2525
 6686TIP3    H220023   1.034   3.864   3.356 -1.7429 -2.0405  1.3339
 6687TIP3   OH220024   4.943   6.669   0.821  0.0655  0.3159 -0.0516
 6687TIP3    H120025   4.949   6.596   0.760  1.4646  1.7430 -1.7396
 6687TIP3    H220026   4.894   6.736   0.773 -1.1268  0.5628  1.4245
 6688TIP3   OH220027   6.198   4.626   1.332 -0.4812 -0.3213  0.0159
 6688TIP3    H120028   6.155   4.597   1.252 -1.6924 -1.2195  0.9611
 6688TIP3    H220029   6.267   4.686   1.302 -0.1213 -1.5497 -1.7697
 6689TIP3   OH220030   2.697   3.297   1.710 -0.3209  0.4128  0.1683
 6689TIP3    H120031   2.754   3.280   1.785  1.2726  2.1598 -0.5399
 6689TIP3    H220032   2.747   3.264   1.635 -1.3090 -0.1412 -0.2575
 6690TIP3   OH220033   0.846   6.649   4.376  0.4966 -0.5257 -0.2923
 6690TIP3    H120034   0.828   6.705   4.452  0.7036  0.4643 -0.9602
 6690TIP3    H220035   0.930   6.607   4.397  1.2887  0.8568 -0.5889
 6691TIP3   OH220036   4.466   3.222   0.485 -0.3896  0.3688 -0.8229
 6691TIP3    H120037   4.440   3.141   0.441 -0.6820 -0.7811  1.3278
 6691TIP3    H220038   4.553   3.203   0.521 -0.5194  0.9417 -0.1761
 6692TIP3   OH220039   6.137   3.960   3.458  0.4948 -0.2259 -0.3424
 6692TIP3    H120040   6.206   3.954   3.392  1.4391  2.3684  0.2994
 6692TIP3    H220041   6.160   3.895   3.524  1.0743 -0.9225 -1.2110
 6693TIP3   OH220042   1.458   3.657   4.748  0.1015 -0.5394  0.1230
 6693TIP3    H120043   1.464   3.673   4.842 -1.5130 -0.8479  0.3067
 6693TIP3    H220044   1.504   3.575   4.734  0.6942 -0.2890  0.5676
 6694TIP3   OH220045   0.480   0.219   5.675 -0.1233  0.3637  0.2736
 6694TIP3    H120046   0.403   0.192   5.725 -0.7103 -0.4563 -1.0002
 6694TIP3    H220047   0.535   0.264   5.738 -2.0140  1.7305  1.0438
 6695TIP3   OH220048   6.760   2.306   5.320 -0.1735 -0.1276 -0.1064
 6695TIP3    H120049   6.762   2.323   5.226  1.5295 -0.8302 -0.2459
 6695TIP3    H220050   6.851   2.287   5.342 -0.4152  0.7565  1.8429
 6696TIP3   OH220051   3.807   0.683   5.811 -0.4711  0.5621  0.0090
 6696TIP3    H120052   3.893   0.642   5.808  0.0902  1.6578  0.6043
 6696TIP3    H220053   3.763   0.652   5.731  0.5012  0.0679 -0.3513
 6697TIP3   OH220054   4.686   0.100   0.699  0.4778  0.0739 -0.1239
 6697TIP3    H120055   4.669   0.053   0.781  1.7320 -0.2638 -0.0425
 6697TIP3    H220056   4.706   0.189   0.726 -0.2752  0.2658 -0.1641
 6698TIP3   OH220057   3.676   4.527   4.247  0.6446 -0.1462  0.0973
 6698TIP3    H120058   3.602   4.558   4.195  0.3097  1.0386  1.2053
 6698TIP3    H220059   3.729   4.606   4.262  0.0921 -0.1404  2.5088
 6699TIP3   OH220060   0.408   3.435   1.510  0.1766  0.2741 -0.4741
 6699TIP3    H120061   0.487   3.416   1.459  1.3389  0.3297  1.2453
 6699TIP3    H220062   0.426   3.399   1.597 -2.9117 -2.4585 -0.7803
 6700TIP3   OH220063   6.767   2.597   4.038  0.1277 -0.2653 -0.1414
 6700TIP3    H120064   6.818   2.627   4.114  0.9545 -3.4700  0.7292
 6700TIP3    H220065   6.734   2.678   3.998  2.9485  1.7911  1.3106
 6701TIP3   OH220066   5.885   5.873   0.694 -0.1171 -0.3919  0.6287
 6701TIP3    H120067   5.924   5.820   0.763  1.0000 -0.8448 -0.3075
 6701TIP3    H220068   5.844   5.809   0.636  3.2725 -0.6372 -1.8163
 6702TIP3   OH220069   1.502   1.552   3.181  0.4750 -0.5669 -0.7628
 6702TIP3    H120070   1.585   1.516   3.151  0.9688 -1.2047  1.2511
 6702TIP3    H220071   1.499   1.641   3.144  2.2436 -0.3828 -0.5161
 6703TIP3   OH220072   0.446   1.017   1.214  0.4417  0.2135 -0.2330
 6703TIP3    H120073   0.521   1.014   1.155  1.1370  1.7159  0.5117
 6703TIP3    H220074   0.436   0.928   1.247  0.0874 -0.6531 -2.5134
 6704TIP3   OH220075   7.065   3.198   1.655 -0.7265  0.2297 -0.3898
 6704TIP3    H120076   7.046   3.269   1.593 -2.7156  0.3888  0.3242
 6704TIP3    H220077   7.010   3.126   1.626 -0.3184 -0.3034  0.1440
 6705TIP3   OH220078   2.033   2.641   1.794  0.1911 -0.4342 -0.1831
 6705TIP3    H120079   1.976   2.628   1.870 -2.2728 -0.2257 -1.8439
 6705TIP3    H220080   1.987   2.707   1.742  2.5829  0.5575 -1.1443
 6706TIP3   OH220081   2.324   0.754   2.868  0.2212 -0.1112  0.0472
 6706TIP3    H120082   2.307   0.847   2.879 -0.0799  0.0652 -1.6728
 6706TIP3    H220083   2.238   0.713   2.876  0.5173 -0.4351  2.1655
 6707TIP3   OH220084   2.596   3.089   0.805  0.2708 -0.4881 -0.3997
 6707TIP3    H120085   2.617   3.014   0.859 -3.5611 -2.8523 -1.7457
 6707TIP3    H220086   2.643   3.074   0.723 -0.3284 -1.3868 -0.5933
 6708TIP3   OH220087   4.895   0.081   1.796  0.4130  0.2624 -0.1799
 6708TIP3    H120088   4.961   0.047   1.856  0.4948  0.7411  0.0099
 6708TIP3    H220089   4.896   0.176   1.811 -0.8484  0.2062  0.3816
 6709TIP3   OH220090   3.020   6.152   2.524 -0.1718  0.0619 -0.0393
 6709TIP3    H120091   3.089   6.182   2.584 -0.1426 -0.7897  0.3592
 6709TIP3    H220092   3.029   6.210   2.448  2.2281 -1.1727 -0.8143
 6710TIP3   OH220093   5.361   3.133   2.584  0.4280  0.7023  0.1187
 6710TIP3    H120094   5.451   3.142   2.616  0.7612 -1.3833 -0.1278
 6710TIP3    H220095   5.347   3.212   2.532  1.2557  2.2362  2.0574
 6711TIP3   OH220096   5.694   2.301   0.643  0.1603  0.0276 -0.0752
 6711TIP3    H120097   5.612   2.347   0.626  1.6738  2.5340 -1.0890
 6711TIP3    H220098   5.726   2.277   0.556  1.0458  0.0769  0.2300
 6712TIP3   OH220099   0.922   3.072   0.904 -0.7228 -0.2189  0.3823
 6712TIP3    H120100   0.868   3.102   0.977  0.7688  1.8148  0.7109
 6712TIP3    H220101   0.971   3.149   0.876 -0.8943 -1.0368 -2.5067
 6713TIP3   OH220102   6.511   3.899   2.646  0.6543  0.8136  0.2418
 6713TIP3    H120103   6.480   3.905   2.736 -0.2311  1.7178 -0.0912
 6713TIP3    H220104   6.445   3.948   2.596  0.3723 -0.8333 -1.0728
 6714TIP3   OH220105   1.331   2.968   4.722  0.3377  0.0807 -0.0417
 6714TIP3    H120106   1.386   2.971   4.644 -1.5771 -0.1765 -1.4798
 6714TIP3    H220107   1.244   2.945   4.689 -0.2987 -1.2399  2.3205
 6715TIP3   OH220108   2.936   0.910   2.528 -0.3205 -0.2677  0.0731
 6715TIP3    H120109   2.881   0.833   2.509  0.0465 -0.6822  0.6700
 6715TIP3    H220110   2.884   0.984   2.498 -0.1442 -0.8260 -1.7171
 6716TIP3   OH220111   1.726   0.881   2.522 -0.6334 -0.1529 -0.8039
 6716TIP3    H120112   1.781   0.850   2.450 -1.5643  0.4273 -1.7929
 6716TIP3    H220113   1.636   0.870   2.490 -1.0470  0.7718 -0.0013
 6717TIP3   OH220114   4.399   4.837   2.937 -0.0039  0.9138 -0.4930
 6717TIP3    H120115   4.445   4.756   2.916 -1.4380 -0.0307 -0.1461
 6717TIP3    H220116   4.410   4.847   3.032 -1.7418 -0.1613 -0.1347
 6718TIP3   OH220117   0.186   1.476   3.821  0.0679  0.1297 -0.2735
 6718TIP3    H120118   0.252   1.429   3.870  0.2947 -0.3506 -1.0175
 6718TIP3    H220119   0.236   1.531   3.760 -0.2028 -0.6906 -1.2643
 6719TIP3   OH220120   5.245   6.217   1.695 -0.2111  0.1216  0.2907
 6719TIP3    H120121   5.240   6.131   1.735  0.9731  0.0286  0.2581
 6719TIP3    H220122   5.225   6.278   1.766  0.2147 -0.1214  0.6228
 6720TIP3   OH220123   3.011   4.274   5.317  0.6368  0.0039 -0.2716
 6720TIP3    H120124   2.928   4.320   5.326  0.7857  0.1986  0.1444
 6720TIP3    H220125   3.040   4.258   5.407  0.2318 -1.5700 -0.3972
 6721TIP3   OH220126   1.097   6.045   0.109 -0.2794 -0.2809  0.6047
 6721TIP3    H120127   1.143   6.128   0.119  0.2708 -0.7508  2.4661
 6721TIP3    H220128   1.144   6.000   0.038 -0.8760  1.1383 -0.7421
 6722TIP3   OH220129  -0.010   1.284   5.877  0.2117 -0.5990  0.2232
 6722TIP3    H120130  -0.039   1.333   5.800  0.7329  1.9453  1.5538
 6722TIP3    H220131   0.085   1.273   5.863  0.4191  0.4346  0.7900
 6723TIP3   OH220132   0.439   0.675   2.400  0.3786 -0.5010 -0.4110
 6723TIP3    H120133   0.378   0.634   2.461  0.1576  0.4014 -0.0097
 6723TIP3    H220134   0.521   0.627   2.412  0.0686 -0.9654 -0.1157
 6724TIP3   OH220135   2.181   5.036   0.380  0.0905  0.9023 -0.5912
 6724TIP3    H120136   2.259   5.042   0.324 -0.3099  0.2742 -1.2317
 6724TIP3    H220137   2.144   5.124   0.378  1.4603  1.5717  0.7601
 6725TIP3   OH220138   5.726   6.202   5.432 -0.3620 -0.5641 -0.0973
 6725TIP3    H120139   5.800   6.261   5.445 -0.0661 -1.0624  0.5261
 6725TIP3    H220140   5.761   6.115   5.449 -1.0729 -0.8169  0.1424
 6726TIP3   OH220141   3.859   5.981   1.080  0.5626 -0.1668  0.4103
 6726TIP3    H120142   3.881   5.999   1.172  0.6634  1.8333  0.0433
 6726TIP3    H220143   3.782   6.036   1.063 -0.5873 -1.9052 -0.2215
 6727TIP3   OH220144   3.342   6.304   4.526  0.1309 -0.4100 -0.1754
 6727TIP3    H120145   3.415   6.360   4.500  1.5141 -2.8058 -1.9228
 6727TIP3    H220146   3.264   6.356   4.510  1.3250  0.9918 -1.7378
 6728TIP3   OH220147   5.321   1.555   0.235 -0.0614 -0.2719  0.7114
 6728TIP3    H120148   5.416   1.563   0.235  0.0782 -0.6574 -2.6266
 6728TIP3    H220149   5.289   1.645   0.239  0.4549 -0.0920  0.8924
 6729TIP3   OH220150   5.367   6.142   4.741 -0.0615 -0.5369  0.2370
 6729TIP3    H120151   5.354   6.145   4.836 -3.5069  0.4957 -0.1098
 6729TIP3    H220152   5.413   6.060   4.725 -2.6521 -2.6192  2.5753
 6730TIP3   OH220153   1.535   3.935   3.915  0.0346  0.2862  0.5028
 6730TIP3    H120154   1.496   3.922   3.828 -1.7801  2.1911  0.9585
 6730TIP3    H220155   1.514   3.855   3.962 -1.0301  0.1906 -0.1067
 6731TIP3   OH220156   4.652   3.931   0.752  0.4421  0.4317 -0.8336
 6731TIP3    H120157   4.614   4.003   0.802  0.7415  1.3211 -1.8600
 6731TIP3    H220158   4.592   3.918   0.679  0.5506 -0.1610 -0.8216
 6732TIP3   OH220159   3.131   4.901   1.928 -0.4054 -0.7754  0.8186
 6732TIP3    H120160   3.066   4.933   1.990 -0.9195  1.8273 -0.9131
 6732TIP3    H220161   3.195   4.971   1.921  0.0665 -1.3284 -0.9480
 6733TIP3   OH220162   2.088   2.106   1.218  0.1924  1.0755  0.4918
 6733TIP3    H120163   2.082   2.177   1.282 -0.6014  1.5684 -0.1055
 6733TIP3    H220164   2.006   2.058   1.228  0.8871  0.0111  1.1483
 6734TIP3   OH220165   1.737   2.001   2.107  0.0422 -0.5879 -0.2628
 6734TIP3    H120166   1.660   2.021   2.160 -0.4132 -0.7625 -0.8444
 6734TIP3    H220167   1.708   2.015   2.017  0.3983 -1.6288 -0.5540
 6735TIP3   OH220168   1.908   3.302   3.944 -0.6769  0.3698  0.0869
 6735TIP3    H120169   1.854   3.251   3.884  1.5497  1.7124 -3.2884
 6735TIP3    H220170   1.863   3.386   3.951 -0.9977  0.1728  0.4097
 6736TIP3   OH220171   5.449   2.199   3.676 -0.2520 -0.0484  0.2410
 6736TIP3    H120172   5.508   2.158   3.740  0.0081 -0.6155 -0.3481
 6736TIP3    H220173   5.486   2.286   3.663  0.1170 -0.1861  0.3279
 6737TIP3   OH220174   3.002   3.113   1.776  0.1799 -0.2358  0.4607
 6737TIP3    H120175   3.025   3.151   1.860  1.7413 -0.5050  0.1815
 6737TIP3    H220176   2.931   3.052   1.796 -1.1212  1.4484  1.1801
 6738TIP3   OH220177   5.474   3.814   3.983 -0.5433  0.0279 -0.6421
 6738TIP3    H120178   5.388   3.814   4.025 -0.4379 -2.0421 -0.3306
 6738TIP3    H220179   5.536   3.815   4.056 -0.3607 -3.3614 -0.5932
 6739TIP3   OH220180   2.170   0.303   4.347 -0.4720 -0.0863  0.8451
 6739TIP3    H120181   2.249   0.356   4.334 -1.0285  0.7043  0.6236
 6739TIP3    H220182   2.198   0.232   4.405  0.1183  0.8644  1.7574
 6740TIP3   OH220183   6.896   0.847   0.464 -0.0625 -0.0154  0.0191
 6740TIP3    H120184   6.900   0.911   0.393 -3.6634 -0.9616 -1.2559
 6740TIP3    H220185   6.879   0.900   0.542 -0.7759  0.7421 -0.6260
 6741TIP3   OH220186   5.660   3.513   5.526  0.2266  0.8078 -0.1220
 6741TIP3    H120187   5.668   3.542   5.436 -0.4226  0.3619 -0.3305
 6741TIP3    H220188   5.575   3.546   5.555  0.3775  0.8473  0.2862
 6742TIP3   OH220189   1.973   3.620   3.562 -0.1515 -0.0958 -0.1419
 6742TIP3    H120190   1.990   3.525   3.557 -1.1698 -0.2918  0.0070
 6742TIP3    H220191   2.048   3.659   3.517 -0.0098 -1.0003 -0.7301
 6743TIP3   OH220192   6.258   5.711   3.496  0.0578 -0.3592  0.1646
 6743TIP3    H120193   6.267   5.630   3.547 -2.6658 -0.1329  1.1700
 6743TIP3    H220194   6.304   5.777   3.547 -2.5898 -0.1387  2.5112
 6744TIP3   OH220195   4.593   0.397   3.141  0.0285  0.4321 -0.5297
 6744TIP3    H120196   4.599   0.423   3.233  1.7149  0.1926 -0.5576
 6744TIP3    H220197   4.513   0.440   3.110  0.2460  1.7538  0.6436
 6745TIP3   OH220198   6.373   4.455   0.193  0.1138 -0.0465  0.1889
 6745TIP3    H120199   6.372   4.429   0.101 -1.4102 -0.8786  0.4039
 6745TIP3    H220200   6.386   4.550   0.191  1.0006 -0.1778 -0.8341
 6746TIP3   OH220201   6.710   5.830   4.449 -0.3255 -0.0929  0.3606
 6746TIP3    H120202   6.770   5.882   4.397 -0.1952 -1.3985 -0.8382
 6746TIP3    H220203   6.692   5.884   4.526  1.6476  0.7110  0.3131
 6747TIP3   OH220204   5.759   6.461   3.387 -0.0025 -0.0774 -0.2165
 6747TIP3    H120205   5.775   6.471   3.481  1.2779 -1.2372 -0.2872
 6747TIP3    H220206   5.821   6.520   3.346  1.4963 -1.6762 -0.3765
 6748TIP3   OH220207   6.853   5.108   2.002  0.1503  0.0531  0.9538
 6748TIP3    H120208   6.916   5.095   1.932  0.0273 -0.3241  0.9094
 6748TIP3    H220209   6.811   5.192   1.982 -0.2009 -0.2694  0.3288
 6749TIP3   OH220210   1.239   6.208   0.875  0.8564 -0.1289  0.1686
 6749TIP3    H120211   1.245   6.137   0.939  0.1347  0.4254  0.8770
 6749TIP3    H220212   1.207   6.166   0.795  1.4394 -0.7742  0.2685
 6750TIP3   OH220213   6.545   4.789   3.701 -0.0347 -0.3675 -0.1565
 6750TIP3    H120214   6.451   4.780   3.718 -0.0266  1.0810  0.8095
 6750TIP3    H220215   6.571   4.704   3.664 -1.3005 -1.5570  1.5240
 6751TIP3   OH220216   2.103   1.945   4.382  0.0068 -0.1294  0.0067
 6751TIP3    H120217   2.155   1.951   4.302  1.9002 -2.1921  0.9709
 6751TIP3    H220218   2.163   1.908   4.447 -1.6995  0.6888  2.1697
 6752TIP3   OH220219   6.814   3.902   5.209 -0.1487 -0.4093  0.4404
 6752TIP3    H120220   6.854   3.936   5.130 -0.5663 -1.4507 -0.2335
 6752TIP3    H220221   6.886   3.862   5.258  0.1929  0.6462  0.8330
 6753TIP3   OH220222   3.563   6.536   1.240 -0.2908 -0.0493  0.2871
 6753TIP3    H120223   3.494   6.554   1.176  0.1834 -1.1693 -0.5700
 6753TIP3    H220224   3.547   6.598   1.311 -1.4750  0.4909 -0.4303
 6754TIP3   OH220225   6.164   1.905   0.846  0.6996  0.3476  0.0314
 6754TIP3    H120226   6.147   1.898   0.752  1.5706  1.2041 -0.2019
 6754TIP3    H220227   6.097   1.849   0.886  0.9560 -0.8539 -1.1421
 6755TIP3   OH220228   2.375   3.825   3.251  0.6653 -0.3254  0.4000
 6755TIP3    H120229   2.299   3.862   3.206  0.1959  0.0677  1.4676
 6755TIP3    H220230   2.380   3.735   3.219  0.4759 -0.0004 -0.5740
 6756TIP3   OH220231   0.899   6.477   0.123 -0.0884  0.2923  0.2912
 6756TIP3    H120232   0.862   6.560   0.155 -1.3239 -0.4197  0.7715
 6756TIP3    H220233   0.836   6.445   0.059  0.1562 -0.5049  0.4334
 6757TIP3   OH220234   6.094   1.095   4.729  0.0750 -0.6498 -0.3676
 6757TIP3    H120235   6.010   1.079   4.687  0.5551 -2.5509 -0.6992
 6757TIP3    H220236   6.156   1.041   4.680  1.2110 -0.4942  0.8348
 6758TIP3   OH220237   2.025   2.190   3.088 -0.1056  0.2742  0.7945
 6758TIP3    H120238   1.936   2.188   3.052 -0.5398  1.0285  1.7782
 6758TIP3    H220239   2.012   2.190   3.183  0.9988 -1.4276  1.0017
 6759TIP3   OH220240   2.982   1.096   0.214 -0.0940 -0.6129  0.2110
 6759TIP3    H120241   2.929   1.125   0.288  1.4628  1.7043  0.5244
 6759TIP3    H220242   2.925   1.036   0.165 -0.9745 -2.8140  3.5763
 6760TIP3   OH220243   2.523   3.683   5.177  0.4592  0.2634  0.1140
 6760TIP3    H120244   2.451   3.620   5.173  1.7479 -1.1935 -2.3687
 6760TIP3    H220245   2.503   3.747   5.109  0.0496  1.5840  1.4383
 6761TIP3   OH220246   2.310   2.157   2.355  0.3635  0.2102  0.1977
 6761TIP3    H120247   2.266   2.233   2.317  2.3784  1.6030  0.5220
 6761TIP3    H220248   2.357   2.192   2.431  2.4432 -1.0635 -0.4214
 6762TIP3   OH220249   6.806   2.498   5.034  0.6362 -0.1260 -0.0501
 6762TIP3    H120250   6.752   2.577   5.036  1.7818  0.6835  1.8121
 6762TIP3    H220251   6.864   2.507   5.110  0.0773 -3.2875  0.8619
 6763TIP3   OH220252   4.701   6.112   2.782  0.4980  0.1319  0.3333
 6763TIP3    H120253   4.781   6.076   2.820 -0.7730 -3.2408  0.1665
 6763TIP3    H220254   4.643   6.126   2.857  0.4249  0.3185  0.2432
 6764TIP3   OH220255   7.067   4.928   5.010  0.5722  0.4367  0.3179
 6764TIP3    H120256   7.131   4.966   4.950  1.2412 -1.8869 -0.5769
 6764TIP3    H220257   7.111   4.927   5.095  2.1179 -1.7354 -0.4077
 6765TIP3   OH220258   5.911   5.229   1.620  0.4353  0.4188  0.6903
 6765TIP3    H120259   5.966   5.305   1.598  0.5331  0.5063  1.2301
 6765TIP3    H220260   5.866   5.208   1.538  0.6816  0.8351  0.4430
 6766TIP3   OH220261   5.461   2.737   2.379  0.2064 -0.2491  0.0102
 6766TIP3    H120262   5.525   2.777   2.319 -1.0719  1.0570 -0.5637
 6766TIP3    H220263   5.513   2.684   2.439  1.8905  1.2905 -0.0185
 6767TIP3   OH220264   3.056   6.157   1.589 -0.3689  0.1068  0.0878
 6767TIP3    H120265   3.055   6.097   1.514  0.1830  0.2058  0.0008
 6767TIP3    H220266   2.988   6.123   1.648 -1.9894  0.9493 -1.1786
 6768TIP3   OH220267   3.208   1.788   4.279  0.4600 -0.0264  0.5376
 6768TIP3    H120268   3.300   1.812   4.283 -0.0227  1.9487  1.2939
 6768TIP3    H220269   3.176   1.800   4.368 -0.6548 -0.1200  0.1707
 6769TIP3   OH220270   4.667   2.914   2.969 -0.4342 -0.0794 -0.1856
 6769TIP3    H120271   4.650   3.009   2.971  1.1831  0.2515 -0.5976
 6769TIP3    H220272   4.761   2.907   2.984 -0.3037 -1.5500 -1.4997
 6770TIP3   OH220273   6.815   0.418   5.383  0.3325 -0.0215  0.1992
 6770TIP3    H120274   6.739   0.466   5.415  0.1354 -1.0257  1.3566
 6770TIP3    H220275   6.782   0.365   5.311 -0.0402 -0.3186  0.5802
 6771TIP3   OH220276   7.212   2.564   2.073  0.1208 -0.3438 -0.0529
 6771TIP3    H120277   7.164   2.634   2.117 -1.9689 -0.9082 -1.3135
 6771TIP3    H220278   7.206   2.585   1.980  3.0162 -0.0623 -0.2702
 6772TIP3   OH220279   1.391   1.067   1.225  0.0618  0.6985  0.0688
 6772TIP3    H120280   1.424   1.141   1.175 -0.4119  1.8407  1.3662
 6772TIP3    H220281   1.299   1.061   1.202 -0.0331  0.8909  0.3839
 6773TIP3   OH220282   0.687   4.084   2.993  0.5731 -0.4085 -0.2842
 6773TIP3    H120283   0.770   4.040   2.978  2.1139  1.9948  0.5835
 6773TIP3    H220284   0.709   4.158   3.049 -2.0676  0.6694 -0.5215
 6774TIP3   OH220285   3.532   3.414   4.979 -0.1319 -0.0471  0.0549
 6774TIP3    H120286   3.481   3.439   5.057 -0.8522  0.0965 -0.4461
 6774TIP3    H220287   3.492   3.332   4.950  1.3035 -1.0671  0.8603
 6775TIP3   OH220288   3.660   1.415   4.209 -0.4972 -0.1296 -0.5408
 6775TIP3    H120289   3.673   1.335   4.159 -3.1902 -0.9596 -0.0585
 6775TIP3    H220290   3.574   1.446   4.183 -0.2319  1.6778  0.5679
 6776TIP3   OH220291   4.611   3.315   3.844 -0.1100 -0.4950  0.2830
 6776TIP3    H120292   4.594   3.250   3.777 -1.4424  0.8390 -0.7456
 6776TIP3    H220293   4.527   3.329   3.886  0.3620 -0.1276  1.1320
 6777TIP3   OH220294   6.665   4.472   2.752 -0.4797  0.5585 -0.5793
 6777TIP3    H120295   6.580   4.459   2.711 -1.2025  0.3197  0.9425
 6777TIP3    H220296   6.722   4.406   2.712 -1.1036  0.4680 -1.3319
 6778TIP3   OH220297   5.686   5.006   4.087  0.1995 -0.0863  0.3409
 6778TIP3    H120298   5.679   4.951   4.165 -0.4444  0.5088  0.7101
 6778TIP3    H220299   5.760   5.064   4.105 -0.8937  1.0939  1.1916
 6779TIP3   OH220300   3.163   4.336   2.273  0.0744 -0.0790  0.3471
 6779TIP3    H120301   3.254   4.305   2.272  0.1885  0.2454 -0.6152
 6779TIP3    H220302   3.117   4.274   2.328  0.8030 -0.4917  0.5072
 6780TIP3   OH220303   1.446   5.495   2.473  0.1462 -0.5738 -0.7621
 6780TIP3    H120304   1.361   5.476   2.512  0.5245 -0.8725 -0.0663
 6780TIP3    H220305   1.474   5.411   2.435 -0.2757 -0.2576 -1.8116
 6781TIP3   OH220306   3.080   2.875   3.939  0.5594  0.5714 -0.5084
 6781TIP3    H120307   3.047   2.959   3.908 -0.4208  0.8908  1.2548
 6781TIP3    H220308   3.020   2.810   3.904 -0.4510  0.9144  0.5111
 6782TIP3   OH220309   0.281   5.333   5.560  0.3265  0.1901  0.0106
 6782TIP3    H120310   0.351   5.376   5.510 -0.2111  0.2554 -0.7053
 6782TIP3    H220311   0.286   5.373   5.647  0.5213  0.9482 -0.3345
 6783TIP3   OH220312   3.808   0.058   3.623 -0.4743 -0.5052  0.0038
 6783TIP3    H120313   3.749   0.126   3.591 -1.1253 -0.7438  0.6538
 6783TIP3    H220314   3.890   0.104   3.642 -0.5953 -0.0855 -0.4765
 6784TIP3   OH220315   2.540   2.488   1.673  0.0709 -0.0920 -0.4935
 6784TIP3    H120316   2.500   2.570   1.647 -0.6459 -0.3694 -0.2841
 6784TIP3    H220317   2.555   2.497   1.767  0.3747 -0.0434 -0.5452
 6785TIP3   OH220318   4.392   2.136   1.168 -0.7777  0.5265  0.6921
 6785TIP3    H120319   4.395   2.142   1.072  0.3167 -0.6149  0.6133
 6785TIP3    H220320   4.300   2.121   1.188 -0.9137 -0.0393 -0.2611
 6786TIP3   OH220321   2.404   1.201  -0.003 -0.6661 -0.0290 -0.3665
 6786TIP3    H120322   2.481   1.158  -0.041 -1.9161 -1.4688 -1.4243
 6786TIP3    H220323   2.369   1.137   0.059 -2.7799 -0.8415 -2.2427
 6787TIP3   OH220324   3.841   0.180   4.573  0.1385 -0.2197 -0.0719
 6787TIP3    H120325   3.847   0.270   4.541  0.9464 -0.7153 -1.4127
 6787TIP3    H220326   3.931   0.158   4.597  0.1138 -0.9434 -0.6016
 6788TIP3   OH220327   3.654   0.056   4.773  0.5927 -0.3368  0.0368
 6788TIP3    H120328   3.693   0.123   4.715 -0.7396 -0.4769 -1.0803
 6788TIP3    H220329   3.561   0.077   4.773  0.2052 -1.9550 -0.0106
 6789TIP3   OH220330   1.140   5.343   3.424  0.1785  0.1698 -0.2890
 6789TIP3    H120331   1.117   5.318   3.514  0.9810 -2.2529 -0.6851
 6789TIP3    H220332   1.089   5.283   3.369 -0.1754  1.5153 -1.4829
 6790TIP3   OH220333   6.689   6.261   5.504 -0.2179 -0.2028  1.1030
 6790TIP3    H120334   6.723   6.349   5.518 -0.7970 -0.0266  1.4324
 6790TIP3    H220335   6.712   6.214   5.584  0.3445 -0.4406  0.8108
 6791TIP3   OH220336   4.922   1.263   2.200 -0.6013  0.3720  0.2300
 6791TIP3    H120337   4.833   1.297   2.195 -1.3087 -1.2706  1.1038
 6791TIP3    H220338   4.977   1.342   2.201 -2.1218  1.4913  1.4671
 6792TIP3   OH220339   2.275   2.237   1.679  0.4343 -0.2553 -0.7008
 6792TIP3    H120340   2.367   2.210   1.679  0.6762  0.5391 -0.8183
 6792TIP3    H220341   2.266   2.292   1.757 -0.0475 -0.6824 -0.4554
 6793TIP3   OH220342   2.019   4.039   1.083  0.3317 -0.2250 -0.0362
 6793TIP3    H120343   2.078   3.998   1.019  0.0328 -0.5225 -0.1263
 6793TIP3    H220344   2.073   4.053   1.160  0.4462 -0.7933 -0.0077
 6794TIP3   OH220345   2.980   3.581   1.454 -0.1897 -0.2628 -0.0984
 6794TIP3    H120346   2.904   3.607   1.506 -0.2198  0.7728 -0.6359
 6794TIP3    H220347   3.043   3.549   1.518 -0.7219 -0.2450  0.4430
 6795TIP3   OH220348   0.759   0.918   4.804  0.2866 -0.2446 -0.1742
 6795TIP3    H120349   0.687   0.968   4.765  1.3775  1.1878 -0.4248
 6795TIP3    H220350   0.822   0.907   4.732  0.6284 -0.8758  0.2154
 6796TIP3   OH220351   5.447   5.135   4.952 -0.2249  0.3705  0.2887
 6796TIP3    H120352   5.537   5.104   4.942 -0.0966  0.9360 -0.3844
 6796TIP3    H220353   5.402   5.062   4.994  0.4864 -0.0184  0.4005
 6797TIP3   OH220354   4.992   5.260   4.051  0.1074 -0.1869  0.6277
 6797TIP3    H120355   4.997   5.237   4.144  1.8844  0.2962  0.6850
 6797TIP3    H220356   5.071   5.222   4.013 -0.1439  0.3988 -0.5148
 6798TIP3   OH220357   0.417   2.408   0.159  0.2095  0.6146 -0.1417
 6798TIP3    H120358   0.479   2.372   0.095 -0.0804  1.5819 -0.9837
 6798TIP3    H220359   0.356   2.336   0.175  0.4951  0.2446 -0.6744
 6799TIP3   OH220360   2.552   5.673   3.117  0.0306 -0.1110  0.1968
 6799TIP3    H120361   2.463   5.643   3.098  0.8363 -2.7420  0.2204
 6799TIP3    H220362   2.579   5.719   3.037 -0.9439 -0.2940 -0.2521
 6800TIP3   OH220363   4.631   4.866   0.961  0.4459  0.3673  0.1490
 6800TIP3    H120364   4.628   4.778   0.999 -1.3799 -0.5263 -1.8255
 6800TIP3    H220365   4.600   4.923   1.031  2.7925 -0.3229  1.8679
 6801TIP3   OH220366   5.205   3.678   2.902  0.2045 -0.3445 -0.1219
 6801TIP3    H120367   5.238   3.726   2.826  1.2682 -1.1610 -0.1922
 6801TIP3    H220368   5.135   3.623   2.867  0.5611 -0.5753 -0.4816
 6802TIP3   OH220369   3.194   0.270   4.456  0.1021 -0.7883 -0.4783
 6802TIP3    H120370   3.226   0.207   4.391  0.1316 -2.4385  1.0422
 6802TIP3    H220371   3.258   0.341   4.453  1.6761 -2.1135 -0.3908
 6803TIP3   OH220372   4.129   5.506   5.489 -0.1805  0.1578 -0.8923
 6803TIP3    H120373   4.164   5.425   5.454  0.6278  1.0832 -2.3395
 6803TIP3    H220374   4.076   5.479   5.564  2.6424 -1.4164  0.6837
 6804TIP3   OH220375   4.527   5.583   4.286  0.0460  0.2591  0.0425
 6804TIP3    H120376   4.600   5.524   4.302  0.3267  0.6445  0.2209
 6804TIP3    H220377   4.568   5.665   4.259 -0.2783  0.7583  1.0325
 6805TIP3   OH220378   6.117   0.585   0.687 -0.7287 -0.3860  0.3820
 6805TIP3    H120379   6.100   0.644   0.613  2.4174 -1.5753 -1.4822
 6805TIP3    H220380   6.170   0.637   0.747  0.0951 -0.5766 -0.1613
 6806TIP3   OH220381   3.964   5.941   4.876 -0.7901  0.4383 -0.6690
 6806TIP3    H120382   3.901   5.935   4.803  0.4903 -1.3192 -1.6966
 6806TIP3    H220383   4.041   5.982   4.837  0.0942 -0.9824 -0.4742
 6807TIP3   OH220384   3.196   2.095   0.352 -0.3253  0.3142  0.1145
 6807TIP3    H120385   3.185   2.134   0.265 -0.4609  2.0368  0.8777
 6807TIP3    H220386   3.124   2.131   0.404  0.7522  0.6726  1.4087
 6808TIP3   OH220387   1.691   5.562   3.998  0.0212 -0.0832 -0.3442
 6808TIP3    H120388   1.724   5.522   4.078 -1.6102  1.9019  1.4415
 6808TIP3    H220389   1.668   5.488   3.942  0.0393 -1.5794  1.5215
 6809TIP3   OH220390   7.105   2.313   1.945  0.4165  0.2331  0.4158
 6809TIP3    H120391   7.076   2.245   2.006  0.6612  0.5297  0.8665
 6809TIP3    H220392   7.150   2.377   2.000  1.1851  0.1949 -0.1666
 6810TIP3   OH220393   3.245   2.293   0.589  0.4667  0.7443 -0.1737
 6810TIP3    H120394   3.304   2.311   0.662 -0.7321  1.1488  0.7206
 6810TIP3    H220395   3.293   2.322   0.511  1.6025  0.6726  0.4769
 6811TIP3   OH220396   3.106   3.532   1.687 -0.5362  0.0940  0.0980
 6811TIP3    H120397   3.102   3.492   1.774  0.3251 -0.0357  0.0857
 6811TIP3    H220398   3.124   3.624   1.705 -2.0494  0.4202  0.1071
 6812TIP3   OH220399   1.267   1.525   4.313  0.1181  0.4156 -0.0300
 6812TIP3    H120400   1.196   1.580   4.281 -0.6704 -0.3820  0.2978
 6812TIP3    H220401   1.236   1.493   4.398  1.5391  1.3084  0.8570
 6813TIP3   OH220402   4.239   4.175   5.331  0.3194 -0.0640  0.4327
 6813TIP3    H120403   4.226   4.087   5.367  1.8375  0.1051  1.4567
 6813TIP3    H220404   4.170   4.228   5.371  0.3405 -0.4644  1.0085
 6814TIP3   OH220405   6.498   4.839   5.488 -0.3351 -0.1675 -0.5491
 6814TIP3    H120406   6.457   4.776   5.547  1.1431 -0.4065  0.2531
 6814TIP3    H220407   6.513   4.791   5.407  2.4169 -1.4571  0.6332
 6815TIP3   OH220408   3.462   0.865   0.307 -0.2585  0.1041 -0.3546
 6815TIP3    H120409   3.475   0.958   0.293  0.4763  0.5663  2.5912
 6815TIP3    H220410   3.533   0.823   0.258  0.8579  1.3061  0.1540
 6816TIP3   OH220411   0.870   2.493   1.680 -0.4752  0.2281 -0.2435
 6816TIP3    H120412   0.877   2.579   1.640 -3.7318  0.5804 -0.3368
 6816TIP3    H220413   0.846   2.434   1.609  0.7994 -0.6163 -0.0120
 6817TIP3   OH220414   1.593   2.848   3.643 -0.4275  0.2365  0.2244
 6817TIP3    H120415   1.602   2.801   3.726  2.4097 -0.1866 -0.2340
 6817TIP3    H220416   1.590   2.779   3.577 -1.8627  0.5983 -0.1228
 6818TIP3   OH220417   1.064   0.620   3.847 -0.2154 -0.5795  0.1237
 6818TIP3    H120418   1.151   0.583   3.860  0.1011 -0.4521 -1.4124
 6818TIP3    H220419   1.004   0.548   3.867  0.3066 -1.1839 -0.4564
 6819TIP3   OH220420   4.043   4.343   0.705 -0.5851 -0.4281  0.3084
 6819TIP3    H120421   4.036   4.409   0.774 -0.6781  0.3046 -0.3973
 6819TIP3    H220422   4.054   4.393   0.624  4.0801 -1.1893  0.1710
 6820TIP3   OH220423   3.198   5.934   4.681  0.3709  0.0246 -0.1842
 6820TIP3    H120424   3.180   6.011   4.735  0.4291  0.9269 -1.4083
 6820TIP3    H220425   3.165   5.958   4.594  0.6758 -1.2166 -0.6540
 6821TIP3   OH220426   7.060   4.111   2.383  0.0747  0.2621  0.3388
 6821TIP3    H120427   7.067   4.068   2.298 -1.0287  1.1166 -0.2098
 6821TIP3    H220428   7.038   4.041   2.444 -1.4341 -0.0322 -0.4931
 6822TIP3   OH220429   7.164   1.627   0.087 -0.1185 -0.8746 -0.0299
 6822TIP3    H120430   7.191   1.594   0.001  1.1649 -0.1940  0.0915
 6822TIP3    H220431   7.125   1.551   0.131 -0.3003 -1.3558 -1.0033
 6823TIP3   OH220432   7.013   1.476   2.311 -0.3953 -0.2093  0.0086
 6823TIP3    H120433   7.024   1.404   2.373 -0.7149 -0.5747 -0.3494
 6823TIP3    H220434   7.077   1.541   2.338  0.4873 -0.9738 -0.1678
 6824TIP3   OH220435   4.794   6.073   4.310  0.3123 -0.0616  0.1569
 6824TIP3    H120436   4.835   6.114   4.386 -0.4419  1.4489 -0.2041
 6824TIP3    H220437   4.749   6.145   4.266  0.6635 -0.9229 -1.6831
 6825TIP3   OH220438   1.581   0.227   3.315 -0.5119  0.1288 -0.0877
 6825TIP3    H120439   1.526   0.187   3.382 -1.7604  0.0882 -1.1170
 6825TIP3    H220440   1.669   0.227   3.354 -1.2439  0.3853  1.6648
 6826TIP3   OH220441   0.802   4.234   0.309  0.3212 -0.4731 -0.6651
 6826TIP3    H120442   0.787   4.309   0.367 -0.2490 -0.3216 -0.9924
 6826TIP3    H220443   0.727   4.176   0.325  0.5044 -0.7399 -0.7678
 6827TIP3   OH220444   0.132   5.394   4.266  0.1613 -0.7404  0.0040
 6827TIP3    H120445   0.162   5.311   4.304 -0.0872 -0.9654 -0.2919
 6827TIP3    H220446   0.038   5.384   4.257  0.2990 -1.0099 -1.4165
 6828TIP3   OH220447   3.753   2.887   4.205  0.1551 -0.3262  0.1866
 6828TIP3    H120448   3.846   2.870   4.190 -0.3134 -0.4584 -3.4556
 6828TIP3    H220449   3.734   2.965   4.152 -1.2970  1.5714  3.1834
 6829TIP3   OH220450   2.993   6.604   4.730  0.0127  0.0144 -0.4702
 6829TIP3    H120451   3.041   6.683   4.706  1.5088 -0.6723  0.1062
 6829TIP3    H220452   2.971   6.563   4.647 -3.0630  2.2397 -0.9143
 6830TIP3   OH220453   4.790   4.365   3.896  0.1883  0.2052  0.4757
 6830TIP3    H120454   4.766   4.303   3.827 -2.7245  0.3641  1.2465
 6830TIP3    H220455   4.842   4.432   3.851 -0.5284 -0.3727 -1.2980
 6831TIP3   OH220456   5.659   1.843   3.788 -0.8924 -0.2400 -0.5627
 6831TIP3    H120457   5.621   1.845   3.876 -0.2909  0.6751 -0.3188
 6831TIP3    H220458   5.646   1.931   3.753 -1.2191 -0.6160 -1.4486
 6832TIP3   OH220459   4.656   0.963   0.977 -0.1250 -0.0514 -0.1569
 6832TIP3    H120460   4.643   0.872   1.005  0.7469  0.1584  0.9887
 6832TIP3    H220461   4.584   1.011   1.018 -0.3295 -0.1503 -0.3973
 6833TIP3   OH220462   2.878   5.582   0.882  0.1760  0.1986  0.2595
 6833TIP3    H120463   2.972   5.598   0.871  0.6531 -0.8954  2.1931
 6833TIP3    H220464   2.845   5.659   0.928 -0.5569  1.9159 -2.8401
 6834TIP3   OH220465   0.049   0.919   1.952 -0.4154 -0.0302 -0.0961
 6834TIP3    H120466   0.033   0.944   1.861  0.5459  1.1800  0.0467
 6834TIP3    H220467  -0.029   0.947   1.999  0.1506  1.7062 -0.1423
 6835TIP3   OH220468   6.829   4.888   4.576  0.1399 -0.4251  0.1460
 6835TIP3    H120469   6.794   4.880   4.664 -1.1645 -0.9987 -0.3912
 6835TIP3    H220470   6.921   4.912   4.588 -0.3668  0.9804  1.6417
 6836TIP3   OH220471   5.085   3.310   2.938 -0.1959  0.5599 -0.4305
 6836TIP3    H120472   5.103   3.216   2.937 -1.6820  0.2185  1.0349
 6836TIP3    H220473   5.117   3.340   3.023 -0.4799  1.2200 -0.5447
 6837TIP3   OH220474   2.284   4.962   4.134 -0.3250 -0.7889  0.3697
 6837TIP3    H120475   2.258   5.046   4.096  0.9546 -0.1972  0.7464
 6837TIP3    H220476   2.292   4.902   4.060 -0.4889 -0.3668  0.0137
 6838TIP3   OH220477   2.966   1.529   1.532 -0.2430  0.4170 -0.3243
 6838TIP3    H120478   2.903   1.460   1.511 -0.3262  0.2318  0.4890
 6838TIP3    H220479   2.938   1.560   1.619  1.5635 -0.5693  0.6617
 6839TIP3   OH220480   4.555   1.876   0.388 -0.2082 -0.1878 -0.0821
 6839TIP3    H120481   4.567   1.898   0.295  3.1224  2.0078  0.7117
 6839TIP3    H220482   4.643   1.862   0.421 -1.4135 -3.6892  2.3000
 6840TIP3   OH220483   3.619   4.642   2.958  0.2755  0.2495 -0.5166
 6840TIP3    H120484   3.600   4.697   2.883 -2.4630 -0.4523 -0.4334
 6840TIP3    H220485   3.556   4.669   3.025  1.4994 -0.3180  0.9313
 6841TIP3   OH220486   4.959   2.661   1.402  0.2125  0.0421 -0.1853
 6841TIP3    H120487   4.969   2.619   1.487 -0.4172  2.3986  1.1300
 6841TIP3    H220488   4.866   2.655   1.382  0.7209 -3.1566 -2.2596
 6842TIP3   OH220489   6.610   6.617   2.588 -0.8119 -0.0350  0.6744
 6842TIP3    H120490   6.690   6.584   2.547 -1.8843 -0.2840 -1.3613
 6842TIP3    H220491   6.637   6.697   2.633  0.3077  0.8114 -1.3742
 6843TIP3   OH220492   4.353   2.586   3.594 -0.9546  0.1512  0.0888
 6843TIP3    H120493   4.310   2.649   3.535  0.2659  1.6396  0.7210
 6843TIP3    H220494   4.428   2.555   3.544  0.8466  2.4019  1.2046
 6844TIP3   OH220495   3.472   2.383   3.507 -0.1679  0.0893  0.0863
 6844TIP3    H120496   3.485   2.386   3.412  0.2180  0.0474  0.1399
 6844TIP3    H220497   3.533   2.447   3.542 -0.9172  0.7369  0.2469
 6845TIP3   OH220498   5.468   2.549   5.068 -0.0498 -0.3917  0.6377
 6845TIP3    H120499   5.498   2.612   5.133 -2.0884  0.8568  0.4337
 6845TIP3    H220500   5.374   2.543   5.082 -0.4012 -0.8071 -1.5983
 6846TIP3   OH220501   6.480   3.976   1.969  0.2077  0.5410  0.5012
 6846TIP3    H120502   6.405   3.932   1.928 -0.1847  0.7784  0.9429
 6846TIP3    H220503   6.508   3.915   2.037  0.1395  0.6452  0.6218
 6847TIP3   OH220504   3.297   2.777   5.279  0.1953 -0.1490 -0.0624
 6847TIP3    H120505   3.288   2.730   5.362 -1.6628 -0.9166 -0.6452
 6847TIP3    H220506   3.250   2.859   5.293 -3.3643 -1.7606 -1.3470
 6848TIP3   OH220507   3.415   4.267   3.846  0.0010  0.0771 -0.3288
 6848TIP3    H120508   3.373   4.347   3.877 -0.2678  0.0592 -0.6450
 6848TIP3    H220509   3.352   4.197   3.863  0.6394 -0.2374  0.9006
 6849TIP3   OH220510   2.373   6.404   5.112  0.8023  0.1053 -0.0407
 6849TIP3    H120511   2.323   6.374   5.036  2.3960 -1.3157 -0.5920
 6849TIP3    H220512   2.376   6.328   5.170  1.6966  0.3750  0.2856
 6850TIP3   OH220513   2.393   6.801   3.239  0.0888 -0.2128 -0.2712
 6850TIP3    H120514   2.397   6.728   3.178 -2.5549 -1.3971  0.7922
 6850TIP3    H220515   2.317   6.852   3.210  0.1394  0.4643  0.7139
 6851TIP3   OH220516   0.528   0.512   5.843  0.1322  0.4316  0.1783
 6851TIP3    H120517   0.592   0.541   5.778 -0.1377 -0.4745 -0.5193
 6851TIP3    H220518   0.568   0.435   5.884 -0.8747 -0.7693 -0.9746
 6852TIP3   OH220519   1.550   5.487   1.796 -0.9426  0.4523  0.1444
 6852TIP3    H120520   1.504   5.562   1.834 -2.0139  0.1288 -0.4749
 6852TIP3    H220521   1.592   5.445   1.871  1.0086  2.5272  0.3210
 6853TIP3   OH220522   7.013   1.282   1.174  0.0794  0.1440  0.0270
 6853TIP3    H120523   7.019   1.339   1.250  2.1310 -0.2038  0.1767
 6853TIP3    H220524   7.038   1.338   1.100  0.8170 -0.1990  0.0049
 6854TIP3   OH220525   3.974   1.056   3.605  0.2819  0.6178 -0.1132
 6854TIP3    H120526   4.041   1.025   3.544  1.2530 -0.4545  1.4140
 6854TIP3    H220527   4.013   1.133   3.646 -0.3673  1.3389 -0.8306
 6855TIP3   OH220528   3.973   1.427   1.028 -0.0022 -0.3327  0.1868
 6855TIP3    H120529   3.962   1.429   0.934 -0.9024 -0.0462  0.2938
 6855TIP3    H220530   3.905   1.486   1.062  0.2920 -0.4523  1.0110
 6856TIP3   OH220531   1.477   2.028   1.542 -0.2175 -0.2415 -0.6181
 6856TIP3    H120532   1.526   2.108   1.564  0.6419 -1.0818  0.6159
 6856TIP3    H220533   1.410   2.058   1.480  0.8150  1.2353 -1.0826
 6857TIP3   OH220534   3.851   0.818   4.342  0.4241 -0.3585  0.0192
 6857TIP3    H120535   3.943   0.841   4.355  0.4244 -0.1981 -0.2700
 6857TIP3    H220536   3.846   0.790   4.251 -0.1572  1.3071 -0.4953
 6858TIP3   OH220537   2.792   0.971   1.712  0.1436 -0.7812  0.0061
 6858TIP3    H120538   2.744   0.959   1.630 -2.4307  0.8094  1.1536
 6858TIP3    H220539   2.757   0.902   1.770 -0.5217  0.1292  0.7240
 6859TIP3   OH220540   1.715   4.906   1.104 -0.0670  0.0488 -0.0556
 6859TIP3    H120541   1.693   4.820   1.139  0.8749  0.1439  0.8147
 6859TIP3    H220542   1.634   4.957   1.114 -0.0424 -0.1479  1.3289
 6860TIP3   OH220543   2.232   4.859   2.793  0.0803 -0.8892  0.4138
 6860TIP3    H120544   2.279   4.826   2.869  0.8763 -0.9561 -0.0834
 6860TIP3    H220545   2.288   4.834   2.719  0.7006  1.4594 -0.0107
 6861TIP3   OH220546   2.491   2.948   5.616 -0.2733  0.3919  0.4342
 6861TIP3    H120547   2.534   2.891   5.679  0.6892  2.3880  1.6896
 6861TIP3    H220548   2.541   2.939   5.536 -2.1960 -3.0737 -0.5790
 6862TIP3   OH220549   0.388   1.161   2.069 -0.2707  0.0350  0.0750
 6862TIP3    H120550   0.296   1.136   2.063 -0.6414  0.7812  2.0554
 6862TIP3    H220551   0.398   1.231   2.004 -0.9323 -0.4330 -0.5581
 6863TIP3   OH220552   1.423   0.489   4.640 -0.6963 -0.2684 -0.2242
 6863TIP3    H120553   1.436   0.579   4.610 -0.6509  0.0893  0.8562
 6863TIP3    H220554   1.385   0.497   4.727  1.0036 -1.2484  0.6705
 6864TIP3   OH220555   6.050   1.992   2.957  0.1185 -0.4501 -0.5880
 6864TIP3    H120556   6.142   1.964   2.953  0.0717 -0.5757 -0.8403
 6864TIP3    H220557   6.017   1.953   3.038  0.7760  1.1358  0.4699
 6865TIP3   OH220558   3.525   1.695   2.454  0.0146 -0.3731 -0.1595
 6865TIP3    H120559   3.483   1.616   2.490  0.5733 -0.7448 -0.3029
 6865TIP3    H220560   3.518   1.685   2.359  0.4376 -0.4510 -0.1851
 6866TIP3   OH220561   2.679   4.592   1.414 -0.1250  0.2573  0.0158
 6866TIP3    H120562   2.723   4.664   1.459 -0.7651  0.5827  0.1356
 6866TIP3    H220563   2.723   4.587   1.329  0.1464  0.5738  0.1334
 6867TIP3   OH220564   1.320   0.305   4.126  0.3143  0.0356  0.0781
 6867TIP3    H120565   1.357   0.335   4.043  0.5190 -1.0757 -0.2566
 6867TIP3    H220566   1.342   0.212   4.129  1.1854  0.2696  1.8632
 6868TIP3   OH220567   1.401   2.413   0.757  0.3821 -0.1446  0.3127
 6868TIP3    H120568   1.344   2.356   0.808  1.0686 -1.2896 -0.1534
 6868TIP3    H220569   1.455   2.353   0.706  1.7253  0.9035  0.4387
 6869TIP3   OH220570   5.271   6.537   5.678  0.3941 -0.3531 -0.5720
 6869TIP3    H120571   5.311   6.601   5.738  0.3849  1.0628 -2.0129
 6869TIP3    H220572   5.218   6.481   5.735  1.9410 -0.3243  0.9906
 6870TIP3   OH220573   4.120   0.977   0.586 -0.0952 -0.2486 -0.0037
 6870TIP3    H120574   4.175   0.902   0.562 -0.9362 -0.5709 -0.9877
 6870TIP3    H220575   4.166   1.017   0.660  1.1892 -0.8111 -0.4617
 6871TIP3   OH220576   1.469   2.015   3.440 -0.3119 -0.1400  0.0595
 6871TIP3    H120577   1.496   1.942   3.384 -1.1382  0.7861 -1.6442
 6871TIP3    H220578   1.550   2.045   3.481  0.5020 -0.3316 -1.3312
 6872TIP3   OH220579   2.367   1.516   1.650 -0.1923 -0.3001 -0.7670
 6872TIP3    H120580   2.291   1.516   1.591 -0.3178 -1.8513 -0.6418
 6872TIP3    H220581   2.421   1.589   1.620 -1.9526  1.1582 -0.5457
 6873TIP3   OH220582   2.941   2.642   5.842 -0.1837  0.0538  0.3382
 6873TIP3    H120583   3.022   2.694   5.843  0.5432 -0.9917 -0.8048
 6873TIP3    H220584   2.880   2.692   5.895 -0.0752  3.0223 -2.0197
 6874TIP3   OH220585   4.652   5.290   1.027 -0.1837  0.0135 -0.1526
 6874TIP3    H120586   4.559   5.306   1.013 -0.3803 -0.1997  0.8387
 6874TIP3    H220587   4.675   5.224   0.962 -0.8261 -0.2384 -0.1316
 6875TIP3   OH220588   3.826   6.056   0.723 -0.3671 -0.9812 -0.4743
 6875TIP3    H120589   3.890   6.012   0.666 -0.2376 -1.7914  0.2706
 6875TIP3    H220590   3.872   6.133   0.756 -0.6544 -0.1477 -1.9422
 6876TIP3   OH220591   4.777   6.711   5.130  0.6318  0.4782  0.1076
 6876TIP3    H120592   4.804   6.752   5.048 -0.1941  0.2150 -0.3040
 6876TIP3    H220593   4.741   6.783   5.182  1.9045  0.7977  0.5869
 6877TIP3   OH220594   6.585   3.543   2.816 -0.1470  0.3243  0.1745
 6877TIP3    H120595   6.557   3.478   2.880 -0.2579 -0.2322 -0.4272
 6877TIP3    H220596   6.520   3.539   2.746  1.2778 -0.8805 -1.1725
 6878TIP3   OH220597   0.084   5.327   4.603 -0.0384  0.3816  0.6062
 6878TIP3    H120598   0.117   5.274   4.530  1.0822  0.5992  0.9359
 6878TIP3    H220599   0.141   5.303   4.677 -1.0659  0.2722  1.3770
 6879TIP3   OH220600   2.834  -0.033   5.558 -0.0094 -0.2386  0.1614
 6879TIP3    H120601   2.844   0.015   5.476  2.6760 -0.3933  0.3172
 6879TIP3    H220602   2.777   0.022   5.611  0.7393  1.4233 -0.6798
 6880TIP3   OH220603   2.800   6.430   1.420  0.2770  0.7173  0.4320
 6880TIP3    H120604   2.800   6.453   1.513 -0.7527  0.0127  0.6105
 6880TIP3    H220605   2.770   6.510   1.376 -1.7486  0.2876  0.9287
 6881TIP3   OH220606   5.487   2.079   4.354  1.0915 -0.4340 -0.8594
 6881TIP3    H120607   5.435   2.108   4.428 -2.1649 -2.2832 -2.2021
 6881TIP3    H220608   5.550   2.017   4.391  1.2281  0.5623  0.6272
 6882TIP3   OH220609   5.957   1.906   3.209 -0.1419  0.0277 -0.1683
 6882TIP3    H120610   6.002   1.900   3.293 -3.0196  0.6695  1.5612
 6882TIP3    H220611   5.908   1.824   3.202 -1.4462  0.7909 -0.2419
 6883TIP3   OH220612   3.040   5.873   1.575  0.1671  0.0582 -0.1119
 6883TIP3    H120613   3.130   5.860   1.604  0.8663  0.7930 -1.8116
 6883TIP3    H220614   3.010   5.785   1.551  0.5828 -0.1295  0.0441
 6884TIP3   OH220615   2.253   6.578   2.628 -0.0140 -0.4220  0.5324
 6884TIP3    H120616   2.322   6.512   2.638 -1.1566 -1.8687 -0.6841
 6884TIP3    H220617   2.245   6.617   2.715  2.7646  0.2974  0.5711
 6885TIP3   OH220618   6.989   0.793   2.488  0.0883  0.4186  0.1238
 6885TIP3    H120619   6.944   0.730   2.543 -1.3237  0.3983 -0.9660
 6885TIP3    H220620   7.009   0.745   2.408  4.2736 -0.2616  1.3548
 6886TIP3   OH220621   3.343   2.857   0.847  0.0704 -0.5771  0.3056
 6886TIP3    H120622   3.390   2.909   0.782 -0.1291 -0.1850  0.4634
 6886TIP3    H220623   3.281   2.920   0.886  0.3361 -0.7509  1.0195
 6887TIP3   OH220624   1.843   2.270   4.956  0.5326  0.3498 -0.2713
 6887TIP3    H120625   1.820   2.330   4.885  1.1112  0.5892 -0.2651
 6887TIP3    H220626   1.863   2.327   5.030 -0.4367  0.0883  0.2067
 6888TIP3   OH220627   4.166   6.404   1.853 -0.2519 -0.1525 -0.2292
 6888TIP3    H120628   4.113   6.392   1.932 -0.2271 -1.2051 -0.3558
 6888TIP3    H220629   4.158   6.321   1.806  0.0877  0.3071 -1.1249
 6889TIP3   OH220630   1.755   1.265   0.778 -0.1861 -0.3020 -0.0100
 6889TIP3    H120631   1.720   1.185   0.738  1.0859  0.3811 -2.7291
 6889TIP3    H220632   1.689   1.332   0.762 -0.7259 -0.5157  1.2195
 6890TIP3   OH220633   3.660   6.420   1.469 -0.4268  0.6555  0.3959
 6890TIP3    H120634   3.630   6.467   1.391 -0.1884  2.6269  1.4169
 6890TIP3    H220635   3.675   6.331   1.439 -0.5861  1.2871 -1.7427
 6891TIP3   OH220636   3.863   2.880   2.904 -0.2932 -0.0317 -0.0305
 6891TIP3    H120637   3.831   2.958   2.949  0.4106  0.3132 -0.1144
 6891TIP3    H220638   3.796   2.814   2.922 -1.4800  0.8820 -0.9187
 6892TIP3   OH220639   7.133   2.459   1.712 -0.1683 -0.3679 -0.0073
 6892TIP3    H120640   7.104   2.390   1.771 -1.6683 -0.2047 -0.4858
 6892TIP3    H220641   7.227   2.447   1.704 -0.2849 -1.8621  0.5353
 6893TIP3   OH220642   0.236   3.440   3.492  0.2874 -0.6850  0.3749
 6893TIP3    H120643   0.330   3.455   3.497 -0.0292  1.5551  0.6068
 6893TIP3    H220644   0.211   3.416   3.581  0.6285 -1.2578  0.3199
 6894TIP3   OH220645   0.552   1.056   4.703 -0.1414  0.1792  0.4852
 6894TIP3    H120646   0.475   1.055   4.761 -0.5357  0.9504 -0.0019
 6894TIP3    H220647   0.516   1.074   4.616  0.4747 -0.7393  0.0372
 6895TIP3   OH220648   1.152   5.180   2.213 -0.0397  0.3719 -0.2991
 6895TIP3    H120649   1.089   5.159   2.144  1.1988 -0.7725 -1.1335
 6895TIP3    H220650   1.100   5.182   2.293 -1.7510  3.0450 -1.3722
 6896TIP3   OH220651   6.518   6.414   3.559  0.2377 -0.3299 -0.0719
 6896TIP3    H120652   6.554   6.489   3.606 -0.8912  1.0372 -1.2791
 6896TIP3    H220653   6.594   6.366   3.527  0.9846 -0.0670  1.2608
 6897TIP3   OH220654   4.493   1.777   2.773  0.0779  0.1792 -0.3395
 6897TIP3    H120655   4.489   1.818   2.686  0.9035 -0.0805 -0.5073
 6897TIP3    H220656   4.474   1.849   2.834  1.0373  0.7148 -0.6579
 6898TIP3   OH220657   0.625   5.371   1.539 -0.4553 -0.6964 -0.0175
 6898TIP3    H120658   0.574   5.296   1.569 -0.5994 -0.4990  0.2355
 6898TIP3    H220659   0.716   5.342   1.546 -0.5040 -0.7940  0.2305
 6899TIP3   OH220660   1.047   3.246   0.270  0.3853 -0.0965 -0.0195
 6899TIP3    H120661   1.050   3.172   0.210  0.6070  0.4139 -0.6468
 6899TIP3    H220662   1.070   3.209   0.355 -3.3199 -1.5621  0.5551
 6900TIP3   OH220663   5.572   0.886   2.511  0.2029  0.0278 -0.2328
 6900TIP3    H120664   5.627   0.878   2.590  2.5262 -0.3257 -1.7838
 6900TIP3    H220665   5.551   0.795   2.488  1.8514 -0.0701 -1.4976
 6901TIP3   OH220666   2.735   0.234   4.786  1.0041  0.2341  0.1388
 6901TIP3    H120667   2.680   0.156   4.776  1.3735 -0.2998  1.9113
 6901TIP3    H220668   2.772   0.248   4.699 -0.2812 -0.6396 -0.5870
 6902TIP3   OH220669   0.335   4.546   3.634  0.3749  0.9707  0.8119
 6902TIP3    H120670   0.269   4.579   3.695 -0.7877 -1.9541  1.3069
 6902TIP3    H220671   0.373   4.469   3.678  1.4212  0.3543 -1.0345
 6903TIP3   OH220672   0.199   2.153   3.318  0.8590  0.0999  0.0350
 6903TIP3    H120673   0.290   2.168   3.291  0.5095  1.1273 -0.6426
 6903TIP3    H220674   0.169   2.238   3.349 -0.2179  0.0588 -0.8259
 6904TIP3   OH220675   6.158   4.281   3.705  0.2706  0.0269 -0.5744
 6904TIP3    H120676   6.199   4.326   3.779  1.7600 -1.4566 -0.4198
 6904TIP3    H220677   6.142   4.192   3.738  1.5894 -0.8657 -2.2077
 6905TIP3   OH220678   3.398   2.171   3.085  0.1760  0.3170 -0.0564
 6905TIP3    H120679   3.347   2.209   3.157  1.1185 -0.0392  0.8349
 6905TIP3    H220680   3.430   2.088   3.120  0.6061  0.1157 -0.9104
 6906TIP3   OH220681   6.150   1.264   1.752 -0.5834 -0.0864  0.2306
 6906TIP3    H120682   6.170   1.286   1.842 -2.5174  0.4829  0.5640
 6906TIP3    H220683   6.055   1.255   1.749 -0.7395  1.2980 -2.0285
 6907TIP3   OH220684   6.929   2.876   3.602  0.1054  0.5515  0.3874
 6907TIP3    H120685   6.884   2.957   3.580  0.9860  0.2917 -2.8371
 6907TIP3    H220686   6.977   2.853   3.523  1.2468 -2.2401  1.7610
 6908TIP3   OH220687   4.011   4.081   5.631  0.1513  0.4589 -0.0671
 6908TIP3    H120688   4.022   4.019   5.559 -1.4515 -0.9313  0.8171
 6908TIP3    H220689   4.030   4.167   5.592  2.3367 -0.5429 -1.3380
 6909TIP3   OH220690   1.415   5.233   2.378  0.0893 -0.4938  0.4352
 6909TIP3    H120691   1.413   5.217   2.472  1.1791 -1.7307  0.2761
 6909TIP3    H220692   1.332   5.199   2.345  0.5979 -2.0327  0.6843
 6910TIP3   OH220693   6.596   6.218   3.884  0.1687 -0.2650  0.0408
 6910TIP3    H120694   6.537   6.224   3.809  0.3287 -1.3255 -0.1776
 6910TIP3    H220695   6.606   6.124   3.900  1.7740 -0.1147  0.0859
 6911TIP3   OH220696   1.165   4.734   4.415 -0.1403 -0.4458 -0.1654
 6911TIP3    H120697   1.241   4.749   4.359  0.3621  0.5557  0.7669
 6911TIP3    H220698   1.096   4.708   4.354  1.0187 -1.7444 -0.9939
 6912TIP3   OH220699   3.132   5.867   1.999 -0.8915 -0.1610  0.0538
 6912TIP3    H120700   3.188   5.931   2.042 -1.7442  1.2912 -0.9076
 6912TIP3    H220701   3.067   5.844   2.065  0.3806 -1.3535  0.9561
 6913TIP3   OH220702   3.382   3.410   0.755 -0.1058  0.1626 -0.4173
 6913TIP3    H120703   3.412   3.444   0.670  0.3065  1.0130  0.0500
 6913TIP3    H220704   3.287   3.419   0.751 -0.2363 -1.3189 -1.4028
 6914TIP3   OH220705   0.545   4.861   4.785  0.0473 -0.3354  0.1080
 6914TIP3    H120706   0.492   4.785   4.807 -1.8960  0.2790 -1.9813
 6914TIP3    H220707   0.502   4.934   4.830 -0.5164  0.0749 -1.0623
 6915TIP3   OH220708   5.484   4.213   4.719  0.0817 -0.2964 -0.3500
 6915TIP3    H120709   5.390   4.231   4.725  0.0601 -0.1328 -1.0542
 6915TIP3    H220710   5.511   4.194   4.809 -0.4802  0.3859 -0.0289
 6916TIP3   OH220711   2.133   1.925   2.248 -0.1116  0.0021 -0.1585
 6916TIP3    H120712   2.094   1.935   2.335  0.7675  3.1251  0.0172
 6916TIP3    H220713   2.219   1.966   2.256  0.3019 -0.3555 -2.3013
 6917TIP3   OH220714   1.614   5.146   4.535  0.3607  0.0881 -0.1018
 6917TIP3    H120715   1.560   5.197   4.596 -0.2612 -1.9063  1.0886
 6917TIP3    H220716   1.607   5.194   4.452  0.5473  2.4149  1.1247
 6918TIP3   OH220717   0.114   1.211   5.590 -0.1387  0.2032  0.4343
 6918TIP3    H120718   0.188   1.271   5.601 -0.7943  1.0539  0.3222
 6918TIP3    H220719   0.037   1.267   5.596 -0.8062 -0.7667  1.2258
 6919TIP3   OH220720   0.110   3.253   1.911  0.3058  0.0973  0.5260
 6919TIP3    H120721   0.027   3.244   1.956  1.1306 -0.8363  1.9344
 6919TIP3    H220722   0.172   3.282   1.979  1.4457 -0.7201 -0.1247
 6920TIP3   OH220723   2.318   2.776   0.871 -0.4503 -0.2944 -0.1147
 6920TIP3    H120724   2.368   2.695   0.874 -1.8053 -1.1495  0.2918
 6920TIP3    H220725   2.292   2.792   0.962 -0.4775  0.4236 -0.2395
 6921TIP3   OH220726   3.283   0.037   4.634  0.3984 -0.6435  0.3189
 6921TIP3    H120727   3.270   0.066   4.724  0.6944  1.0704 -0.1518
 6921TIP3    H220728   3.287   0.118   4.583 -0.5172 -1.5924 -1.3554
 6922TIP3   OH220729   5.253   3.633   1.646 -0.2889  0.2581  0.0172
 6922TIP3    H120730   5.217   3.721   1.644 -0.7003  0.2393 -5.0308
 6922TIP3    H220731   5.178   3.576   1.660 -0.6352  0.5754 -0.5511
 6923TIP3   OH220732   3.779   5.531   2.855  0.4077  0.3053  0.2739
 6923TIP3    H120733   3.869   5.562   2.856  0.3523  0.6596 -1.6592
 6923TIP3    H220734   3.752   5.532   2.947  2.1860  0.7043  0.8266
 6924TIP3   OH220735   6.524   1.339   2.159  0.8790 -0.4353 -0.0581
 6924TIP3    H120736   6.559   1.401   2.096 -0.2299 -1.3931 -1.7073
 6924TIP3    H220737   6.598   1.283   2.183  1.6162  0.7759  0.5802
 6925TIP3   OH220738   1.624   2.667   3.844 -0.0650  0.0773  0.2266
 6925TIP3    H120739   1.661   2.651   3.931  0.4103  0.6527  0.1379
 6925TIP3    H220740   1.631   2.583   3.799  0.7012  0.0550  0.3740
 6926TIP3   OH220741   2.035   1.947   2.509 -0.2021 -0.0126 -0.4645
 6926TIP3    H120742   1.961   1.931   2.568  0.6893  0.8832  0.9444
 6926TIP3    H220743   2.033   2.041   2.493  0.8978  0.1051 -0.0162
 6927TIP3   OH220744   1.422   4.986   0.730  0.1965 -0.4637  0.2621
 6927TIP3    H120745   1.477   5.019   0.659  1.0065 -1.7696  0.2363
 6927TIP3    H220746   1.457   5.028   0.809  0.1273  0.0016  0.0486
 6928TIP3   OH220747   6.837   2.436   2.609  0.5055 -0.9264 -0.3806
 6928TIP3    H120748   6.833   2.510   2.548 -0.9875 -1.6002 -1.1643
 6928TIP3    H220749   6.799   2.470   2.690 -0.5375 -0.9113 -0.8559
 6929TIP3   OH220750   1.842   5.131  -0.034  0.0615  0.1446 -0.1583
 6929TIP3    H120751   1.930   5.124   0.004 -0.7158  1.4810  2.1106
 6929TIP3    H220752   1.784   5.129   0.042 -2.1544 -3.3482 -1.6830
 6930TIP3   OH220753   4.041   4.685   5.314 -0.5147 -0.2794  0.1480
 6930TIP3    H120754   3.957   4.687   5.268 -0.6391 -3.1141  0.0790
 6930TIP3    H220755   4.106   4.692   5.245 -0.5732  2.5913  0.2482
 6931TIP3   OH220756   6.896   4.831   5.552 -0.8454 -0.2789 -0.1202
 6931TIP3    H120757   6.914   4.903   5.612 -0.9154  0.4310 -0.9327
 6931TIP3    H220758   6.827   4.780   5.595  1.6199 -1.9744  2.1658
 6932TIP3   OH220759   3.856   5.419   3.775  0.0876  0.0902 -0.3980
 6932TIP3    H120760   3.935   5.385   3.817  0.3326  0.8085 -0.2638
 6932TIP3    H220761   3.858   5.382   3.687 -0.2258 -1.1109  0.0854
 6933TIP3   OH220762   5.729   6.170   1.393 -0.0253  0.1069  0.2908
 6933TIP3    H120763   5.746   6.101   1.329 -1.1270  0.4995 -0.4592
 6933TIP3    H220764   5.664   6.133   1.452 -0.5137  0.4342 -0.0306
 6934TIP3   OH220765   0.462   1.445   3.140  0.5916 -0.2790 -0.0299
 6934TIP3    H120766   0.515   1.366   3.146  0.5907 -0.2578  0.3062
 6934TIP3    H220767   0.489   1.497   3.216  1.9478  0.8812 -1.2439
 6935TIP3   OH220768   0.856   3.107   1.722  0.1764  0.3887 -0.5902
 6935TIP3    H120769   0.919   3.049   1.765  0.0779  0.6115 -0.1345
 6935TIP3    H220770   0.863   3.086   1.629  0.8004  0.2902 -0.5267
 6936TIP3   OH220771   6.496   5.595   0.532  0.2400  0.0378 -0.1456
 6936TIP3    H120772   6.552   5.524   0.563 -0.9963 -0.6374  0.6364
 6936TIP3    H220773   6.473   5.644   0.611  0.7561  1.0900 -0.6271
 6937TIP3   OH220774   5.865   4.511   2.639 -0.0605 -0.1133 -0.5528
 6937TIP3    H120775   5.895   4.427   2.606  0.4851 -0.4612  0.7671
 6937TIP3    H220776   5.939   4.570   2.628  0.2125 -0.2932  0.2287
 6938TIP3   OH220777   3.343   1.512   1.235 -0.0451  0.3685  0.1585
 6938TIP3    H120778   3.335   1.421   1.262 -1.6671  0.1491 -0.8939
 6938TIP3    H220779   3.279   1.558   1.290  0.9796  0.9453  0.8978
 6939TIP3   OH220780   6.779   5.296   2.297 -0.3538 -0.0832 -0.3095
 6939TIP3    H120781   6.742   5.364   2.353  0.7723 -0.1590  0.5615
 6939TIP3    H220782   6.770   5.331   2.208 -0.4744  0.8618  0.0616
 6940TIP3   OH220783   5.550   3.903   5.891  0.0605 -0.1165  0.0056
 6940TIP3    H120784   5.582   3.891   5.802  0.3823 -0.5579  0.1752
 6940TIP3    H220785   5.618   3.954   5.935 -0.1353  0.1721 -0.0190
 6941TIP3   OH220786   3.087   2.923   2.807  0.0733  0.1595  0.2910
 6941TIP3    H120787   3.118   2.836   2.830 -0.5643  0.1348  1.1131
 6941TIP3    H220788   3.037   2.952   2.883  0.9824  1.5923  0.3887
 6942TIP3   OH220789   2.599   4.239   3.613  0.2189  0.3120  1.0314
 6942TIP3    H120790   2.561   4.327   3.610  1.0673  0.6610 -0.8809
 6942TIP3    H220791   2.578   4.200   3.528  1.0442 -0.8079  1.3156
 6943TIP3   OH220792   0.101   0.194   4.596 -0.3848  0.1065 -0.1147
 6943TIP3    H120793   0.049   0.268   4.628 -0.1770  0.2523 -0.1178
 6943TIP3    H220794   0.189   0.208   4.630 -0.8857 -1.4893  2.0819
 6944TIP3   OH220795   4.674   6.715   1.114  0.1134  0.1526  0.2573
 6944TIP3    H120796   4.657   6.651   1.044  0.2995 -0.6123  0.8904
 6944TIP3    H220797   4.653   6.800   1.075  2.6262  0.0349 -1.5467
 6945TIP3   OH220798   6.847   3.381   1.986  0.0830  0.6552  0.7110
 6945TIP3    H120799   6.846   3.445   1.915  0.6857  0.3482  0.4263
 6945TIP3    H220800   6.856   3.434   2.066 -1.6830  1.0835  0.6662
 6946TIP3   OH220801   1.760   6.078   2.894 -0.2651  0.3815  0.0712
 6946TIP3    H120802   1.722   6.087   2.981  0.0618 -1.1115  0.3805
 6946TIP3    H220803   1.805   6.161   2.880 -0.2944  0.6360  1.3359
 6947TIP3   OH220804   0.965   6.345   3.818  0.2982 -0.5060  0.1769
 6947TIP3    H120805   0.885   6.349   3.870  0.4480  0.8860  0.3228
 6947TIP3    H220806   0.958   6.419   3.757  1.8465  0.1509  0.7480
 6948TIP3   OH220807   4.061   1.619   3.025  0.6052 -0.1180 -0.3792
 6948TIP3    H120808   4.065   1.714   3.012 -0.1146 -0.0970 -0.4842
 6948TIP3    H220809   4.036   1.585   2.939  0.5849 -0.3827 -0.2677
 6949TIP3   OH220810   2.928   3.266   5.105 -0.4006  0.0320 -0.0579
 6949TIP3    H120811   2.850   3.233   5.149 -0.4918 -0.3742 -0.5093
 6949TIP3    H220812   2.988   3.291   5.176 -0.6491 -0.3503  0.2884
 6950TIP3   OH220813   6.392   4.268   4.097  0.3574 -0.2671 -0.0381
 6950TIP3    H120814   6.405   4.357   4.130 -0.1562 -0.7822  1.6933
 6950TIP3    H220815   6.464   4.218   4.136  0.6951 -0.6128 -1.0678
 6951TIP3   OH220816   5.674   2.476   5.893  0.0626  0.3148  0.1954
 6951TIP3    H120817   5.750   2.522   5.930 -1.9162  2.6881  1.6778
 6951TIP3    H220818   5.704   2.444   5.808  3.0960 -0.1219  1.3194
 6952TIP3   OH220819   7.097   4.971   4.675 -0.2251 -0.2507 -0.1985
 6952TIP3    H120820   7.134   5.024   4.604 -0.1558 -0.7618 -0.5454
 6952TIP3    H220821   7.144   5.001   4.753 -0.6914  0.7023 -0.2666
 6953TIP3   OH220822   0.731   4.716   5.061 -0.0975  0.0892  0.0036
 6953TIP3    H120823   0.681   4.656   5.005  2.2228 -1.9857 -0.0269
 6953TIP3    H220824   0.820   4.682   5.058  0.9542  2.4701  1.5877
 6954TIP3   OH220825   6.374   1.508   3.417 -0.3932 -0.5235  0.0861
 6954TIP3    H120826   6.433   1.582   3.405 -2.0817  0.9408  0.3648
 6954TIP3    H220827   6.336   1.521   3.504 -0.2364 -2.1178  0.4314
 6955TIP3   OH220828   2.244   3.529   4.596 -0.9131  0.6353 -0.4530
 6955TIP3    H120829   2.189   3.459   4.561 -0.0547 -0.5315  0.4781
 6955TIP3    H220830   2.286   3.491   4.673  0.9036  1.6204 -0.9110
 6956TIP3   OH220831   3.369   1.743   3.950  0.4899 -0.0188 -0.8081
 6956TIP3    H120832   3.348   1.784   3.866 -1.5965  1.0057  0.1457
 6956TIP3    H220833   3.398   1.815   4.005 -2.8325  0.2748  0.7719
 6957TIP3   OH220834   0.830   4.086   1.346 -0.2613 -0.3744  0.3342
 6957TIP3    H120835   0.904   4.054   1.399 -0.0038 -2.6280 -1.2158
 6957TIP3    H220836   0.756   4.088   1.407  0.0471 -2.7863  0.9042
 6958TIP3   OH220837   2.364   3.799   2.897 -0.2665  0.3324 -0.3541
 6958TIP3    H120838   2.318   3.872   2.856 -1.0971 -0.6439 -1.2171
 6958TIP3    H220839   2.295   3.747   2.938  0.6124  2.2049  4.0869
 6959TIP3   OH220840   4.931   2.332   5.092  0.1050 -0.1581  0.3855
 6959TIP3    H120841   4.877   2.264   5.132 -0.1380  0.9658  2.0555
 6959TIP3    H220842   4.881   2.413   5.106  1.7317  0.7668  1.0855
 6960TIP3   OH220843   1.092   5.925   1.768  0.0836 -0.1210  0.5375
 6960TIP3    H120844   1.007   5.952   1.805 -1.3916 -2.1577 -1.1486
 6960TIP3    H220845   1.093   5.963   1.680  2.2036  2.1113  1.3990
 6961TIP3   OH220846   2.850   5.811   4.178  0.1775  0.1183 -0.5070
 6961TIP3    H120847   2.869   5.820   4.272 -0.9478 -0.0173 -0.2566
 6961TIP3    H220848   2.867   5.897   4.142 -1.3196  0.7466  0.1975
 6962TIP3   OH220849   2.489   4.781   0.896  0.2544  0.2417  0.0163
 6962TIP3    H120850   2.542   4.811   0.822  0.8246  1.9230  1.0158
 6962TIP3    H220851   2.528   4.827   0.972 -1.3671 -0.0781  1.0830
 6963TIP3   OH220852   5.027   2.427   5.437 -0.6825  0.4009  0.3205
 6963TIP3    H120853   5.032   2.399   5.528 -0.3088 -0.1053  0.1497
 6963TIP3    H220854   5.089   2.370   5.391 -0.9381  0.5882 -0.2638
 6964TIP3   OH220855   5.752   6.190   0.517  0.4361  0.4713 -0.2335
 6964TIP3    H120856   5.713   6.275   0.497  1.9310  1.1439 -0.4432
 6964TIP3    H220857   5.678   6.134   0.541 -0.4151  2.2563  1.4916
 6965TIP3   OH220858   3.299   3.656   0.355 -0.4580  0.6512  0.4828
 6965TIP3    H120859   3.243   3.718   0.403  0.8309  1.5024  0.9601
 6965TIP3    H220860   3.374   3.643   0.413 -0.0446 -0.2733 -0.2458
 6966TIP3   OH220861   0.028   2.450   1.163 -0.3053 -0.5150 -0.0024
 6966TIP3    H120862   0.089   2.446   1.237  1.4183 -2.9232 -1.4157
 6966TIP3    H220863  -0.058   2.436   1.201  0.2023  1.0265  1.8313
 6967TIP3   OH220864   3.925   5.425   5.661 -0.3759 -0.0352 -0.3102
 6967TIP3    H120865   3.842   5.459   5.692 -0.0267 -1.4364  2.4137
 6967TIP3    H220866   3.940   5.346   5.712  1.0649 -1.7374 -3.0813
 6968TIP3   OH220867   5.151   2.299   2.797  0.4313  0.0001  0.1463
 6968TIP3    H120868   5.173   2.242   2.724 -0.0248  0.3077 -0.2415
 6968TIP3    H220869   5.119   2.379   2.756 -2.5077 -0.8016  0.6063
 6969TIP3   OH220870   1.355   1.930   4.443 -0.0952 -0.3560 -0.8072
 6969TIP3    H120871   1.444   1.913   4.473  0.0723  0.0567 -1.0584
 6969TIP3    H220872   1.302   1.862   4.484  0.4573 -1.0979 -1.2914
 6970TIP3   OH220873   0.587   0.776   1.944 -0.1143 -0.7993 -0.8827
 6970TIP3    H120874   0.591   0.739   2.032 -2.2319 -0.2551 -0.5131
 6970TIP3    H220875   0.506   0.827   1.943  1.4984  1.9347 -2.1250
 6971TIP3   OH220876   3.255   5.170   1.972  0.9101 -0.6171  0.0793
 6971TIP3    H120877   3.289   5.191   1.885 -0.6319 -1.0922 -0.6808
 6971TIP3    H220878   3.201   5.245   1.996  3.0835  0.5525  1.6814
 6972TIP3   OH220879   1.496   4.913   4.722  0.0294  0.3255  0.3210
 6972TIP3    H120880   1.560   4.846   4.746  0.3622  0.2424 -0.7595
 6972TIP3    H220881   1.425   4.865   4.680  1.1298  0.7783 -2.2192
 6973TIP3   OH220882   3.608   1.567   1.259 -0.4196 -0.2547  0.0046
 6973TIP3    H120883   3.513   1.572   1.263 -0.5174 -0.0447 -1.6982
 6973TIP3    H220884   3.637   1.658   1.268 -0.4362 -0.2241 -0.2322
 6974TIP3   OH220885   6.541   3.863   5.089 -0.0703  0.7999  0.0574
 6974TIP3    H120886   6.620   3.864   5.144  1.3211 -0.0279 -1.8222
 6974TIP3    H220887   6.478   3.811   5.138  1.7344 -1.4345  0.1611
 6975TIP3   OH220888   3.696   1.275   2.127  0.7422  0.2885 -0.2277
 6975TIP3    H120889   3.643   1.200   2.100  1.0845 -0.6738  1.6267
 6975TIP3    H220890   3.783   1.239   2.140  2.3534  2.0510 -4.3668
 6976TIP3   OH220891   1.862   5.732   1.902  0.0884  0.6635  0.1113
 6976TIP3    H120892   1.892   5.661   1.959 -0.2009  0.5979  0.1847
 6976TIP3    H220893   1.928   5.800   1.912  0.8736  0.0326 -0.6937
 6977TIP3   OH220894   0.968   0.655   0.695 -0.3613 -0.1300  0.3628
 6977TIP3    H120895   0.957   0.670   0.601  1.3890  1.1647  0.3142
 6977TIP3    H220896   1.004   0.567   0.700 -0.4573 -0.2086 -0.1681
 6978TIP3   OH220897   3.542   1.007   0.829  0.4358 -0.2226 -0.5182
 6978TIP3    H120898   3.549   0.978   0.920 -1.5447 -0.4441 -0.3947
 6978TIP3    H220899   3.562   0.929   0.778  1.8065 -0.0328 -0.2937
 6979TIP3   OH220900   2.683   5.154   1.119  0.4638 -0.4119  0.0523
 6979TIP3    H120901   2.642   5.146   1.033  0.8143 -1.6161 -0.0185
 6979TIP3    H220902   2.700   5.248   1.129 -0.9332 -0.0718 -0.5461
 6980TIP3   OH220903   1.207   4.499   5.811 -0.1401  0.4161 -0.0129
 6980TIP3    H120904   1.280   4.560   5.822 -0.9099  1.3275  0.1818
 6980TIP3    H220905   1.159   4.504   5.893 -1.1986  0.8986 -0.6361
 6981TIP3   OH220906   1.933   4.135   2.824  0.4247  0.4505  0.2528
 6981TIP3    H120907   1.948   4.047   2.791 -0.6368  0.1864  0.4378
 6981TIP3    H220908   1.968   4.193   2.756  1.2821 -0.0980  0.2095
 6982TIP3   OH220909   3.889   6.477   4.935 -0.3806  0.1230  0.0230
 6982TIP3    H120910   3.837   6.503   5.011 -0.6576 -0.3458 -0.0043
 6982TIP3    H220911   3.827   6.432   4.877  0.3265 -1.7321  0.6377
 6983TIP3   OH220912   6.360   6.125   5.071 -0.1544 -0.4971  0.2142
 6983TIP3    H120913   6.416   6.115   4.994 -0.2176  0.4629  0.0337
 6983TIP3    H220914   6.416   6.170   5.135 -0.0529 -1.4203  0.7920
 6984TIP3   OH220915   1.635   4.509   1.811  0.4032 -0.0139 -0.0079
 6984TIP3    H120916   1.658   4.543   1.897  1.2082 -1.3220  0.3223
 6984TIP3    H220917   1.667   4.419   1.812 -3.6345 -1.6396  0.0243
 6985TIP3   OH220918   6.216   3.956   5.471 -0.1108 -0.2266 -0.0433
 6985TIP3    H120919   6.247   4.038   5.432  0.4880  0.2769  1.4403
 6985TIP3    H220920   6.282   3.933   5.536 -0.8567 -1.2680  0.3823
 6986TIP3   OH220921   6.365   6.225   3.713 -0.1608 -1.0251  0.3052
 6986TIP3    H120922   6.397   6.307   3.676  2.2005 -1.9516  0.0817
 6986TIP3    H220923   6.270   6.232   3.711 -0.0181  1.2930 -0.5923
 6987TIP3   OH220924   0.710   3.399   4.342 -0.3492  0.2840  0.1350
 6987TIP3    H120925   0.723   3.313   4.382 -0.6338 -0.5264 -1.4303
 6987TIP3    H220926   0.615   3.408   4.335 -0.3063  0.5484 -0.1065
 6988TIP3   OH220927   0.009   5.808   3.708 -0.1885 -0.7795  0.2318
 6988TIP3    H120928   0.090   5.859   3.704  0.8467 -2.4234 -1.9567
 6988TIP3    H220929   0.002   5.781   3.799  1.4808 -0.2419  0.5568
 6989TIP3   OH220930   1.695   3.257   2.117  0.1026  0.2195 -0.3127
 6989TIP3    H120931   1.757   3.190   2.147  0.1696  0.4598  0.0894
 6989TIP3    H220932   1.712   3.332   2.173 -1.0606  0.0428  0.3119
 6990TIP3   OH220933   2.077   2.176   5.639  0.6075 -0.2573 -0.1050
 6990TIP3    H120934   2.170   2.168   5.618  0.5874  2.3157 -1.5543
 6990TIP3    H220935   2.076   2.218   5.725  0.8633  0.9216 -0.6470
 6991TIP3   OH220936   2.788   3.458   5.856 -0.8600  0.0582  0.6739
 6991TIP3    H120937   2.749   3.544   5.870  0.4037  0.6890  0.4262
 6991TIP3    H220938   2.819   3.460   5.766 -1.2582 -0.8506  0.5036
 6992TIP3   OH220939   4.156   6.064   5.279 -0.1358  0.5239  0.2335
 6992TIP3    H120940   4.066   6.033   5.269 -0.5747  0.9742  2.3206
 6992TIP3    H220941   4.210   5.992   5.246 -1.2252 -0.1027 -0.2444
 6993TIP3   OH220942   6.228   5.594   2.111  0.6684 -0.4553 -0.4355
 6993TIP3    H120943   6.266   5.670   2.153  0.2563 -0.8258  0.6381
 6993TIP3    H220944   6.148   5.627   2.068  0.4754 -0.2893  0.0506
 6994TIP3   OH220945   1.928   0.884   0.459  0.0652 -0.0477  0.0155
 6994TIP3    H120946   1.918   0.941   0.383 -0.6777 -0.1522  0.0247
 6994TIP3    H220947   1.838   0.870   0.490  0.1447 -1.8837 -0.4774
 6995TIP3   OH220948   4.433   4.797   3.840  0.0488 -0.3425 -0.0003
 6995TIP3    H120949   4.510   4.853   3.848  0.5563 -0.9806 -0.2891
 6995TIP3    H220950   4.406   4.781   3.930 -0.5183  0.9145  0.0647
 6996TIP3   OH220951   5.233   0.182   1.841 -0.3658 -0.1340 -0.2064
 6996TIP3    H120952   5.168   0.234   1.793  0.3976  1.1377  0.0791
 6996TIP3    H220953   5.313   0.190   1.788 -0.0732 -0.4927  0.1829
 6997TIP3   OH220954   5.320   0.113   3.852  0.2674 -0.0292  0.2883
 6997TIP3    H120955   5.240   0.153   3.885 -1.4497 -2.0746 -1.1409
 6997TIP3    H220956   5.303   0.097   3.759  1.3458 -2.7646  0.4851
 6998TIP3   OH220957   0.420   6.260   0.499  0.0012  0.2459  0.1349
 6998TIP3    H120958   0.419   6.352   0.471 -1.6957  0.4189  0.6447
 6998TIP3    H220959   0.389   6.262   0.589  0.8098 -0.7588  0.4504
 6999TIP3   OH220960   5.885   1.632   3.246 -0.3461  0.2255  0.4454
 6999TIP3    H120961   5.836   1.634   3.328  0.0543 -2.0418  0.7909
 6999TIP3    H220962   5.920   1.543   3.241  1.9459  1.1225 -0.8452
 7000TIP3   OH220963   1.884   4.134   5.529  0.3877  0.1623 -0.1675
 7000TIP3    H120964   1.832   4.131   5.610 -0.6718  0.8601 -0.7971
 7000TIP3    H220965   1.822   4.112   5.460  1.4038 -0.9610 -0.7623
 7001TIP3   OH220966   2.306   2.598   2.213 -0.4385 -0.2632 -0.4821
 7001TIP3    H120967   2.392   2.639   2.218 -0.2080 -0.8836  2.9169
 7001TIP3    H220968   2.283   2.601   2.120  2.6569  1.0620 -1.3162
 7002TIP3   OH220969   4.311   3.519   4.269 -0.1560  0.6909 -0.3341
 7002TIP3    H120970   4.316   3.456   4.341  0.1662  1.4093  0.2941
 7002TIP3    H220971   4.225   3.506   4.230 -1.0490  1.4762  1.3027
 7003TIP3   OH220972   4.813   1.837   0.458  0.2645  0.0867  0.3406
 7003TIP3    H120973   4.844   1.845   0.368 -0.9225  0.3751 -0.0693
 7003TIP3    H220974   4.891   1.847   0.512  1.3428 -2.0964 -0.6922
 7004TIP3   OH220975   0.168   0.311   4.345 -0.5564 -0.6492  0.4346
 7004TIP3    H120976   0.171   0.398   4.386  0.2101 -0.3372 -0.2508
 7004TIP3    H220977   0.142   0.252   4.416 -0.5034  0.0571  1.0571
 7005TIP3   OH220978   0.036   2.097   0.489 -0.2053  0.9533  0.3888
 7005TIP3    H120979  -0.047   2.130   0.522 -0.6178  1.7443 -1.3325
 7005TIP3    H220980   0.094   2.173   0.487 -0.4591  1.1421 -1.4404
 7006TIP3   OH220981   5.794   4.865   3.535 -0.1833  0.1499 -0.2067
 7006TIP3    H120982   5.779   4.776   3.565  0.2340 -0.6467 -2.2233
 7006TIP3    H220983   5.731   4.918   3.585 -1.0203 -1.3687  0.4177
 7007TIP3   OH220984   3.607   6.391   3.234 -0.0798 -0.4574 -0.1438
 7007TIP3    H120985   3.588   6.378   3.326  0.9871 -0.6859  0.0670
 7007TIP3    H220986   3.696   6.426   3.233  0.7380 -2.4053 -1.1401
 7008TIP3   OH220987   4.268   0.403   5.476 -0.2005  0.1953 -0.1346
 7008TIP3    H120988   4.258   0.388   5.570  0.3964  0.3081 -0.0449
 7008TIP3    H220989   4.362   0.392   5.460 -0.2837  0.2708 -0.7008
 7009TIP3   OH220990   4.065   3.696   0.321 -0.1797 -0.3679  0.3470
 7009TIP3    H120991   4.015   3.774   0.294 -1.0972 -1.2911 -0.7604
 7009TIP3    H220992   4.055   3.693   0.416 -1.5328 -0.0384  0.2378
 7010TIP3   OH220993   5.049   0.630   2.435 -0.3063 -0.6709 -0.6786
 7010TIP3    H120994   4.966   0.651   2.478  0.4895  2.4232 -0.3564
 7010TIP3    H220995   5.030   0.633   2.342 -0.4380  0.9407 -0.6254
 7011TIP3   OH220996   6.976   4.370   2.384 -0.1182 -0.3878  0.1259
 7011TIP3    H120997   7.025   4.288   2.382  0.2704 -0.1493 -0.9240
 7011TIP3    H220998   7.002   4.415   2.304  0.8053  1.4157  1.3690
 7012TIP3   OH220999   3.605   2.601   4.851 -0.0618  0.2112 -0.3512
 7012TIP3    H121000   3.551   2.648   4.914 -1.2073 -1.1561 -0.2622
 7012TIP3    H221001   3.692   2.599   4.890 -1.2173 -2.8433  2.6094
 7013TIP3   OH221002   4.277   5.049   3.973 -0.3521  0.3166 -0.1162
 7013TIP3    H121003   4.321   5.033   4.057  0.6750 -1.3002 -0.9084
 7013TIP3    H221004   4.325   4.994   3.911 -0.4387  2.2358 -1.9767
 7014TIP3   OH221005   6.741   6.324   5.843 -0.0505  0.5708  0.4128
 7014TIP3    H121006   6.715   6.405   5.800 -0.4361  0.2158 -0.0411
 7014TIP3    H221007   6.685   6.318   5.921 -1.6344 -0.3591 -0.7360
 7015TIP3   OH221008   5.228   4.439   2.428  0.1180 -0.1909 -0.6031
 7015TIP3    H121009   5.150   4.387   2.448 -0.0973 -0.0034 -0.9340
 7015TIP3    H221010   5.295   4.374   2.407  0.1009 -0.3575 -0.1425
 7016TIP3   OH221011   3.803   6.089   3.365  0.0152  0.3666  0.0538
 7016TIP3    H121012   3.709   6.080   3.381  0.0366  0.2626  0.1218
 7016TIP3    H221013   3.838   6.128   3.445 -0.1815  1.7220 -0.4983
 7017TIP3   OH221014   5.947   5.637   0.860  0.0950 -0.0105  0.0623
 7017TIP3    H121015   5.852   5.625   0.867  0.1178  0.5711  2.7332
 7017TIP3    H221016   5.981   5.548   0.852 -0.6835 -0.1598 -2.1064
 7018TIP3   OH221017   4.950   3.532   1.030 -0.1985  0.1661 -0.4457
 7018TIP3    H121018   4.973   3.439   1.025  3.4944  0.9545 -1.8780
 7018TIP3    H221019   4.896   3.547   0.952  0.3943 -0.5551 -1.0200
 7019TIP3   OH221020   1.940   0.841   2.919  0.1625  0.5343 -1.2303
 7019TIP3    H121021   1.849   0.869   2.929  0.5636  1.2793  0.9330
 7019TIP3    H221022   1.962   0.864   2.829 -1.4629  1.3356 -1.4623
 7020TIP3   OH221023   4.638   1.364   0.527  0.4090 -0.3965  0.2431
 7020TIP3    H121024   4.596   1.286   0.563 -2.6004  0.6215 -0.7383
 7020TIP3    H221025   4.605   1.370   0.437  1.4683  1.3736 -0.0809
 7021TIP3   OH221026   1.739   3.220   3.740  0.1197 -0.2038 -0.4474
 7021TIP3    H121027   1.782   3.152   3.689 -0.7451 -0.0696 -1.3931
 7021TIP3    H221028   1.645   3.207   3.725 -0.1043  0.5538  0.1805
 7022TIP3   OH221029   1.261   6.696   1.492  0.6861 -0.2964 -0.3627
 7022TIP3    H121030   1.314   6.642   1.433  1.3224  0.9367 -0.9552
 7022TIP3    H221031   1.227   6.766   1.436 -1.8641 -1.1906 -0.0797
 7023TIP3   OH221032   5.423   5.717   2.155  0.4450  0.3327 -0.5207
 7023TIP3    H121033   5.361   5.696   2.225 -2.5264  1.6789 -2.5860
 7023TIP3    H221034   5.483   5.642   2.155 -1.1415 -1.0894  1.5950
 7024TIP3   OH221035   1.288   3.004   0.724 -0.0280  0.5537 -0.1491
 7024TIP3    H121036   1.197   2.977   0.732 -0.2579  1.0252 -1.0035
 7024TIP3    H221037   1.310   3.043   0.809 -0.2042 -0.7298  0.5147
 7025TIP3   OH221038   3.774   4.014   5.740 -0.1031 -0.4462  0.3154
 7025TIP3    H121039   3.787   3.919   5.736  1.0827 -0.2562 -1.0828
 7025TIP3    H221040   3.858   4.051   5.712 -1.0683  0.9973 -0.8377
 7026TIP3   OH221041   0.735   6.553   2.287  0.1272 -0.2449 -0.4300
 7026TIP3    H121042   0.675   6.521   2.355 -0.1695 -0.1155 -0.6287
 7026TIP3    H221043   0.822   6.544   2.326  0.0829 -1.5707 -0.5799
 7027TIP3   OH221044   2.462   5.079   4.490  0.9126 -0.2310  0.2906
 7027TIP3    H121045   2.515   5.134   4.432 -1.2651  0.3469 -1.3288
 7027TIP3    H221046   2.512   4.998   4.499  3.5456  1.3988  1.5784
 7028TIP3   OH221047   1.347   4.162   1.939  0.0086 -0.1412  0.3281
 7028TIP3    H121048   1.343   4.240   1.994  0.6033 -0.7262  1.2140
 7028TIP3    H221049   1.260   4.122   1.949 -0.7999  1.0792 -1.1978
 7029TIP3   OH221050   4.279   1.335   3.294  0.0641  0.0852  0.5023
 7029TIP3    H121051   4.335   1.358   3.220 -1.6074  0.0407 -0.8351
 7029TIP3    H221052   4.337   1.290   3.355  1.2433 -1.0331 -1.3572
 7030TIP3   OH221053   2.868   4.507   1.244  0.3413  0.2435  0.5435
 7030TIP3    H121054   2.881   4.444   1.316  0.2782 -0.0913  0.2631
 7030TIP3    H221055   2.916   4.469   1.171 -0.4547  0.0676  0.1090
 7031TIP3   OH221056   1.378   4.222   4.584  0.0350 -0.1748 -0.0553
 7031TIP3    H121057   1.346   4.304   4.547  0.2603 -0.6353 -1.3139
 7031TIP3    H221058   1.313   4.198   4.650 -1.1965 -0.0976 -1.2064
 7032TIP3   OH221059   1.266   3.319   2.477 -0.1906  0.8544 -0.1958
 7032TIP3    H121060   1.281   3.405   2.437  0.4083  1.3309  0.9968
 7032TIP3    H221061   1.244   3.339   2.568  0.2141 -0.2709  0.1600
 7033TIP3   OH221062   3.775   2.702   2.479  0.4162  0.1378  0.0370
 7033TIP3    H121063   3.725   2.754   2.543  1.9436  0.9793  0.6266
 7033TIP3    H221064   3.824   2.640   2.533  0.0010 -0.6984 -0.5323
 7034TIP3   OH221065   1.999   0.375   0.338  0.1146  0.1749  0.6269
 7034TIP3    H121066   1.963   0.430   0.268  3.0366 -1.3863 -2.4045
 7034TIP3    H221067   2.066   0.430   0.379  1.1628 -0.1917 -0.5628
 7035TIP3   OH221068   2.104   6.480   5.865 -0.2599 -0.4795 -0.4777
 7035TIP3    H121069   2.040   6.434   5.810 -0.1063 -1.4442  0.1355
 7035TIP3    H221070   2.137   6.413   5.925  0.3313  0.3234  0.1131
 7036TIP3   OH221071   0.167   4.818   2.061  0.1201  0.2150  0.3643
 7036TIP3    H121072   0.189   4.768   2.140  0.0726 -0.2381  0.0977
 7036TIP3    H221073   0.236   4.795   1.999 -0.2674 -0.0309  0.0230
 7037TIP3   OH221074   1.050   2.630   5.606 -0.0334  0.2500 -0.1281
 7037TIP3    H121075   1.065   2.693   5.536  1.3816  0.1882  0.0865
 7037TIP3    H221076   1.038   2.546   5.561 -0.4938  0.4231 -0.3406
 7038TIP3   OH221077   7.075   2.300   5.701  0.0061 -0.4831  0.0985
 7038TIP3    H121078   7.023   2.220   5.695 -0.1428 -0.4453  0.8076
 7038TIP3    H221079   7.165   2.270   5.713  0.0233 -0.5451 -0.1866
 7039TIP3   OH221080   3.657   3.891   3.404  0.0108  0.4641 -0.5161
 7039TIP3    H121081   3.738   3.887   3.454  1.6883  0.4953 -3.0624
 7039TIP3    H221082   3.633   3.799   3.390 -0.1663  0.4512 -0.1528
 7040TIP3   OH221083   2.502   0.849   5.702 -0.0883  0.3246  0.2378
 7040TIP3    H121084   2.528   0.825   5.613  1.3686 -0.7727  0.9079
 7040TIP3    H221085   2.463   0.770   5.738 -1.7642  1.1051  0.2302
 7041TIP3   OH221086   5.444   0.079   1.669 -0.4991 -0.1388 -0.2304
 7041TIP3    H121087   5.431  -0.012   1.645 -0.3621 -0.1626 -0.2159
 7041TIP3    H221088   5.508   0.076   1.741 -0.9919 -0.0818  0.2205
 7042TIP3   OH221089   1.464   5.666   0.905 -0.0619  0.4413 -0.5332
 7042TIP3    H121090   1.526   5.629   0.967 -0.3946 -0.7073 -0.8627
 7042TIP3    H221091   1.408   5.722   0.958 -0.3499 -0.5347  0.2204
 7043TIP3   OH221092   0.417   1.201   3.550  0.3306 -1.0196  0.6788
 7043TIP3    H121093   0.395   1.209   3.642 -0.3630 -1.6601  0.5752
 7043TIP3    H221094   0.340   1.235   3.504  1.2662  0.7532  0.3221
 7044TIP3   OH221095   3.105   5.238   4.432  0.0754 -0.0020  0.2382
 7044TIP3    H121096   3.076   5.150   4.409 -0.1938 -0.0679  0.8272
 7044TIP3    H221097   3.028   5.279   4.471  0.5061  0.1419  0.9431
 7045TIP3   OH221098   5.251   1.872   4.253 -0.1909  0.0513  1.2342
 7045TIP3    H121099   5.305   1.832   4.321  0.8326 -0.8753 -0.0749
 7045TIP3    H221100   5.218   1.798   4.202  1.6209  0.7756 -1.1627
 7046TIP3   OH221101   2.397   0.586   1.154 -0.3785  0.1692  0.2015
 7046TIP3    H121102   2.477   0.536   1.167  0.2180  1.0208 -0.0413
 7046TIP3    H221103   2.332   0.545   1.211 -0.4109 -1.9273 -1.2423
 7047TIP3   OH221104   0.677   2.050   5.047 -0.8672  0.5786 -0.1512
 7047TIP3    H121105   0.640   1.967   5.077 -2.1685  0.4088 -2.0409
 7047TIP3    H221106   0.652   2.056   4.955  1.9580  1.5607 -0.9563
 7048TIP3   OH221107   2.297   5.603   1.426  0.0771  0.2770 -0.5730
 7048TIP3    H121108   2.271   5.586   1.517  0.9582  1.2054 -0.1308
 7048TIP3    H221109   2.257   5.687   1.405 -0.8975 -0.3716 -1.3778
 7049TIP3   OH221110   3.863   5.300   0.583 -0.1669  0.5890 -1.0677
 7049TIP3    H121111   3.904   5.347   0.655 -3.1846  1.4782  0.2334
 7049TIP3    H221112   3.917   5.320   0.507  3.3757 -0.7006  0.8880
 7050TIP3   OH221113   1.399   4.362   4.194  0.2262 -0.2624  0.2537
 7050TIP3    H121114   1.457   4.287   4.181  0.2304  0.1046 -2.2629
 7050TIP3    H221115   1.435   4.430   4.137 -2.1764  0.2467 -0.7746
 7051TIP3   OH221116   2.880   5.982   2.918  0.2285  0.3149  0.0049
 7051TIP3    H121117   2.842   6.067   2.938 -1.1789 -0.5394  1.1682
 7051TIP3    H221118   2.869   5.973   2.823  0.0679  1.2705 -0.0737
 7052TIP3   OH221119   5.087   4.747   0.636  0.0135  0.4502  0.3396
 7052TIP3    H121120   5.026   4.793   0.579  0.8224  0.8065 -0.2603
 7052TIP3    H221121   5.037   4.672   0.670 -0.4588  0.1811 -0.9069
 7053TIP3   OH221122   6.937   2.141   4.977 -0.4190 -1.5031  0.3138
 7053TIP3    H121123   6.996   2.193   4.922 -0.9808 -1.0615  0.1244
 7053TIP3    H221124   6.896   2.079   4.916  0.5692 -2.4929  0.6049
 7054TIP3   OH221125   2.950   0.960   2.105  0.1826 -0.0809 -0.1765
 7054TIP3    H121126   2.864   0.918   2.106  0.6553 -1.1203 -1.3218
 7054TIP3    H221127   2.931   1.052   2.082 -0.7654  0.1572  1.4022
 7055TIP3   OH221128   5.110   4.912   2.684  0.1036 -0.0351 -0.4172
 7055TIP3    H121129   5.092   4.897   2.777  1.1418 -0.2706 -0.2342
 7055TIP3    H221130   5.024   4.912   2.642 -0.4927  1.2889  0.7095
 7056TIP3   OH221131   2.306   6.461   1.871  0.2284 -0.2416  0.2827
 7056TIP3    H121132   2.299   6.556   1.858 -0.2910 -0.1946  0.8335
 7056TIP3    H221133   2.362   6.431   1.800  1.8341  0.7206  1.0717
 7057TIP3   OH221134   2.849   0.762   3.414  0.8611 -0.0863 -0.1109
 7057TIP3    H121135   2.906   0.798   3.482  0.1889  1.6936 -0.4339
 7057TIP3    H221136   2.850   0.668   3.430  1.3753  0.1987  1.8626
 7058TIP3   OH221137   4.346   2.385   0.160  0.2682 -0.2919 -0.1365
 7058TIP3    H121138   4.282   2.456   0.160  2.0049  1.3585  0.4996
 7058TIP3    H221139   4.405   2.405   0.088  0.9731 -0.9205  0.2440
 7059TIP3   OH221140   0.627   3.882   1.100  0.5132  0.0676 -0.3934
 7059TIP3    H121141   0.613   3.798   1.057  0.1410  1.6361 -3.6586
 7059TIP3    H221142   0.721   3.886   1.117  0.5238 -0.9903 -0.1598
 7060TIP3   OH221143   4.266   5.560   2.280 -0.0697 -0.7964 -0.3184
 7060TIP3    H121144   4.206   5.506   2.229  0.2655 -0.4569 -1.0744
 7060TIP3    H221145   4.228   5.561   2.368 -0.8693 -1.0452 -0.6550
 7061TIP3   OH221146   2.043   1.304   4.413  0.4677 -0.1015 -0.2702
 7061TIP3    H121147   2.090   1.248   4.475 -1.6495 -3.1874 -1.1928
 7061TIP3    H221148   2.064   1.268   4.327 -0.1436  1.2232 -1.0060
 7062TIP3   OH221149   1.931   6.761   2.805 -0.4153 -0.5422  0.0344
 7062TIP3    H121150   2.026   6.748   2.799 -0.6147 -1.2725 -2.0928
 7062TIP3    H221151   1.893   6.675   2.791 -1.4422  0.0811 -1.1800
 7063TIP3   OH221152   4.985   5.103   1.675  0.2260 -0.4188  0.3781
 7063TIP3    H121153   5.078   5.087   1.655  0.3288  0.1706  0.3531
 7063TIP3    H221154   4.941   5.021   1.654  0.3544  0.0678 -2.1650
 7064TIP3   OH221155   0.864   1.682   2.715 -0.2785 -0.3115 -0.0432
 7064TIP3    H121156   0.841   1.775   2.713  0.8229  0.0698  1.8165
 7064TIP3    H221157   0.954   1.681   2.748 -0.7718 -2.0899  1.3939
 7065TIP3   OH221158   0.267   5.936   4.072 -0.1089  0.5137 -0.4066
 7065TIP3    H121159   0.340   5.886   4.035  0.5647  0.4137  0.9586
 7065TIP3    H221160   0.219   5.970   3.997 -1.0097 -2.7427 -1.4549
 7066TIP3   OH221161   4.402   3.396   4.018  0.0261  0.0885  0.3218
 7066TIP3    H121162   4.341   3.396   4.091 -1.8866 -0.2253 -1.1822
 7066TIP3    H221163   4.390   3.482   3.977  1.3826  0.4257  0.5963
 7067TIP3   OH221164   4.956   5.655   2.288  0.5611  0.2480 -0.2746
 7067TIP3    H121165   5.008   5.718   2.339  1.2054 -0.4694 -0.0346
 7067TIP3    H221166   4.868   5.664   2.324  0.9049  0.1049  0.6533
 7068TIP3   OH221167   5.550   2.338   0.308 -0.0593  0.4756  0.7124
 7068TIP3    H121168   5.458   2.367   0.306  0.2618  1.5742  0.9200
 7068TIP3    H221169   5.599   2.413   0.273  0.6550 -0.6073 -0.6946
 7069TIP3   OH221170   6.914   5.214   2.752  0.7892 -0.6737  0.2802
 7069TIP3    H121171   6.975   5.198   2.680 -0.4578 -1.2503 -0.6894
 7069TIP3    H221172   6.967   5.258   2.819  2.1053 -0.5852 -0.7715
 7070TIP3   OH221173   5.303   1.820   4.921 -0.8209  0.0617 -0.1078
 7070TIP3    H121174   5.383   1.872   4.929 -1.6678  1.1553  1.8448
 7070TIP3    H221175   5.235   1.884   4.903 -1.4017 -0.7785 -1.0045
 7071TIP3   OH221176   1.044   3.225   5.544  0.6048 -0.0865  0.4051
 7071TIP3    H121177   0.956   3.261   5.548 -0.1145 -1.7582  0.4929
 7071TIP3    H221178   1.083   3.265   5.466 -0.9915 -0.9275 -0.8843
 7072TIP3   OH221179   3.127   4.617   1.926  0.0323  0.8703 -0.7248
 7072TIP3    H121180   3.122   4.601   2.020  0.3308  1.9169 -0.5189
 7072TIP3    H221181   3.167   4.704   1.918  0.9700  0.3586 -1.8484
 7073TIP3   OH221182   5.149   3.897   1.630  0.0736  0.3315 -0.3155
 7073TIP3    H121183   5.181   3.937   1.549  2.5217 -1.1443 -0.1866
 7073TIP3    H221184   5.064   3.859   1.606  1.2492 -1.1447 -2.6358
 7074TIP3   OH221185   5.972   5.664   3.457 -0.2457  0.4007  0.9527
 7074TIP3    H121186   6.047   5.718   3.481  0.0381  0.4873 -0.0457
 7074TIP3    H221187   6.008   5.575   3.453 -0.5569  0.2187  1.9416
 7075TIP3   OH221188   2.647   3.777   0.009  0.0872  0.0264 -0.3687
 7075TIP3    H121189   2.665   3.858  -0.039 -0.5819 -0.5861 -1.7028
 7075TIP3    H221190   2.628   3.806   0.098 -0.1584  1.3360 -0.8249
 7076TIP3   OH221191   6.073   1.100   3.447 -0.0021  0.1203  0.1261
 7076TIP3    H121192   6.030   1.025   3.405  0.2354 -0.3429  0.6849
 7076TIP3    H221193   6.098   1.157   3.375 -0.3542 -0.2510 -0.2982
 7077TIP3   OH221194   4.842   0.152   1.529 -0.3577 -0.5072  0.2322
 7077TIP3    H121195   4.840   0.241   1.493 -1.8578 -0.9493 -0.9054
 7077TIP3    H221196   4.867   0.163   1.621 -0.0420  1.0317 -0.0142
 7078TIP3   OH221197   5.807   0.709   3.917 -0.0610  0.3935 -0.3503
 7078TIP3    H121198   5.831   0.798   3.944 -1.9201  0.5173  1.1289
 7078TIP3    H221199   5.712   0.707   3.926 -0.1421 -1.4949 -1.2308
 7079TIP3   OH221200   6.497   1.766   1.828 -0.6836  0.9604  0.6344
 7079TIP3    H121201   6.453   1.849   1.847  1.7472  1.9098  2.6461
 7079TIP3    H221202   6.587   1.791   1.809 -0.6400 -0.9894 -2.2702
 7080TIP3   OH221203   1.793   4.884   5.322 -0.4324 -0.0777  0.2824
 7080TIP3    H121204   1.721   4.946   5.325 -0.6554 -0.2326 -1.2019
 7080TIP3    H221205   1.847   4.907   5.398 -1.4342  0.7644  0.7728
 7081TIP3   OH221206   0.221   6.200   1.856  0.0012  0.1924  0.0260
 7081TIP3    H121207   0.136   6.197   1.811 -0.9854  0.0477  1.8239
 7081TIP3    H221208   0.260   6.115   1.838 -1.3555 -0.7198  1.1986
 7082TIP3   OH221209   2.580   5.793   2.862 -0.1713 -0.4994 -0.6784
 7082TIP3    H121210   2.548   5.748   2.784  1.6567 -0.0273 -1.7455
 7082TIP3    H221211   2.667   5.823   2.839 -0.3908  1.5176  0.8374
 7083TIP3   OH221212   5.260   2.780   1.717 -0.1668 -0.1688  0.4305
 7083TIP3    H121213   5.257   2.705   1.658  1.0036  0.2361 -0.1735
 7083TIP3    H221214   5.325   2.758   1.783 -1.0028 -0.3467  1.2149
 7084TIP3   OH221215   4.167   1.031   1.628  0.5127  0.5075 -0.1889
 7084TIP3    H121216   4.191   1.040   1.720 -1.2203  0.8612  0.2516
 7084TIP3    H221217   4.092   1.089   1.617  0.3532  0.0533 -1.7049
 7085TIP3   OH221218   5.753   5.606   5.043 -0.4427 -0.6488  0.3399
 7085TIP3    H121219   5.772   5.516   5.016  3.1221 -0.4265  1.4732
 7085TIP3    H221220   5.688   5.637   4.981 -0.0749 -3.2896 -1.5258
 7086TIP3   OH221221   1.842   6.036   4.720  0.3517 -0.0150  0.0808
 7086TIP3    H121222   1.867   6.015   4.630 -1.3905  0.6977 -0.6133
 7086TIP3    H221223   1.910   6.095   4.752  0.4151  0.6087 -1.1684
 7087TIP3   OH221224   4.107   1.450   3.486  0.0400 -0.0293 -0.0799
 7087TIP3    H121225   4.171   1.395   3.441 -0.8614 -0.4271 -0.8874
 7087TIP3    H221226   4.161   1.510   3.538  1.1815  1.2239 -2.5488
 7088TIP3   OH221227   2.402   0.759   2.320  0.1318  0.3609 -0.1718
 7088TIP3    H121228   2.352   0.783   2.242  1.0742  1.9048 -0.3504
 7088TIP3    H221229   2.453   0.683   2.294 -0.9702 -0.2921 -0.4548
 7089TIP3   OH221230   6.883   5.533   4.837 -0.3870  0.5355 -0.5094
 7089TIP3    H121231   6.909   5.441   4.827 -0.5180  0.5773 -1.2708
 7089TIP3    H221232   6.942   5.581   4.780  0.8518  1.1353  1.2219
 7090TIP3   OH221233   4.555   5.085   1.408 -0.6242 -0.3814 -0.7621
 7090TIP3    H121234   4.523   5.022   1.473  0.3872 -0.6311 -0.4842
 7090TIP3    H221235   4.636   5.046   1.375 -1.9996 -1.1483 -3.5308
 7091TIP3   OH221236   4.997   3.623   3.096  0.2659 -0.3133 -0.3182
 7091TIP3    H121237   5.057   3.691   3.064 -1.1249  0.6598 -0.9747
 7091TIP3    H221238   4.911   3.649   3.062 -0.7615 -0.9796  1.5857
 7092TIP3   OH221239   6.225   0.684   4.136 -0.1847  0.7300  0.4830
 7092TIP3    H121240   6.214   0.611   4.196  0.7264  0.7567  0.7046
 7092TIP3    H221241   6.283   0.650   4.067 -1.6641  0.5179 -0.7108
 7093TIP3   OH221242   2.715   4.049   4.341 -0.1452  0.2193 -0.3094
 7093TIP3    H121243   2.752   4.134   4.317 -0.2015  0.3144 -0.0660
 7093TIP3    H221244   2.790   3.992   4.354 -0.1135  0.1624 -0.7146
 7094TIP3   OH221245   1.515   0.681   2.263  0.1381 -0.4299  0.0454
 7094TIP3    H121246   1.444   0.669   2.201 -0.3731 -3.4880  1.0569
 7094TIP3    H221247   1.484   0.640   2.344  2.7088 -1.1584  0.7774
 7095TIP3   OH221248   5.658   1.776   4.191  0.8620  0.7260 -0.0723
 7095TIP3    H121249   5.581   1.803   4.142  0.9618  0.5851 -0.3130
 7095TIP3    H221250   5.732   1.814   4.143  1.1691 -1.6785 -1.6756
 7096TIP3   OH221251   6.354   5.225   0.428 -0.2776 -0.3555  0.3175
 7096TIP3    H121252   6.399   5.237   0.345  0.3596 -1.7994  0.4183
 7096TIP3    H221253   6.262   5.243   0.409  0.0636  0.7585 -0.3417
 7097TIP3   OH221254   7.047   5.443   2.535  0.0435 -0.3062  0.0011
 7097TIP3    H121255   6.976   5.427   2.598  0.5717 -0.6085  0.5280
 7097TIP3    H221256   7.002   5.474   2.456 -0.4684  2.2422  1.2130
 7098TIP3   OH221257   6.786  -0.028   2.273  0.4453  0.3791  0.4319
 7098TIP3    H121258   6.882  -0.023   2.281  0.6500  0.6980 -1.7414
 7098TIP3    H221259   6.759   0.059   2.244 -0.7014  0.6709  2.1908
 7099TIP3   OH221260   1.809   0.758   1.900  0.7671  0.0127 -0.5614
 7099TIP3    H121261   1.820   0.851   1.880  2.1744  0.1015  0.5298
 7099TIP3    H221262   1.778   0.756   1.991 -0.5941 -0.5561 -1.0139
 7100TIP3   OH221263   2.532   6.677   3.701  0.1619  0.5350 -0.0082
 7100TIP3    H121264   2.463   6.737   3.728 -1.8962 -2.7429  3.0224
 7100TIP3    H221265   2.495   6.630   3.626 -1.0921 -1.1724  1.5722
 7101TIP3   OH221266   4.520   0.851   5.007  0.5000  0.1958  0.1261
 7101TIP3    H121267   4.554   0.789   5.071 -1.2496 -1.0018 -0.0365
 7101TIP3    H221268   4.565   0.829   4.926  0.4410 -0.3767  0.2460
 7102TIP3   OH221269   6.726   5.061   1.667  0.6467  0.0772 -0.2990
 7102TIP3    H121270   6.654   5.114   1.702  2.6968  1.7348  1.6407
 7102TIP3    H221271   6.714   4.975   1.707 -0.1599  0.3700  0.1166
 7103TIP3   OH221272   2.315   6.258   0.077  0.4515 -0.1516 -0.1376
 7103TIP3    H121273   2.310   6.349   0.109  0.3551 -0.6310  1.2736
 7103TIP3    H221274   2.264   6.259  -0.004  1.2527  1.2572 -0.6783
 7104TIP3   OH221275   4.010   0.366   1.002 -0.1123  1.0214 -0.0585
 7104TIP3    H121276   4.082   0.426   1.021 -0.6066  1.2055  1.3671
 7104TIP3    H221277   4.023   0.293   1.064 -1.6407  1.5061  0.8897
 7105TIP3   OH221278   0.486   2.816   2.889 -0.5459  0.0064  0.0397
 7105TIP3    H121279   0.422   2.852   2.828  0.7439  1.2841 -0.6100
 7105TIP3    H221280   0.538   2.756   2.837  0.8658  1.4588 -0.2973
 7106TIP3   OH221281   0.250   6.420   0.941 -0.3818  0.7796  0.4203
 7106TIP3    H121282   0.328   6.421   0.997  0.3051  1.1575 -0.5274
 7106TIP3    H221283   0.206   6.502   0.960 -1.0159  0.2046  1.5693
 7107TIP3   OH221284   5.459   2.740   0.294 -0.0542 -0.0197  0.2523
 7107TIP3    H121285   5.385   2.790   0.258 -0.3392  0.0237  0.8765
 7107TIP3    H221286   5.536   2.790   0.269 -0.2982  0.4120  0.3484
 7108TIP3   OH221287   0.074   4.417   5.123  0.2785  0.0598 -0.5018
 7108TIP3    H121288   0.054   4.487   5.185  0.4799 -1.1111  0.9147
 7108TIP3    H221289   0.163   4.437   5.092 -0.4292  1.5499 -1.7126
 7109TIP3   OH221290   6.684   1.019   3.723  0.6075  0.4297 -0.4215
 7109TIP3    H121291   6.653   1.105   3.753 -1.4840  0.2420 -1.8267
 7109TIP3    H221292   6.776   1.016   3.749  0.3095  2.4271  1.0796
 7110TIP3   OH221293   3.979   0.725   3.458  0.2615 -0.2584 -0.1953
 7110TIP3    H121294   4.045   0.793   3.461  2.1394 -1.8858 -1.6785
 7110TIP3    H221295   3.949   0.715   3.548  1.4162  1.1116  0.3626
 7111TIP3   OH221296   1.657   4.656   0.319 -0.2342  0.9782  0.2033
 7111TIP3    H121297   1.684   4.575   0.362  0.9741  1.3253  0.1409
 7111TIP3    H221298   1.737   4.689   0.277 -1.0835  1.3017 -1.2634
 7112TIP3   OH221299   2.615   2.606   3.223 -0.1933 -0.0117 -0.1724
 7112TIP3    H121300   2.614   2.510   3.224  2.0167 -0.0814  0.8845
 7112TIP3    H221301   2.563   2.631   3.299  0.4470 -0.4336  0.4160
 7113TIP3   OH221302   4.123   5.398   4.451  0.2909  0.1043 -0.0442
 7113TIP3    H121303   4.182   5.354   4.511 -2.2286 -3.7844 -0.0938
 7113TIP3    H221304   4.159   5.381   4.364  1.4398  1.7052  0.0861
 7114TIP3   OH221305   5.500   3.460   1.411 -0.1981  0.2785 -0.2564
 7114TIP3    H121306   5.554   3.523   1.364  1.5256 -1.3221 -0.5498
 7114TIP3    H221307   5.467   3.401   1.342 -0.3575 -0.1539  0.1853
 7115TIP3   OH221308   4.234   3.968   5.763 -0.3295  0.7999  0.6691
 7115TIP3    H121309   4.306   4.018   5.724 -0.2750 -0.1017 -0.4344
 7115TIP3    H221310   4.155   4.008   5.726 -0.2968  0.2579  0.0083
 7116TIP3   OH221311   3.930   5.339   3.242  0.1047  0.5558 -0.1324
 7116TIP3    H121312   4.005   5.387   3.209  0.8785 -1.4370 -1.4702
 7116TIP3    H221313   3.913   5.272   3.176 -1.1200 -0.7791  1.4338
 7117TIP3   OH221314   0.812   5.965   1.322 -0.4944  0.1092 -0.0547
 7117TIP3    H121315   0.850   5.882   1.293  1.5052  1.0329 -0.1930
 7117TIP3    H221316   0.760   5.995   1.248  1.5620  0.6256 -1.3392
 7118TIP3   OH221317   6.596   4.699   0.223  0.0353  0.2623  0.8671
 7118TIP3    H121318   6.688   4.689   0.245 -0.1296  1.0197  1.9269
 7118TIP3    H221319   6.595   4.706   0.128  1.1817  1.4452  0.9243
 7119TIP3   OH221320   1.867   1.649   4.355  0.8624 -0.3887 -0.0924
 7119TIP3    H121321   1.848   1.570   4.305 -1.0351  0.0992 -0.2133
 7119TIP3    H221322   1.940   1.689   4.308 -0.7893  0.0144 -2.5214
 7120TIP3   OH221323   2.652   6.167   5.132  0.3715 -0.3069  0.6383
 7120TIP3    H121324   2.645   6.260   5.156 -1.4482 -0.3046  0.2611
 7120TIP3    H221325   2.561   6.137   5.127  0.8974 -1.8418 -0.3165
 7121TIP3   OH221326   4.915   3.038   3.801  0.6165 -0.4045 -0.8629
 7121TIP3    H121327   5.004   3.074   3.802  1.3159 -2.0306  0.7733
 7121TIP3    H221328   4.909   2.986   3.881 -2.1092  0.2909 -0.5088
 7122TIP3   OH221329   4.146   5.826   4.113 -0.3439  0.3541  0.3361
 7122TIP3    H121330   4.186   5.906   4.080 -0.1952  0.5099  0.8790
 7122TIP3    H221331   4.199   5.803   4.190  1.7279 -2.0829 -1.6540
 7123TIP3   OH221332   2.824   6.576   2.853  0.5491 -0.2361  0.0400
 7123TIP3    H121333   2.744   6.547   2.809  1.3345  0.0121 -1.6688
 7123TIP3    H221334   2.846   6.505   2.913 -0.2956 -0.8467 -0.3563
 7124TIP3   OH221335   4.592   2.721   0.354  0.5409 -0.5719  0.1689
 7124TIP3    H121336   4.545   2.725   0.270  1.5925  2.9735 -0.4089
 7124TIP3    H221337   4.682   2.698   0.329  0.8281  0.3732  0.3245
 7125TIP3   OH221338   4.423   4.544   0.075  0.1142 -0.7378  0.0277
 7125TIP3    H121339   4.468   4.520  -0.006 -0.5159  0.7589 -0.8170
 7125TIP3    H221340   4.343   4.491   0.074 -2.0114  2.1041 -2.5776
 7126TIP3   OH221341   6.097   0.177   3.683 -0.3353 -0.9027  0.1452
 7126TIP3    H121342   6.110   0.219   3.598 -1.1096 -0.1186  0.3954
 7126TIP3    H221343   6.007   0.144   3.680 -0.8206  0.2331  1.0830
 7127TIP3   OH221344   0.386   2.469   0.431 -0.2857  0.3821 -0.1537
 7127TIP3    H121345   0.394   2.447   0.338 -0.5742 -0.7873  0.0805
 7127TIP3    H221346   0.464   2.431   0.471  0.6226  2.1932 -0.1142
 7128TIP3   OH221347   7.178   2.849   2.526  0.0555 -0.2313  0.4855
 7128TIP3    H121348   7.084   2.866   2.535  0.4268  1.6718  1.1717
 7128TIP3    H221349   7.197   2.782   2.592 -0.5522  0.5117  1.4369
 7129TIP3   OH221350   6.545   6.771   5.357  0.0278  0.2244  0.5147
 7129TIP3    H121351   6.459   6.810   5.374  0.3689  0.5266  1.6233
 7129TIP3    H221352   6.531   6.677   5.370 -0.1231  0.2748  0.7223
 7130TIP3   OH221353   4.905   5.754   4.023  0.5725  0.4697  0.1386
 7130TIP3    H121354   4.883   5.719   3.936 -2.1813 -0.0286  0.9418
 7130TIP3    H221355   4.909   5.677   4.079  2.6392  0.7598  0.4531
 7131TIP3   OH221356   1.047   1.859   0.802 -0.8845 -0.2178 -0.1059
 7131TIP3    H121357   1.101   1.834   0.727 -0.5291 -0.4026  0.2061
 7131TIP3    H221358   1.058   1.787   0.864  1.3394  1.3133  1.4384
 7132TIP3   OH221359   4.414   1.530   1.333 -0.2736 -0.0891  0.0172
 7132TIP3    H121360   4.386   1.497   1.247 -0.8010 -0.5063  0.3467
 7132TIP3    H221361   4.337   1.520   1.389 -0.2335  1.0670  0.3055
 7133TIP3   OH221362   4.392   2.818   5.343 -0.1113  0.4997 -0.3424
 7133TIP3    H121363   4.469   2.808   5.286 -0.3027  0.9644 -0.6973
 7133TIP3    H221364   4.410   2.761   5.418  0.0059 -0.3630 -1.0122
 7134TIP3   OH221365   5.352   4.670   5.465  0.2121  0.3512  0.0282
 7134TIP3    H121366   5.420   4.671   5.532 -0.7653  0.0858  1.0461
 7134TIP3    H221367   5.276   4.710   5.507 -0.5538 -0.2133 -0.7787
 7135TIP3   OH221368   3.652   3.356   3.263  0.5919  0.8616 -0.2849
 7135TIP3    H121369   3.644   3.451   3.252  1.4160  0.7930 -1.6057
 7135TIP3    H221370   3.561   3.326   3.271  0.3242  1.7578  0.1914
 7136TIP3   OH221371   4.636   1.657   0.857  1.0982 -0.3847  0.1307
 7136TIP3    H121372   4.552   1.691   0.826  0.3567 -1.1279  1.2828
 7136TIP3    H221373   4.683   1.635   0.777  0.6074  0.9878 -0.5619
 7137TIP3   OH221374   3.262   6.613   0.265 -0.2658  0.3803 -0.1643
 7137TIP3    H121375   3.355   6.631   0.255 -0.1595 -0.6752 -1.3027
 7137TIP3    H221376   3.257   6.520   0.285 -1.0701  0.4809  0.1473
 7138TIP3   OH221377   4.037   4.713   4.069 -0.2930 -0.5468  0.0909
 7138TIP3    H121378   4.005   4.708   4.159  1.2950 -0.0969  0.6996
 7138TIP3    H221379   3.987   4.785   4.030  0.7771  0.9320  1.3810
 7139TIP3   OH221380   2.579   0.606   2.918  0.1155  0.3039  0.5098
 7139TIP3    H121381   2.484   0.624   2.915  0.1708  0.4970 -1.0967
 7139TIP3    H221382   2.618   0.693   2.928  0.1618  0.3968 -0.4101
 7140TIP3   OH221383   5.601   0.208   3.412 -0.7992  0.4651 -0.4509
 7140TIP3    H121384   5.652   0.132   3.440 -0.9649  0.7943  0.8118
 7140TIP3    H221385   5.524   0.171   3.369 -1.2264 -0.1203  0.7654
 7141TIP3   OH221386   4.311   0.025   5.250 -0.2524  0.0663  0.2132
 7141TIP3    H121387   4.346   0.007   5.163  1.5855  2.2048  0.4322
 7141TIP3    H221388   4.251   0.098   5.237 -0.5564 -0.1048  0.6379
 7142TIP3   OH221389   7.039   3.122   5.194 -0.1485  0.3526 -0.4717
 7142TIP3    H121390   7.045   3.059   5.121  2.0351  0.3900 -0.3990
 7142TIP3    H221391   7.048   3.207   5.153  0.1405  0.4236 -0.2672
 7143TIP3   OH221392   1.506   1.262   5.667 -0.6864  0.8495 -0.2069
 7143TIP3    H121393   1.437   1.231   5.727 -1.1483 -0.3483 -1.3006
 7143TIP3    H221394   1.550   1.332   5.715 -1.4168  0.3255  1.2939
 7144TIP3   OH221395   3.088   2.957   5.383  0.8462  0.1112  0.6037
 7144TIP3    H121396   3.023   2.893   5.413 -0.2345  1.8926  2.2832
 7144TIP3    H221397   3.090   3.023   5.452  2.2146  1.6984 -0.8718
 7145TIP3   OH221398   4.999   1.192   3.085  0.0956 -0.1404  0.5660
 7145TIP3    H121399   4.979   1.233   3.169  0.5890 -0.5215  0.8721
 7145TIP3    H221400   5.048   1.113   3.107 -0.5831 -0.7376 -0.0396
 7146TIP3   OH221401   5.307   6.336   4.548 -0.2706  0.1614  0.1431
 7146TIP3    H121402   5.259   6.386   4.614 -2.1858 -1.3410 -0.0189
 7146TIP3    H221403   5.335   6.257   4.593  1.1247  0.5022 -0.0789
 7147TIP3   OH221404   0.386   3.314   4.761  0.8818  0.4204  0.7031
 7147TIP3    H121405   0.350   3.303   4.673  1.4883  0.2921  0.4698
 7147TIP3    H221406   0.346   3.395   4.793  0.3760  0.2710  0.4527
 7148TIP3   OH221407   0.697   6.124   2.080 -0.0818  0.2191  0.5714
 7148TIP3    H121408   0.717   6.127   1.986 -0.2180  0.4682  0.5490
 7148TIP3    H221409   0.683   6.031   2.099  1.1884  0.0109  0.6102
 7149TIP3   OH221410   5.583   3.701   1.283 -0.0722  0.4550  0.3921
 7149TIP3    H121411   5.673   3.681   1.256 -0.6649 -2.6664  0.4579
 7149TIP3    H221412   5.592   3.775   1.343  2.3998  0.4520  0.1242
 7150TIP3   OH221413   0.156   2.257   2.608  0.7003  0.2158 -0.2423
 7150TIP3    H121414   0.065   2.286   2.607  0.5198  0.0199  2.6271
 7150TIP3    H221415   0.158   2.186   2.672  2.7532 -0.2414 -0.7382
 7151TIP3   OH221416   5.863   3.217   3.557 -0.8933 -0.2916  0.3373
 7151TIP3    H121417   5.907   3.278   3.617 -2.9803  0.5276  1.1155
 7151TIP3    H221418   5.774   3.249   3.551 -0.5874  0.3724 -4.1992
 7152TIP3   OH221419   5.127   1.080   2.409 -0.2020 -0.2460 -0.4626
 7152TIP3    H121420   5.162   1.152   2.461 -0.0434  0.5675 -1.6624
 7152TIP3    H221421   5.165   1.002   2.448  1.4391  0.4764 -0.5275
 7153TIP3   OH221422   2.950   3.657   5.335  0.0020 -0.2957 -0.0069
 7153TIP3    H121423   2.937   3.643   5.242 -0.7057 -0.8324  0.1705
 7153TIP3    H221424   3.045   3.663   5.345  0.0761 -0.0855 -0.7778
 7154TIP3   OH221425   0.084   1.922   4.935 -0.2881 -0.1880  0.1616
 7154TIP3    H121426   0.106   1.978   5.009 -1.2636 -0.7162  0.8660
 7154TIP3    H221427   0.085   1.981   4.859  0.8021  0.3360  0.5553
 7155TIP3   OH221428   4.306   2.688   4.398 -0.5452 -0.5322 -0.6948
 7155TIP3    H121429   4.358   2.766   4.414 -3.0970  1.4782 -1.4730
 7155TIP3    H221430   4.364   2.629   4.350  2.3397 -0.3844  2.2328
 7156TIP3   OH221431   6.681   3.296   3.949  0.7282  0.0031  0.3356
 7156TIP3    H121432   6.652   3.250   3.870  1.7521  2.6533 -1.7520
 7156TIP3    H221433   6.764   3.255   3.972  0.6616 -0.4885 -0.2603
 7157TIP3   OH221434   1.194   4.573   0.169  0.4986  0.1740  0.1581
 7157TIP3    H121435   1.224   4.608   0.086  1.7731 -0.3914  0.3642
 7157TIP3    H221436   1.169   4.650   0.220 -0.2134  0.5285 -0.6989
 7158TIP3   OH221437   0.804   5.060   2.383 -0.1985 -0.6657 -0.3583
 7158TIP3    H121438   0.849   4.985   2.345  3.5589  1.2279 -0.1083
 7158TIP3    H221439   0.756   5.099   2.310  1.6541 -0.6998 -1.6575
 7159TIP3   OH221440   6.867   3.026   1.540  0.4670 -0.0902  0.1383
 7159TIP3    H121441   6.908   3.021   1.454  1.7181 -1.4666  0.7707
 7159TIP3    H221442   6.832   2.938   1.556 -1.7320  0.7251  0.1427
 7160TIP3   OH221443   2.000   5.673   5.068 -0.5193 -0.4277  0.7548
 7160TIP3    H121444   2.035   5.644   5.152 -0.0341 -0.2774  0.6087
 7160TIP3    H221445   1.958   5.595   5.031  0.7119 -0.9413  0.3980
 7161TIP3   OH221446   5.153   0.318   2.901 -0.2685  0.3711  0.3502
 7161TIP3    H121447   5.167   0.223   2.902  1.0795  0.5191 -1.2130
 7161TIP3    H221448   5.083   0.331   2.837  0.5183  0.5203 -0.4961
 7162TIP3   OH221449   6.151   5.351   4.130  0.2122  0.6472  0.9162
 7162TIP3    H121450   6.184   5.438   4.106 -0.0316  0.6298  0.4968
 7162TIP3    H221451   6.075   5.369   4.185  0.3106  0.6993  1.0338
 7163TIP3   OH221452   5.606   2.085   0.348  0.2689 -0.1813 -0.0154
 7163TIP3    H121453   5.543   2.058   0.415  1.0300  0.4766  1.0157
 7163TIP3    H221454   5.592   2.180   0.339  3.1061  0.6439  2.5608
 7164TIP3   OH221455   2.014   6.215   1.110 -0.1887 -0.0354  0.2331
 7164TIP3    H121456   2.002   6.209   1.015 -0.5490  0.3824  0.2451
 7164TIP3    H221457   1.934   6.257   1.141  0.3996  0.8776  0.5831
 7165TIP3   OH221458   0.981   0.746   5.220  0.9629  0.1714 -0.3978
 7165TIP3    H121459   1.014   0.728   5.132 -0.7438 -0.3917 -0.9694
 7165TIP3    H221460   0.909   0.808   5.207 -0.7830 -1.5898  0.2907
 7166TIP3   OH221461   1.060   3.683   3.701  0.2388 -0.1294  0.3649
 7166TIP3    H121462   0.981   3.630   3.688 -0.6824  1.3043 -0.0798
 7166TIP3    H221463   1.042   3.735   3.779  0.6588  0.3687  0.1377
 7167TIP3   OH221464   5.555   5.766   4.944  0.3536 -0.3121  0.1913
 7167TIP3    H121465   5.563   5.826   5.018  1.0250  1.1006 -0.9839
 7167TIP3    H221466   5.461   5.755   4.933  0.2416 -0.4502  1.1657
 7168TIP3   OH221467   3.105   5.096   0.309 -0.2271 -0.3353 -0.0430
 7168TIP3    H121468   3.084   5.025   0.248  1.0891 -1.8428  1.1845
 7168TIP3    H221469   3.090   5.058   0.396  1.2534  0.6339  0.6641
 7169TIP3   OH221470   0.638   0.898   1.495 -0.2786  0.0583  0.0362
 7169TIP3    H121471   0.554   0.933   1.525 -0.3628 -0.7426  0.7635
 7169TIP3    H221472   0.667   0.841   1.566  0.8850  0.3249 -0.2113
 7170TIP3   OH221473   4.192   4.714   2.780  0.4155  0.2270 -0.5652
 7170TIP3    H121474   4.270   4.742   2.827 -0.1978  0.0287  0.6204
 7170TIP3    H221475   4.137   4.672   2.847  0.1353 -1.4009 -1.7528
 7171TIP3   OH221476   0.794   4.062   4.926 -0.8452  0.0962 -0.2449
 7171TIP3    H121477   0.805   3.970   4.947  0.8235  0.6080  1.4212
 7171TIP3    H221478   0.793   4.106   5.011 -1.3144  1.6432 -1.0111
 7172TIP3   OH221479   2.672   1.090   2.114  0.1179  0.5498  0.4578
 7172TIP3    H121480   2.652   1.165   2.058 -0.7631  0.0811  0.1222
 7172TIP3    H221481   2.587   1.064   2.150  0.2212 -0.9440 -0.2909
 7173TIP3   OH221482   6.771   5.338   5.720 -0.0697 -0.4968 -0.5214
 7173TIP3    H121483   6.746   5.429   5.709 -1.9223 -1.0041 -0.7193
 7173TIP3    H221484   6.770   5.302   5.631 -0.3671 -0.9658 -0.3304
 7174TIP3   OH221485   5.638   3.090   2.630 -0.2403  0.0894  0.6336
 7174TIP3    H121486   5.701   3.146   2.677 -0.7312  0.1116  1.2784
 7174TIP3    H221487   5.682   3.005   2.624  0.4019  0.4582 -0.1198
 7175TIP3   OH221488   1.221   0.911   0.303 -0.7725 -0.6125 -0.7041
 7175TIP3    H121489   1.133   0.945   0.318  0.2928  1.3704  1.7228
 7175TIP3    H221490   1.244   0.941   0.215 -1.6551  0.9182 -0.4397
 7176TIP3   OH221491   4.809   5.496   5.631  0.4752 -0.1556 -0.0835
 7176TIP3    H121492   4.786   5.551   5.705 -2.3057  1.6189 -2.0875
 7176TIP3    H221493   4.743   5.427   5.630  0.3657 -0.0533 -0.9770
 7177TIP3   OH221494   1.952   6.335   4.142  0.5007  0.4241  0.1715
 7177TIP3    H121495   1.916   6.248   4.161  0.9291  0.2038 -0.0129
 7177TIP3    H221496   1.878   6.385   4.108 -0.2549  0.7598  2.1554
 7178TIP3   OH221497   6.262   3.289   1.888  0.0613 -0.2894 -0.3060
 7178TIP3    H121498   6.197   3.313   1.953  0.4175 -0.3491  0.0726
 7178TIP3    H221499   6.259   3.361   1.824  0.1838  0.1057  0.1253
 7179TIP3   OH221500   0.516   2.835   1.051 -0.6694  0.1260  0.2519
 7179TIP3    H121501   0.484   2.887   1.124 -0.0892 -0.1688  0.7169
 7179TIP3    H221502   0.544   2.752   1.090  1.0235  0.5086 -0.0701
 7180TIP3   OH221503   5.456   1.788   4.019  0.6936 -0.3007 -0.4115
 7180TIP3    H121504   5.378   1.836   3.990  1.0137  0.1447 -0.5448
 7180TIP3    H221505   5.424   1.699   4.038 -0.0096  0.1122  0.3788
 7181TIP3   OH221506   2.975   5.418   1.780  0.3401  0.4493  0.3727
 7181TIP3    H121507   3.069   5.402   1.795  0.5560  1.8801  0.7062
 7181TIP3    H221508   2.973   5.484   1.711 -0.4247  0.6491  0.5830
 7182TIP3   OH221509   6.507   2.564   5.233 -0.4437 -0.5857 -0.3571
 7182TIP3    H121510   6.434   2.582   5.174 -0.6718 -0.5768 -0.0737
 7182TIP3    H221511   6.582   2.605   5.192 -0.4864 -1.0666 -0.9347
 7183TIP3   OH221512   2.152   4.340   1.352  0.7977  0.2954 -0.0182
 7183TIP3    H121513   2.067   4.382   1.364  0.2949 -0.0626 -2.0962
 7183TIP3    H221514   2.204   4.372   1.426 -0.2812  2.7342 -0.2042
 7184TIP3   OH221515   6.092   3.375   0.097 -0.3305 -0.4924  0.2700
 7184TIP3    H121516   6.045   3.352   0.017  0.0764 -0.7200  0.0944
 7184TIP3    H221517   6.026   3.418   0.152 -0.2690  1.1349 -0.8272
 7185TIP3   OH221518   3.841   1.580   4.843  0.2692  0.2025  0.2468
 7185TIP3    H121519   3.763   1.525   4.848  0.1261  0.4511  0.8494
 7185TIP3    H221520   3.815   1.661   4.887  1.0440  0.0764  0.9520
 7186TIP3   OH221521   4.614   6.293   4.567 -0.1206  0.4436  0.7222
 7186TIP3    H121522   4.702   6.257   4.571 -0.3324  0.0248  3.2579
 7186TIP3    H221523   4.563   6.228   4.519  0.8642  0.5414 -0.4906
 7187TIP3   OH221524   0.847   1.083   1.403 -0.0381  0.1602 -0.6383
 7187TIP3    H121525   0.812   1.157   1.453 -0.7665  0.5977 -1.7377
 7187TIP3    H221526   0.780   1.015   1.411  0.8853 -0.6309  0.8401
 7188TIP3   OH221527   0.019   4.081   1.440 -0.7767 -0.5511 -0.9334
 7188TIP3    H121528   0.086   4.104   1.375  0.6853  1.2814  1.1101
 7188TIP3    H221529   0.067   4.035   1.509 -1.9963 -0.9805 -0.3498
 7189TIP3   OH221530   5.170   1.923  -0.020  0.6713 -0.2406  0.4914
 7189TIP3    H121531   5.264   1.907  -0.025  0.9020 -0.4417  3.6793
 7189TIP3    H221532   5.140   1.868   0.052 -1.7423  0.5113  0.1449
 7190TIP3   OH221533   3.397   2.775   2.520 -0.4359 -0.0167  0.1013
 7190TIP3    H121534   3.392   2.712   2.448 -0.3997 -1.0917  1.0071
 7190TIP3    H221535   3.482   2.757   2.561  0.5704  2.0672 -0.8585
 7191TIP3   OH221536   2.665   4.303   0.029 -0.2735 -0.0729  0.1518
 7191TIP3    H121537   2.734   4.356   0.069  2.7549 -0.2535 -4.1304
 7191TIP3    H221538   2.693   4.213   0.046 -0.1227 -0.1590 -0.5327
 7192TIP3   OH221539   2.351   5.360   3.880 -0.0794 -0.0165  0.1250
 7192TIP3    H121540   2.374   5.301   3.951 -1.8802 -0.3631  0.4822
 7192TIP3    H221541   2.306   5.433   3.924 -1.4953 -0.3888 -0.6482
 7193TIP3   OH221542   2.066   2.384   4.433 -0.1353  0.1701  1.1787
 7193TIP3    H121543   2.158   2.370   4.455  0.1061 -1.3537 -0.5777
 7193TIP3    H221544   2.064   2.471   4.393  0.5160  0.2584  1.3223
 7194TIP3   OH221545   4.466   1.020   1.282  0.0720 -0.9537 -0.3585
 7194TIP3    H121546   4.398   0.996   1.220 -0.2251 -1.0648  0.0119
 7194TIP3    H221547   4.497   1.106   1.252 -1.9914  0.3130  0.9338
 7195TIP3   OH221548   5.683   1.708   1.169  0.5044 -0.3720 -0.2563
 7195TIP3    H121549   5.683   1.802   1.156  0.6428  0.0599  2.3243
 7195TIP3    H221550   5.728   1.695   1.253 -0.2554 -2.6503 -0.1120
 7196TIP3   OH221551   2.026   3.512   4.918  0.2219  0.1299 -0.2785
 7196TIP3    H121552   2.110   3.558   4.925  0.4483  0.2612 -2.7406
 7196TIP3    H221553   2.022   3.458   4.996  1.5068  1.8320  1.0668
 7197TIP3   OH221554   4.296   5.488   0.867  0.3397 -0.3742  0.4272
 7197TIP3    H121555   4.238   5.445   0.804  0.8158 -0.8777  0.3326
 7197TIP3    H221556   4.293   5.433   0.945 -0.0198  0.0909  0.7505
 7198TIP3   OH221557   3.673   2.360   1.327  0.1657 -0.1751 -0.0798
 7198TIP3    H121558   3.764   2.351   1.354  0.4853 -0.0979 -1.0964
 7198TIP3    H221559   3.677   2.408   1.244 -0.8406  0.3569  0.1611
 7199TIP3   OH221560   4.487   6.093   0.829 -0.1467 -0.1672  0.6533
 7199TIP3    H121561   4.528   6.159   0.885  0.9333 -0.4846  0.2572
 7199TIP3    H221562   4.492   6.012   0.879  0.5618 -0.3937  0.2298
 7200TIP3   OH221563   1.007   1.356   1.712  0.5009 -0.3590  0.0796
 7200TIP3    H121564   1.009   1.397   1.798 -0.1219 -1.3044  0.5609
 7200TIP3    H221565   1.017   1.262   1.730 -0.5463 -0.6592 -0.8052
 7201TIP3   OH221566   1.359   6.452   0.360  0.0344 -0.2825 -0.5361
 7201TIP3    H121567   1.403   6.536   0.347 -2.2419  1.0901  0.2143
 7201TIP3    H221568   1.375   6.431   0.452 -0.7070  0.1140 -0.3170
 7202TIP3   OH221569   4.271   0.282   3.542 -0.5715  0.5168  0.0565
 7202TIP3    H121570   4.264   0.212   3.477  1.5755 -0.4743  0.7872
 7202TIP3    H221571   4.307   0.356   3.494  0.4846 -0.0346 -0.0216
 7203TIP3   OH221572   1.580   4.134   2.833 -0.4670  0.4915 -0.5385
 7203TIP3    H121573   1.535   4.171   2.756  2.6925  1.5539 -2.0692
 7203TIP3    H221574   1.640   4.203   2.860 -1.1498 -0.0618  2.7015
 7204TIP3   OH221575   6.375   2.485   4.466  0.4707  0.7202  0.1519
 7204TIP3    H121576   6.286   2.485   4.500  0.2169  1.5761 -0.4720
 7204TIP3    H221577   6.385   2.401   4.421  0.6149 -0.1712  1.7921
 7205TIP3   OH221578   5.169   2.306   0.159  0.1865 -0.7392 -0.1429
 7205TIP3    H121579   5.212   2.360   0.092 -0.5232  0.1340  0.0830
 7205TIP3    H221580   5.186   2.353   0.241  1.3155 -1.9630  0.3558
 7206TIP3   OH221581   2.076   3.327   1.668  0.0780  0.1252  0.0396
 7206TIP3    H121582   2.002   3.270   1.690 -0.7285  0.7599 -0.9639
 7206TIP3    H221583   2.135   3.270   1.617 -0.6994  0.1336 -0.9140
 7207TIP3   OH221584   5.558   3.886   2.805  0.2939  0.4126  0.2895
 7207TIP3    H121585   5.597   3.947   2.742  0.7119  1.0568  1.1436
 7207TIP3    H221586   5.465   3.884   2.783  0.5370  0.0931 -0.7750
 7208TIP3   OH221587   3.277   1.840   4.819 -0.1650 -0.1634 -0.6926
 7208TIP3    H121588   3.341   1.849   4.889 -0.6096  1.5397 -0.4513
 7208TIP3    H221589   3.249   1.930   4.800  0.0228 -0.5495 -3.1369
 7209TIP3   OH221590   1.028   1.122   2.325  0.7653 -0.3944  0.1567
 7209TIP3    H121591   1.020   1.174   2.405 -0.0528 -0.4728  0.1332
 7209TIP3    H221592   0.990   1.177   2.257  0.8887 -0.5829 -0.0627
 7210TIP3   OH221593   2.718   3.555   1.613 -0.1229  0.5221 -0.2567
 7210TIP3    H121594   2.711   3.472   1.660  0.9428  0.3107 -0.4553
 7210TIP3    H221595   2.697   3.534   1.523  1.1285  0.2444 -0.5054
 7211TIP3   OH221596   6.227   4.636   3.369 -0.1386 -0.1144 -0.1850
 7211TIP3    H121597   6.296   4.618   3.432 -1.0220  0.1844  0.9179
 7211TIP3    H221598   6.214   4.731   3.375 -2.4141 -0.4455  1.6364
 7212TIP3   OH221599   1.631   3.978   2.550  0.5589  0.1881  0.6572
 7212TIP3    H121600   1.648   3.937   2.635  1.3148 -0.7942  0.0448
 7212TIP3    H221601   1.537   3.964   2.536  0.3351  0.7328  1.5094
 7213TIP3   OH221602   6.640   0.967   1.300  0.3907 -0.6526 -0.2442
 7213TIP3    H121603   6.592   0.896   1.258 -0.2658 -0.2836 -0.1256
 7213TIP3    H221604   6.591   0.987   1.379 -0.0377  0.6413 -0.8053
 7214TIP3   OH221605   5.165   4.359   1.816 -0.5157 -0.5233  0.1326
 7214TIP3    H121606   5.197   4.275   1.784 -1.2135 -1.7281  2.3759
 7214TIP3    H221607   5.112   4.393   1.743  0.5822 -1.5181 -1.1921
 7215TIP3   OH221608   1.159   2.265   4.390  0.6050 -0.3979 -0.5449
 7215TIP3    H121609   1.145   2.229   4.478 -0.1024 -0.2747 -0.6001
 7215TIP3    H221610   1.207   2.196   4.343 -0.9544 -1.4054 -0.7305
 7216TIP3   OH221611   0.448   2.882   1.770  0.0666  0.3676  0.1160
 7216TIP3    H121612   0.493   2.948   1.824 -1.4177  1.3525  0.2062
 7216TIP3    H221613   0.470   2.799   1.812  0.5243  0.9519  1.0871
 7217TIP3   OH221614   4.430   5.282   2.162 -0.1273  0.2282  0.1406
 7217TIP3    H121615   4.462   5.357   2.114  0.7819 -0.9785 -1.2165
 7217TIP3    H221616   4.506   5.225   2.172 -0.8933 -0.7379  0.7058
 7218TIP3   OH221617   6.950   0.996   5.045 -0.1814 -0.0875  0.2636
 7218TIP3    H121618   6.902   0.999   5.128  0.7819  1.1229  0.8173
 7218TIP3    H221619   7.041   0.978   5.071 -0.1066 -1.1697 -0.6648
 7219TIP3   OH221620   2.962   3.937   5.402 -0.2384  0.2651  0.2631
 7219TIP3    H121621   2.906   4.015   5.403 -0.4944  0.0824  0.1980
 7219TIP3    H221622   2.921   3.879   5.338 -0.2704 -0.0882  0.6001
 7220TIP3   OH221623   6.016   4.650   2.160  0.3763  0.2199  0.5002
 7220TIP3    H121624   5.999   4.561   2.192  0.6032  0.1973  0.5580
 7220TIP3    H221625   6.061   4.638   2.077 -1.3588  0.2632 -0.5060
 7221TIP3   OH221626   4.112   0.796   4.402  0.0749  0.6724  0.0704
 7221TIP3    H121627   4.104   0.701   4.412 -1.2447  0.9448  2.1004
 7221TIP3    H221628   4.162   0.824   4.479  0.5310  1.6369 -0.5572
 7222TIP3   OH221629   5.068   2.182   1.178  0.1356  0.6060 -0.0776
 7222TIP3    H121630   5.050   2.152   1.267  0.4253 -1.0025 -0.5234
 7222TIP3    H221631   5.053   2.277   1.180  1.5020  0.8189  2.0201
 7223TIP3   OH221632   1.286   1.391   3.086  0.3862 -0.2103 -0.0813
 7223TIP3    H121633   1.366   1.433   3.119  0.5797  0.6220 -1.4907
 7223TIP3    H221634   1.315   1.304   3.057  0.6348 -0.1799  0.0723
 7224TIP3   OH221635   1.019   2.644   1.153  0.7162 -0.2278 -0.0226
 7224TIP3    H121636   0.964   2.722   1.142 -0.6281 -1.0102  0.9421
 7224TIP3    H221637   1.062   2.634   1.068 -1.6615 -0.3509 -1.2822
 7225TIP3   OH221638   3.285   4.556   2.921  0.3860 -0.6051  0.0425
 7225TIP3    H121639   3.339   4.592   2.991 -0.2473  0.6921 -0.1140
 7225TIP3    H221640   3.212   4.513   2.966  0.9071 -1.3361  0.2137
 7226TIP3   OH221641   1.927   2.047   3.913  0.1392  0.2134 -0.8199
 7226TIP3    H121642   1.918   1.993   3.991 -0.3700 -0.7816 -1.5454
 7226TIP3    H221643   1.966   2.129   3.944  2.0046 -0.9854  0.1299
 7227TIP3   OH221644   5.391   3.235   3.370  0.1950 -0.0053  0.0007
 7227TIP3    H121645   5.322   3.194   3.317  0.2395 -0.3419  0.1982
 7227TIP3    H221646   5.372   3.329   3.366  0.0880 -0.0435 -0.4554
 7228TIP3   OH221647   6.217   1.979   5.517  0.5377 -0.0668 -0.1567
 7228TIP3    H121648   6.172   1.916   5.462  2.3335 -0.5367 -1.1816
 7228TIP3    H221649   6.155   2.000   5.587 -0.7948 -1.5091 -0.8693
 7229TIP3   OH221650   0.158   2.729   4.963  0.4658 -0.4213  0.4491
 7229TIP3    H121651   0.128   2.799   4.905 -1.4951 -1.5400  0.0340
 7229TIP3    H221652   0.153   2.767   5.051  0.2305  0.2123  0.1666
 7230TIP3   OH221653   4.362   6.197   2.777 -0.0166 -0.0741 -0.6841
 7230TIP3    H121654   4.316   6.161   2.702 -0.8186  0.7100 -0.5859
 7230TIP3    H221655   4.296   6.248   2.824  0.6785  0.1522  0.0801
 7231TIP3   OH221656   1.760   0.008   0.452  0.4972 -0.2941 -0.1387
 7231TIP3    H121657   1.756  -0.044   0.532  1.4322 -0.8032 -0.4121
 7231TIP3    H221658   1.843   0.056   0.458 -1.2735  2.9282  1.1467
 7232TIP3   OH221659   4.345   3.763   5.113  0.1206  0.8997  0.1501
 7232TIP3    H121660   4.412   3.700   5.085  0.5695  1.5948 -0.3784
 7232TIP3    H221661   4.266   3.736   5.067  0.0335  0.0675  0.7806
 7233TIP3   OH221662   5.763   3.045   1.762  0.5237 -0.0646  0.2294
 7233TIP3    H121663   5.776   3.120   1.821  0.1005 -0.9189  1.4436
 7233TIP3    H221664   5.826   3.059   1.692 -0.5593  2.2178 -0.3972
 7234TIP3   OH221665   1.898   1.490   0.693 -0.0587  0.3996  0.2439
 7234TIP3    H121666   1.843   1.415   0.717 -1.2352  1.2330  0.2309
 7234TIP3    H221667   1.913   1.537   0.775 -2.3268  2.0856 -0.2022
 7235TIP3   OH221668   3.243   6.429   2.865  0.2382 -0.0223 -0.4846
 7235TIP3    H121669   3.308   6.422   2.934 -0.0247  0.6792 -0.1557
 7235TIP3    H221670   3.288   6.472   2.792 -0.5530  3.1910  0.7500
 7236TIP3   OH221671   0.485   4.060   3.702 -0.1371 -0.3128  0.4471
 7236TIP3    H121672   0.493   3.983   3.646  2.3339  0.8549 -0.9987
 7236TIP3    H221673   0.534   4.038   3.781 -0.5099 -0.6592  0.5830
 7237TIP3   OH221674   0.233   6.574   4.979 -0.2657  0.2347  0.4135
 7237TIP3    H121675   0.314   6.544   5.020 -1.6182 -2.9872  1.0951
 7237TIP3    H221676   0.178   6.603   5.052 -0.5914  0.0724  0.2357
 7238TIP3   OH221677   5.614   3.073   4.685  0.1209 -0.6853  0.0305
 7238TIP3    H121678   5.589   3.159   4.652 -1.4252 -1.2018 -0.2728
 7238TIP3    H221679   5.663   3.033   4.613  1.3349  0.1207  0.3811
 7239TIP3   OH221680   5.510   0.235   5.157 -0.0551  0.4520  0.2480
 7239TIP3    H121681   5.437   0.278   5.113  0.8561  1.3455 -0.4320
 7239TIP3    H221682   5.562   0.307   5.192 -0.0685 -0.2092  1.6872
 7240TIP3   OH221683   0.047   1.992   4.342  0.1143  0.5290  0.5385
 7240TIP3    H121684   0.020   1.960   4.428 -0.1636  2.1736  1.1003
 7240TIP3    H221685   0.045   1.915   4.286  1.5713 -0.8646  2.2842
 7241TIP3   OH221686   2.867   5.954   0.748  0.6364 -0.0049  0.1554
 7241TIP3    H121687   2.803   5.960   0.820  0.6634 -0.4939  0.2260
 7241TIP3    H221688   2.822   5.992   0.673 -0.4061 -1.8651 -0.2329
 7242TIP3   OH221689   4.662   1.394   2.701 -0.4994 -1.1385 -0.0542
 7242TIP3    H121690   4.623   1.394   2.614  0.8425 -0.6022 -0.6816
 7242TIP3    H221691   4.736   1.335   2.695  1.9169  1.7122 -0.4323
 7243TIP3   OH221692   5.105   3.700   1.144 -0.2807 -0.3858  0.1984
 7243TIP3    H121693   5.072   3.634   1.083 -0.5833  1.2149 -1.4682
 7243TIP3    H221694   5.160   3.652   1.205  0.2437 -2.0373 -1.5065
 7244TIP3   OH221695   0.657   3.354   0.553 -0.1309 -0.0333  0.2893
 7244TIP3    H121696   0.636   3.273   0.505 -0.6018 -0.5427  1.3191
 7244TIP3    H221697   0.582   3.367   0.611  0.6824  0.2294  1.3109
 7245TIP3   OH221698   4.563   5.717   3.294  0.5381 -0.1993 -0.2313
 7245TIP3    H121699   4.544   5.802   3.253  1.6375  0.8339  1.2819
 7245TIP3    H221700   4.477   5.678   3.309 -0.0264  0.9867 -0.2712
 7246TIP3   OH221701   5.878   3.914   3.561 -0.1526  0.2539  0.0921
 7246TIP3    H121702   5.961   3.903   3.514 -0.5532 -1.7199 -0.2555
 7246TIP3    H221703   5.830   3.833   3.543 -2.1785  1.3514  0.2602
 7247TIP3   OH221704   3.549   0.221   3.225 -0.1986 -0.6804  0.1654
 7247TIP3    H121705   3.609   0.211   3.151 -0.6500 -1.6695 -0.0786
 7247TIP3    H221706   3.594   0.283   3.283  0.0982  0.2380 -0.9889
 7248TIP3   OH221707   5.176   5.664   1.248  0.1388  0.1056 -0.3780
 7248TIP3    H121708   5.106   5.659   1.184  0.5497 -1.5280 -0.7520
 7248TIP3    H221709   5.156   5.742   1.300 -1.3707  0.2506 -1.1253
 7249TIP3   OH221710   2.498   1.593   0.021  0.0370 -0.0190 -0.3638
 7249TIP3    H121711   2.567   1.566   0.081 -0.2834 -1.5014 -0.6313
 7249TIP3    H221712   2.477   1.682   0.048  1.9647  0.4375 -0.2130
 7250TIP3   OH221713   1.136   1.093   2.984  0.3488 -0.1201  0.4558
 7250TIP3    H121714   1.110   1.046   3.064 -2.6721 -3.4839 -2.1530
 7250TIP3    H221715   1.054   1.112   2.940  1.9218 -0.1848 -2.7479
 7251TIP3   OH221716   1.167   3.216   3.536  0.0843  0.2717 -0.3070
 7251TIP3    H121717   1.169   3.282   3.605 -1.0153 -1.8710  1.9427
 7251TIP3    H221718   1.253   3.174   3.540  0.2315  0.5212 -0.6989
 7252TIP3   OH221719   2.336   5.912   1.456 -0.3417  0.4419 -0.2081
 7252TIP3    H121720   2.406   5.863   1.500 -0.9291  1.7788  2.4612
 7252TIP3    H221721   2.256   5.884   1.501 -1.1357  1.1858 -1.1237
 7253TIP3   OH221722   4.227   1.467   1.536  0.1647 -0.8790  0.2309
 7253TIP3    H121723   4.156   1.526   1.510  1.0080 -0.0758 -0.2632
 7253TIP3    H221724   4.187   1.410   1.602 -0.4837  0.6754  1.2347
 7254TIP3   OH221725   6.163   1.683   3.287 -0.5676 -0.1363  0.3349
 7254TIP3    H121726   6.071   1.684   3.259 -0.0782 -0.5893 -1.3942
 7254TIP3    H221727   6.161   1.637   3.371 -1.7204 -1.8277 -0.5620
 7255TIP3   OH221728   6.028   0.292   1.015 -0.4676 -0.1261  0.2990
 7255TIP3    H121729   5.961   0.312   0.949 -1.2175 -0.0714  1.0587
 7255TIP3    H221730   6.096   0.358   1.001  1.0520 -2.0989 -2.6170
 7256TIP3   OH221731   0.927   2.016   4.855 -0.1343 -0.0355  0.3299
 7256TIP3    H121732   0.877   2.068   4.792  1.3914  0.7890 -0.2696
 7256TIP3    H221733   0.986   2.079   4.896  0.8988 -1.0697  0.4919
 7257TIP3   OH221734   4.055   4.687   3.215 -0.3480  0.4108 -0.3945
 7257TIP3    H121735   4.126   4.737   3.256  0.6851 -0.1673 -1.4125
 7257TIP3    H221736   3.975   4.729   3.245  0.4418  1.3589  0.4360
 7258TIP3   OH221737   5.013   1.745   2.411  0.3742 -0.5550  0.3170
 7258TIP3    H121738   4.967   1.697   2.480  0.3907  0.3744  1.0071
 7258TIP3    H221739   4.994   1.837   2.431  1.7615 -0.2011  0.0618
 7259TIP3   OH221740   6.183   1.366   0.783  0.8643 -0.2268  0.0336
 7259TIP3    H121741   6.161   1.450   0.823 -1.0443 -1.0612  0.8579
 7259TIP3    H221742   6.104   1.313   0.795  2.4263 -2.5377  0.5921
 7260TIP3   OH221743   4.205   1.448   5.369  0.1975  0.0970  0.1776
 7260TIP3    H121744   4.150   1.389   5.421  1.9871 -0.9214  1.0185
 7260TIP3    H221745   4.248   1.504   5.434  3.1448 -1.7750 -0.0047
 7261TIP3   OH221746   6.212   0.282   4.150  0.4009  0.3506  0.8522
 7261TIP3    H121747   6.280   0.216   4.134 -0.3610 -0.1433 -0.4453
 7261TIP3    H221748   6.187   0.312   4.063  0.7452  2.4032  1.4137
 7262TIP3   OH221749   3.456   0.658   3.800  0.1271  0.7613 -0.0715
 7262TIP3    H121750   3.520   0.633   3.866  0.1915  1.3991  0.1169
 7262TIP3    H221751   3.502   0.722   3.745  0.6877 -1.0726 -1.8556
 7263TIP3   OH221752   0.481   4.262   4.078  0.2286 -0.2016 -0.2843
 7263TIP3    H121753   0.405   4.204   4.087  2.0029 -2.5047  0.8460
 7263TIP3    H221754   0.492   4.300   4.165  0.6134 -0.2100 -0.3269
 7264TIP3   OH221755   4.131   0.957   0.898  0.5581  0.4192  0.1844
 7264TIP3    H121756   4.121   0.888   0.964  1.2677  0.6659  0.5727
 7264TIP3    H221757   4.074   1.027   0.928  1.3320  0.7726  0.9019
 7265TIP3   OH221758   5.484   3.577   5.038 -0.3528 -0.1790  0.4707
 7265TIP3    H121759   5.408   3.525   5.011 -0.7916  0.5229  0.3168
 7265TIP3    H221760   5.446   3.653   5.081  0.2982 -0.3053  1.2973
 7266TIP3   OH221761   5.476   4.926   1.697  0.3988 -0.4329 -0.0393
 7266TIP3    H121762   5.512   5.015   1.691  0.7261 -0.5560  0.0445
 7266TIP3    H221763   5.546   4.875   1.738  0.6503 -0.9721 -1.1195
 7267TIP3   OH221764   5.942   1.171   0.850 -0.3902  0.0450  0.6619
 7267TIP3    H121765   5.923   1.238   0.915  0.9996  0.1920  0.9646
 7267TIP3    H221766   5.922   1.213   0.766 -1.9932 -0.0757  0.9595
 7268TIP3   OH221767   6.261   5.182   2.204 -0.1222  0.1093 -0.1317
 7268TIP3    H121768   6.211   5.238   2.262 -0.2185 -0.9503  0.8399
 7268TIP3    H221769   6.342   5.163   2.252 -0.5966 -1.5229  0.1095
 7269TIP3   OH221770   0.741   5.752   1.809 -0.2392 -0.1951 -0.0056
 7269TIP3    H121771   0.659   5.706   1.827 -0.6591 -0.0333 -1.3766
 7269TIP3    H221772   0.797   5.729   1.882 -1.0182 -1.5071  0.2281
 7270TIP3   OH221773   0.710   0.572   3.318  0.4085  1.0392  0.2874
 7270TIP3    H121774   0.778   0.623   3.274  1.1636  0.9400  1.3134
 7270TIP3    H221775   0.692   0.620   3.399 -1.4181  1.5675 -0.3726
 7271TIP3   OH221776   2.797   5.780   3.906  0.1485  0.2788 -0.2102
 7271TIP3    H121777   2.841   5.767   3.990 -0.9821  2.2286  0.7560
 7271TIP3    H221778   2.733   5.850   3.923 -0.9498 -0.1101 -2.3981
 7272TIP3   OH221779   3.537   2.946   2.906 -0.4396  0.4480  0.0535
 7272TIP3    H121780   3.445   2.937   2.931 -0.1477 -1.7657  0.5487
 7272TIP3    H221781   3.563   3.031   2.941 -2.0109  0.6270  0.8654
 7273TIP3   OH221782   1.315   1.826   5.059  0.3103 -0.2796  0.1405
 7273TIP3    H121783   1.373   1.783   5.123 -0.0430  0.9590  1.3346
 7273TIP3    H221784   1.235   1.843   5.108  0.6011  2.1659 -0.1065
 7274TIP3   OH221785   2.878   5.348   4.116  0.2833  0.0676 -0.2206
 7274TIP3    H121786   2.880   5.255   4.137  1.3344  0.2426  0.5153
 7274TIP3    H221787   2.894   5.392   4.199 -0.8902  0.9390 -0.4282
 7275TIP3   OH221788   5.183   5.472   2.843  0.7879 -0.3188  0.1829
 7275TIP3    H121789   5.255   5.426   2.886  1.0992 -1.8675 -1.8504
 7275TIP3    H221790   5.104   5.438   2.885  1.0650 -2.0515 -0.6378
 7276TIP3   OH221791   6.479   0.760   5.537 -0.3624  0.1561  0.4096
 7276TIP3    H121792   6.451   0.814   5.464  2.6231  0.8333 -0.3527
 7276TIP3    H221793   6.419   0.783   5.608 -0.9012  2.3793 -0.6937
 7277TIP3   OH221794   5.693   1.522   3.878 -0.1881 -0.0782  0.1917
 7277TIP3    H121795   5.646   1.457   3.825 -0.9356 -1.7849  2.7505
 7277TIP3    H221796   5.650   1.605   3.856  0.2035 -0.4800 -2.5167
 7278TIP3   OH221797   2.541   2.864   4.485 -0.6308 -0.5198 -0.4233
 7278TIP3    H121798   2.477   2.877   4.554 -0.8482 -0.1520 -0.6889
 7278TIP3    H221799   2.625   2.887   4.524 -0.8661  0.5836 -0.5468
 7279TIP3   OH221800   1.423   2.664   2.406 -0.1919  0.3357  0.7499
 7279TIP3    H121801   1.355   2.731   2.397  2.0273  2.5678 -0.7051
 7279TIP3    H221802   1.440   2.660   2.500  0.8800  3.3427  0.8000
 7280TIP3   OH221803   6.252   1.262   0.106  0.4184  0.2270 -0.2468
 7280TIP3    H121804   6.327   1.264   0.048  1.2967  0.5386  0.8565
 7280TIP3    H221805   6.289   1.242   0.192 -1.0547 -2.5778 -0.1335
 7281TIP3   OH221806   2.888   2.748   2.130 -0.0861 -0.1488  0.5394
 7281TIP3    H121807   2.850   2.832   2.155 -0.1922  1.0365 -2.9477
 7281TIP3    H221808   2.852   2.730   2.043  1.9478 -2.4995  0.0514
 7282TIP3   OH221809   5.656   0.753   3.032  0.2235  0.3243  0.0353
 7282TIP3    H121810   5.670   0.670   2.987  1.2466  0.6976 -0.3625
 7282TIP3    H221811   5.692   0.740   3.119  0.5275  0.3958 -0.0785
 7283TIP3   OH221812   4.868   1.010   2.431 -0.5004 -0.3916  0.0031
 7283TIP3    H121813   4.956   1.029   2.400 -0.3914 -1.3931 -0.3256
 7283TIP3    H221814   4.811   1.063   2.374 -0.1631 -0.3311 -0.2808
 7284TIP3   OH221815   1.741   4.531   3.340  0.6181  0.0663  0.0343
 7284TIP3    H121816   1.712   4.616   3.309  1.2261 -0.4350 -2.0558
 7284TIP3    H221817   1.664   4.475   3.333  0.7434 -0.0357 -0.5900
 7285TIP3   OH221818   1.340   1.430   5.035 -0.1078 -0.2842 -0.0345
 7285TIP3    H121819   1.399   1.449   4.962  1.3252 -0.6184  1.0048
 7285TIP3    H221820   1.397   1.401   5.106 -1.5720 -1.0844  0.8665
 7286TIP3   OH221821   0.488   6.261   5.642  0.1544 -0.2824  0.2540
 7286TIP3    H121822   0.437   6.225   5.569 -0.1475 -0.2632  0.4564
 7286TIP3    H221823   0.441   6.341   5.667  0.7509  0.1910 -0.1113
 7287TIP3   OH221824   0.355   6.226   0.752 -0.6561 -0.5935  0.4800
 7287TIP3    H121825   0.291   6.169   0.794 -2.0005  0.8327  0.4571
 7287TIP3    H221826   0.342   6.311   0.793  1.0719 -0.1956  0.2872
 7288TIP3   OH221827   3.708   0.267   5.209 -0.2456 -0.0958  0.0427
 7288TIP3    H121828   3.756   0.325   5.150 -0.9266  1.1898  0.6916
 7288TIP3    H221829   3.755   0.273   5.292  0.1013 -1.0701 -0.0724
 7289TIP3   OH221830   2.015   0.563   5.062  0.1082  0.0809 -0.1304
 7289TIP3    H121831   2.037   0.624   5.132  0.2795 -2.5432  2.2675
 7289TIP3    H221832   2.062   0.596   4.986  0.9345  2.3793  1.2712
 7290TIP3   OH221833   0.667   4.571   4.276 -0.5134 -0.1738  0.2895
 7290TIP3    H121834   0.710   4.626   4.342 -0.2413  1.0641 -0.8668
 7290TIP3    H221835   0.598   4.626   4.241 -1.9832 -1.5463  0.9268
 7291TIP3   OH221836   6.261   6.356   5.427  0.4238 -0.2737  0.3208
 7291TIP3    H121837   6.279   6.357   5.521  0.5748 -1.3265  0.3160
 7291TIP3    H221838   6.209   6.277   5.413 -0.1097  0.1898 -0.3952
 7292TIP3   OH221839   5.629   2.641   3.198 -0.2466 -0.6722 -0.4494
 7292TIP3    H121840   5.681   2.562   3.192  2.4969  0.7747  1.8565
 7292TIP3    H221841   5.620   2.657   3.292 -2.3642  0.7584 -0.8157
 7293TIP3   OH221842   2.999   5.601   1.439  0.2025 -0.3081 -0.0186
 7293TIP3    H121843   2.923   5.595   1.497  0.4954  0.1824  0.4244
 7293TIP3    H221844   2.963   5.636   1.357 -0.0319  0.0399  0.2278
 7294TIP3   OH221845   3.775   3.884   3.053  0.1374 -0.0102 -0.0248
 7294TIP3    H121846   3.732   3.966   3.028  1.6256  0.7346 -0.3037
 7294TIP3    H221847   3.820   3.904   3.135 -1.3230 -1.2420  1.1333
 7295TIP3   OH221848   4.920   4.983   3.120  0.0657 -0.1754  0.2129
 7295TIP3    H121849   4.985   4.963   3.187  0.8019 -0.3547 -0.5518
 7295TIP3    H221850   4.949   4.936   3.042  1.1058  2.6748 -1.2493
 7296TIP3   OH221851   7.165   5.062   5.600  0.4449 -0.0373 -0.1513
 7296TIP3    H121852   7.191   5.128   5.535  2.2060  2.2395  2.6451
 7296TIP3    H221853   7.073   5.080   5.617  0.0127 -0.5278 -1.7670
 7297TIP3   OH221854   0.159   4.387   1.001 -0.6282  0.2701  0.6145
 7297TIP3    H121855   0.221   4.378   1.072 -0.8942 -1.4505  0.6760
 7297TIP3    H221856   0.081   4.339   1.031 -0.8879 -0.1363 -0.6449
 7298TIP3   OH221857   2.540   2.350   2.141 -0.2292 -0.0107  0.1181
 7298TIP3    H121858   2.604   2.371   2.209  0.1785  0.9422 -0.5368
 7298TIP3    H221859   2.565   2.405   2.067  1.2181 -3.1587 -1.9322
 7299TIP3   OH221860   4.849   2.354   4.062 -0.1326  0.3331 -0.0760
 7299TIP3    H121861   4.866   2.381   4.152 -0.3891  1.2774 -0.2971
 7299TIP3    H221862   4.899   2.273   4.051 -0.2602  0.1073  0.9670
 7300TIP3   OH221863   6.047   0.865   1.021  0.0037  0.3789 -0.1279
 7300TIP3    H121864   6.034   0.955   0.993 -0.0680  0.2094 -0.6412
 7300TIP3    H221865   6.104   0.827   0.955 -1.0391 -0.3346 -0.6428
 7301TIP3   OH221866   2.033   4.970   4.291 -0.0056  0.7584 -0.5398
 7301TIP3    H121867   2.043   4.876   4.304 -1.8639  0.4754 -0.8542
 7301TIP3    H221868   2.101   4.993   4.227  1.6568  0.0185  0.8710
 7302TIP3   OH221869   5.178   6.681   5.471  0.0580 -0.2496  0.4788
 7302TIP3    H121870   5.254   6.735   5.446  0.4154 -0.7573  0.4552
 7302TIP3    H221871   5.209   6.628   5.544  0.0185 -1.1360 -0.1309
 7303TIP3   OH221872   2.204   5.593   2.792 -0.7155 -0.6414  0.0602
 7303TIP3    H121873   2.240   5.505   2.779  1.9075  0.3444  0.1306
 7303TIP3    H221874   2.245   5.625   2.873  0.2981  1.4929 -1.1991
 7304TIP3   OH221875   2.315   1.090   3.314  0.2495 -0.3365 -0.3998
 7304TIP3    H121876   2.408   1.115   3.319  0.6795 -1.9723  0.4983
 7304TIP3    H221877   2.280   1.115   3.400 -0.0028 -0.2302 -0.5358
 7305TIP3   OH221878   1.455   1.296   4.173  0.3808  0.4864 -0.1422
 7305TIP3    H121879   1.521   1.228   4.187 -0.3425 -0.1950  0.0043
 7305TIP3    H221880   1.417   1.310   4.260  1.2567  1.8551  0.0472
 7306TIP3   OH221881   5.363   0.083   3.567  0.1138  0.3212 -0.3717
 7306TIP3    H121882   5.379   0.113   3.478  0.2543 -0.4247 -0.6043
 7306TIP3    H221883   5.438   0.027   3.588 -0.0763  0.2335  0.0961
 7307TIP3   OH221884   6.277   1.519   4.088  0.1351 -0.1635 -0.3912
 7307TIP3    H121885   6.370   1.495   4.085  0.1305 -0.2262 -0.0013
 7307TIP3    H221886   6.272   1.601   4.038  0.0949 -1.1341 -2.0525
 7308TIP3   OH221887   7.034   5.325   5.771 -0.0708 -0.4102 -0.2404
 7308TIP3    H121888   7.058   5.408   5.812 -1.2927  0.0852 -0.4995
 7308TIP3    H221889   6.941   5.334   5.749 -0.0966 -1.6485 -0.7516
 7309TIP3   OH221890   0.230   5.976   3.060  0.3111 -0.1097 -0.0539
 7309TIP3    H121891   0.253   6.016   2.976 -2.4589  2.2352  0.1463
 7309TIP3    H221892   0.300   6.003   3.119  2.3232 -1.8278 -1.5354
 7310TIP3   OH221893   2.454   6.282   3.051  0.1859 -0.0973 -0.4130
 7310TIP3    H121894   2.363   6.291   3.021 -0.2067  2.5365  1.1978
 7310TIP3    H221895   2.448   6.222   3.125 -0.7674  1.9406  1.2695
 7311TIP3   OH221896   1.096   2.651   1.961 -0.1797 -0.3178 -0.2075
 7311TIP3    H121897   1.179   2.700   1.968 -0.7206  0.7435 -0.9950
 7311TIP3    H221898   1.042   2.686   2.032 -1.9429  3.0909 -2.9010
 7312TIP3   OH221899   2.377   3.928   2.506 -0.1252 -0.4575 -0.5385
 7312TIP3    H121900   2.430   3.952   2.431 -0.2193 -1.5365 -0.9680
 7312TIP3    H221901   2.288   3.919   2.471 -0.0352 -1.7701 -0.5028
 7313TIP3   OH221902   0.751   4.212   1.110 -0.1119  0.5881  0.2934
 7313TIP3    H121903   0.806   4.203   1.187  1.5521  2.5529 -0.5587
 7313TIP3    H221904   0.696   4.134   1.110  1.0173 -0.2884  2.5067
 7314TIP3   OH221905   2.698   0.738   2.161  0.2869 -0.1682 -0.2840
 7314TIP3    H121906   2.687   0.797   2.236 -0.4775 -1.1749  0.4230
 7314TIP3    H221907   2.645   0.661   2.183  0.3692 -0.6569 -1.6828
 7315TIP3   OH221908   4.535   6.641   3.892  0.4576  0.1064 -0.6911
 7315TIP3    H121909   4.542   6.646   3.988  2.3112  2.3797 -0.8748
 7315TIP3    H221910   4.441   6.642   3.875  0.0991 -0.2478  1.1015
 7316TIP3   OH221911   3.734   3.425   2.378  0.1791  0.9966  0.3666
 7316TIP3    H121912   3.695   3.484   2.442  0.7886 -0.0716  1.7706
 7316TIP3    H221913   3.662   3.370   2.349  0.1542  0.5994  1.1580
 7317TIP3   OH221914   6.660   0.665   0.772 -0.3206 -0.0834 -0.3478
 7317TIP3    H121915   6.677   0.759   0.764  0.4254 -0.2335 -0.6271
 7317TIP3    H221916   6.648   0.635   0.682 -3.7197  0.2715 -0.1266
 7318TIP3   OH221917   3.902   5.424   3.494 -0.2730 -0.5877 -0.4923
 7318TIP3    H121918   3.944   5.375   3.424  0.3353  1.0546 -1.3252
 7318TIP3    H221919   3.808   5.410   3.480 -0.1357 -0.7567 -1.2880
 7319TIP3   OH221920   4.308   6.054   1.465 -0.3851 -0.4493  0.2138
 7319TIP3    H121921   4.244   6.116   1.431 -0.9296 -0.8853  0.4377
 7319TIP3    H221922   4.274   6.028   1.550  0.9500  0.6100  1.1109
 7320TIP3   OH221923   6.863   5.348   1.319 -0.3209  0.6133 -0.1066
 7320TIP3    H121924   6.827   5.342   1.408  0.1891  1.3748  0.1612
 7320TIP3    H221925   6.809   5.414   1.276  0.3552  1.3051  0.0997
 7321TIP3   OH221926   5.769   0.954   0.826  0.3076  0.5079  0.4215
 7321TIP3    H121927   5.854   0.996   0.842  0.8156  0.5781 -2.0573
 7321TIP3    H221928   5.704   1.020   0.851  1.0071  1.0187  0.9268
 7322TIP3   OH221929   1.139   5.969   1.489 -0.0999  0.0566  0.4104
 7322TIP3    H121930   1.094   5.910   1.428 -1.3375 -0.3077  1.6280
 7322TIP3    H221931   1.121   6.056   1.455 -0.5875 -0.1527  0.1250
 7323TIP3   OH221932   5.265   4.574   3.160  0.0940 -0.4109  0.6214
 7323TIP3    H121933   5.300   4.657   3.128  1.0079 -1.3520 -0.9114
 7323TIP3    H221934   5.277   4.578   3.255  1.2321  0.7137  0.4453
 7324TIP3   OH221935   4.339   4.676   0.466  0.1153 -0.5584 -0.0172
 7324TIP3    H121936   4.274   4.747   0.464  1.4364  0.6715 -0.6209
 7324TIP3    H221937   4.411   4.711   0.517  0.6430 -1.6197 -0.0234
 7325TIP3   OH221938   4.277   6.536   3.479  0.0978 -0.0826  0.0695
 7325TIP3    H121939   4.365   6.570   3.491  0.2968 -0.5993  0.0693
 7325TIP3    H221940   4.220   6.607   3.510  0.4959  0.4319 -0.3656
 7326TIP3   OH221941   1.929   5.611   0.513 -0.3842 -0.2566 -0.0713
 7326TIP3    H121942   1.891   5.553   0.446  0.5147 -0.0731 -0.7605
 7326TIP3    H221943   1.920   5.562   0.595 -1.7452 -0.3734 -0.2606
 7327TIP3   OH221944   0.869   5.646   2.021  0.2858  0.1421 -0.4424
 7327TIP3    H121945   0.795   5.609   2.069 -0.1671  1.2984 -0.1934
 7327TIP3    H221946   0.931   5.672   2.088  0.0266  0.9841 -0.5114
 7328TIP3   OH221947   1.160   0.595   0.269 -0.0166  0.3528  0.3318
 7328TIP3    H121948   1.115   0.645   0.202 -0.1304  2.3450  1.8225
 7328TIP3    H221949   1.207   0.526   0.221 -1.7575  0.4168 -1.5517
 7329TIP3   OH221950   0.882   5.842   0.986 -1.0929  0.6836  0.0977
 7329TIP3    H121951   0.874   5.754   1.021 -1.2533  1.4433  2.1151
 7329TIP3    H221952   0.895   5.830   0.892 -0.3251 -1.4924  0.4384
 7330TIP3   OH221953   6.294   3.364   5.307  0.1290  0.3145  0.4669
 7330TIP3    H121954   6.361   3.303   5.275  0.0896  1.0792 -1.2110
 7330TIP3    H221955   6.247   3.390   5.228 -1.4599  0.6265  1.4863
 7331TIP3   OH221956   0.377   5.660   2.668 -0.4208  0.3272 -0.0849
 7331TIP3    H121957   0.374   5.641   2.761  0.0705 -0.2568 -0.1824
 7331TIP3    H221958   0.315   5.732   2.656  1.7158  2.5792  1.2082
 7332TIP3   OH221959   2.371   2.324   0.726 -0.4594  0.4860  0.3611
 7332TIP3    H121960   2.320   2.295   0.801 -1.5200  0.6729 -0.2764
 7332TIP3    H221961   2.435   2.255   0.712 -1.7095 -0.6395  0.0525
 7333TIP3   OH221962   3.932   0.514   1.620 -0.0931  0.4825  0.7412
 7333TIP3    H121963   3.963   0.445   1.679  0.4429  1.2437  1.3796
 7333TIP3    H221964   3.913   0.468   1.538  0.4626 -0.3896  1.0770
 7334TIP3   OH221965   2.454   5.086   3.724  0.7180 -0.2982  0.1992
 7334TIP3    H121966   2.479   5.179   3.726 -0.0561 -0.0822  0.6689
 7334TIP3    H221967   2.485   5.051   3.807 -0.2231 -0.0950  0.6618
 7335TIP3   OH221968   2.665   5.452   0.644 -0.0847  0.4405  0.7371
 7335TIP3    H121969   2.726   5.381   0.666  1.6831  1.6579  0.0254
 7335TIP3    H221970   2.668   5.510   0.721  0.5087  1.0416  0.2723
 7336TIP3   OH221971   6.475   2.257   4.049 -0.3407  0.2763 -0.2588
 7336TIP3    H121972   6.475   2.348   4.077 -1.0336  0.1939  0.0426
 7336TIP3    H221973   6.403   2.217   4.099  0.7212 -0.7127  0.5403
 7337TIP3   OH221974   3.574   6.409   1.737 -0.7408  0.0821 -0.4748
 7337TIP3    H121975   3.489   6.454   1.734 -1.1191 -0.5781  0.0069
 7337TIP3    H221976   3.616   6.431   1.654 -0.9681  1.2046 -0.3141
 7338TIP3   OH221977   2.149   1.428   1.868  0.0950 -0.1215 -0.0645
 7338TIP3    H121978   2.225   1.485   1.863 -0.6077  0.7402 -1.7647
 7338TIP3    H221979   2.077   1.486   1.895 -0.2080 -0.6787  0.3690
 7339TIP3   OH221980   6.211   1.742   3.899  0.3954  0.3659 -0.1681
 7339TIP3    H121981   6.134   1.798   3.902  0.1576  0.0369 -0.0532
 7339TIP3    H221982   6.187   1.671   3.838  1.1432  1.0447 -1.2857
 7340TIP3   OH221983   5.808   3.785   0.920  0.1562 -0.1225  0.2250
 7340TIP3    H121984   5.813   3.803   0.826 -1.6246  1.6728  0.4110
 7340TIP3    H221985   5.866   3.710   0.932 -0.9872 -1.6530 -2.6355
 7341TIP3   OH221986   1.616   6.605   0.808 -0.4537  0.3256 -0.4837
 7341TIP3    H121987   1.539   6.643   0.852  0.5009  2.1761 -0.2908
 7341TIP3    H221988   1.592   6.603   0.716 -0.4543  1.7353 -0.5406
 7342TIP3   OH221989   2.001   4.612   2.087 -0.3696 -0.6263  0.1805
 7342TIP3    H121990   2.048   4.530   2.099  0.9936  0.0911 -0.0075
 7342TIP3    H221991   2.048   4.675   2.142 -0.5679  0.3198 -0.6870
 7343TIP3   OH221992   5.435   6.559   3.878  0.0746 -0.4811 -0.2813
 7343TIP3    H121993   5.352   6.515   3.896  0.2093 -0.6733 -0.1204
 7343TIP3    H221994   5.498   6.487   3.867  0.3882 -0.3312  0.4227
 7344TIP3   OH221995   1.437   3.225   2.699 -0.4885 -0.0314  0.0717
 7344TIP3    H121996   1.438   3.319   2.714 -1.7060 -0.0815  0.5860
 7344TIP3    H221997   1.392   3.214   2.615  2.7773  0.0029 -1.8802
 7345TIP3   OH221998   1.034   3.340   2.991 -0.3355  0.4427  0.6197
 7345TIP3    H121999   0.948   3.298   2.986  0.0927 -0.4438  0.4517
 7345TIP3    H222000   1.017   3.425   3.032 -1.1541 -0.1148  1.4780
 7346TIP3   OH222001   4.405   5.987   4.879  0.3619 -0.4823  0.2010
 7346TIP3    H122002   4.441   5.915   4.828  0.0713  0.2183 -1.0145
 7346TIP3    H222003   4.359   5.944   4.952  1.5536 -1.4559  0.4135
 7347TIP3   OH222004   5.595   3.061   4.244 -0.3368  0.0911 -0.0111
 7347TIP3    H122005   5.622   3.149   4.272  0.9169 -1.0330  2.6615
 7347TIP3    H222006   5.501   3.068   4.230  0.0290  2.3063 -1.9063
 7348TIP3   OH222007  -0.001   6.723   3.570 -0.2539  0.1230 -0.0012
 7348TIP3    H122008  -0.039   6.788   3.629  0.0181  0.0033  0.3046
 7348TIP3    H222009   0.091   6.749   3.563 -0.0409 -0.4985  0.4793
 7349TIP3   OH222010   4.839   6.417   4.128 -0.4625 -0.0943 -0.3077
 7349TIP3    H122011   4.878   6.497   4.162  0.0170 -0.2794 -0.4088
 7349TIP3    H222012   4.760   6.405   4.180  0.7936 -0.9575  1.5306
 7350TIP3   OH222013   3.923   3.310   4.359 -0.0090  0.4780 -0.0562
 7350TIP3    H122014   3.962   3.369   4.424 -0.3088  0.3478  0.2416
 7350TIP3    H222015   3.987   3.240   4.350  0.0796  0.5482  0.0203
 7351TIP3   OH222016   1.627   5.688   4.701 -0.2222 -0.5091 -0.2007
 7351TIP3    H122017   1.598   5.724   4.617  0.4481 -0.5826 -0.4729
 7351TIP3    H222018   1.567   5.616   4.718 -0.4571 -0.3996 -0.5423
 7352TIP3   OH222019   6.505   3.483   1.427 -0.6721  0.3248 -0.2002
 7352TIP3    H122020   6.545   3.570   1.423  2.2673 -0.8670  1.0590
 7352TIP3    H222021   6.521   3.445   1.340 -1.4231  0.7877 -0.5505
 7353TIP3   OH222022   4.422   3.712   5.818  0.4577  0.0677  0.0905
 7353TIP3    H122023   4.446   3.624   5.848  0.5790 -0.3101 -1.0376
 7353TIP3    H222024   4.329   3.706   5.799  0.2761  0.4422  0.8460
 7354TIP3   OH222025   2.805   0.517   2.762 -0.3903 -0.0407 -0.1538
 7354TIP3    H122026   2.849   0.593   2.801 -1.6350  0.4875  0.2573
 7354TIP3    H222027   2.719   0.514   2.804 -0.4184 -1.6119 -0.2578
 7355TIP3   OH222028   1.346   6.659   3.110 -0.2098  0.2371  0.4295
 7355TIP3    H122029   1.397   6.676   3.189 -1.1584 -0.9191  1.3230
 7355TIP3    H222030   1.389   6.712   3.042 -0.0382  2.1531  1.9350
 7356TIP3   OH222031   5.640   2.171   2.180 -0.4302 -0.1955 -0.5911
 7356TIP3    H122032   5.676   2.100   2.233  1.2346  0.1357 -1.1987
 7356TIP3    H222033   5.711   2.235   2.175 -0.4483 -0.2979 -3.3501
 7357TIP3   OH222034   2.142   1.100   4.554  1.0598  0.3244 -0.1313
 7357TIP3    H122035   2.223   1.051   4.542  1.1537  0.0486  1.3890
 7357TIP3    H222036   2.138   1.116   4.649 -1.6197 -1.3979  0.1481
 7358TIP3   OH222037   6.907   2.939   0.831 -0.3049 -0.4156 -0.3215
 7358TIP3    H122038   6.941   2.885   0.903 -0.3341  0.2387  0.1969
 7358TIP3    H222039   6.881   2.876   0.764 -0.3286 -1.0421  0.2626
 7359TIP3   OH222040   7.168   1.709   2.296 -0.0559  0.5316  0.2937
 7359TIP3    H122041   7.243   1.692   2.238  1.9850 -1.6542  3.2747
 7359TIP3    H222042   7.154   1.803   2.290  1.2789  0.6549 -2.2507
 7360TIP3   OH222043   4.345   0.403   1.813 -0.4447 -0.0836 -1.1782
 7360TIP3    H122044   4.370   0.496   1.814 -2.7324  0.6886  2.4994
 7360TIP3    H222045   4.428   0.356   1.823  0.5234  1.7367 -0.0557
 7361TIP3   OH222046   2.131   2.214   4.077  0.2331  0.0260 -0.1538
 7361TIP3    H122047   2.224   2.191   4.070  1.0756  1.3135  3.9212
 7361TIP3    H222048   2.128   2.307   4.053  0.1682  0.1925  0.4858
 7362TIP3   OH222049   2.062   0.462   4.165  0.3735 -0.2152 -0.0666
 7362TIP3    H122050   2.124   0.468   4.092  0.1837 -1.4515 -0.3504
 7362TIP3    H222051   2.101   0.397   4.223 -0.2657 -0.4118  0.1469
 7363TIP3   OH222052   1.117   2.673   0.212  0.1356  0.0945  0.1060
 7363TIP3    H122053   1.201   2.717   0.223  0.5375  0.0698 -2.3543
 7363TIP3    H222054   1.134   2.582   0.239  0.5221  0.3801  0.8601
 7364TIP3   OH222055   6.403   1.702   0.749  0.1122 -0.2280 -0.3692
 7364TIP3    H122056   6.421   1.758   0.825  0.4946 -1.5657  0.5469
 7364TIP3    H222057   6.395   1.614   0.785 -0.2787 -0.8085 -1.8176
 7365TIP3   OH222058   3.535   5.260   0.291 -0.6892 -0.6662 -0.0079
 7365TIP3    H122059   3.569   5.323   0.228 -1.3115 -1.1152 -0.8223
 7365TIP3    H222060   3.568   5.289   0.375  0.1976 -0.0747 -0.5500
 7366TIP3   OH222061   2.653   2.250   1.227 -0.0022  0.6193  0.6603
 7366TIP3    H122062   2.589   2.267   1.296 -1.0670 -0.0263 -0.1580
 7366TIP3    H222063   2.609   2.193   1.165  0.9422  1.1676 -0.5737
 7367TIP3   OH222064   5.809   0.022   0.408  0.2308 -0.2512  0.5925
 7367TIP3    H122065   5.810  -0.061   0.455  0.4884  0.0518  1.1263
 7367TIP3    H222066   5.901   0.043   0.394  0.1626 -0.2101  0.1716
 7368TIP3   OH222067   5.219   0.978   5.634 -0.5793 -0.6981  0.5489
 7368TIP3    H122068   5.305   1.005   5.665 -0.1699 -1.6221  0.2617
 7368TIP3    H222069   5.176   0.941   5.712 -0.2981 -1.2291  0.4554
 7369TIP3   OH222070   6.201   0.486   4.331 -0.0544  0.5393  0.4386
 7369TIP3    H122071   6.259   0.429   4.280  0.3823  0.9970  0.4075
 7369TIP3    H222072   6.151   0.427   4.387 -0.8073 -0.0179 -0.7735
 7370TIP3   OH222073   6.042   1.237   5.580 -0.2402  0.6578  0.0456
 7370TIP3    H122074   6.032   1.150   5.543 -0.3008  0.9439 -0.6266
 7370TIP3    H222075   6.056   1.222   5.674  1.4931 -0.1615 -0.3058
 7371TIP3   OH222076   1.995   3.747   5.595  0.2883  0.0543  0.0909
 7371TIP3    H122077   2.042   3.698   5.663  0.4909 -0.9067 -0.7150
 7371TIP3    H222078   2.061   3.803   5.555  0.2246  0.4301  0.5016
 7372TIP3   OH222079   2.078   1.878   0.287  0.7658  0.1563  0.2088
 7372TIP3    H122080   2.135   1.822   0.234  0.9597  0.0067  0.5703
 7372TIP3    H222081   2.007   1.820   0.316 -1.1982  0.9463 -2.5680
 7373TIP3   OH222082   0.933   5.312   4.132 -0.7288 -0.1997  0.0746
 7373TIP3    H122083   1.019   5.315   4.173 -0.8442 -0.4305  0.3433
 7373TIP3    H222084   0.909   5.219   4.133 -0.7676 -0.1988 -0.4562
 7374TIP3   OH222085   0.251   2.021   4.047 -0.3070  0.5683 -0.4200
 7374TIP3    H122086   0.266   2.074   3.969 -1.4817 -0.8374 -1.6673
 7374TIP3    H222087   0.201   2.079   4.106  1.8497  2.1388 -0.0086
 7375TIP3   OH222088   0.681   0.851   0.456 -0.7780 -0.3320  0.0327
 7375TIP3    H122089   0.748   0.783   0.464 -1.4535 -1.1954 -1.3000
 7375TIP3    H222090   0.666   0.858   0.361 -0.2158  2.1936  0.0566
 7376TIP3   OH222091   1.809   4.474   3.813  0.0840 -0.2233 -0.0690
 7376TIP3    H122092   1.845   4.544   3.868 -0.0165 -0.3145  0.1129
 7376TIP3    H222093   1.797   4.515   3.727  0.1533 -0.0550  0.0017
 7377TIP3   OH222094   5.600   2.569   1.606  0.0225 -0.2422  0.2518
 7377TIP3    H122095   5.649   2.491   1.576 -1.1833 -1.7436  1.9778
 7377TIP3    H222096   5.668   2.632   1.629  1.1094  0.9816 -4.9876
 7378TIP3   OH222097   1.762   3.189   4.428  0.3659  0.0117  0.6968
 7378TIP3    H122098   1.672   3.183   4.395  1.0022  0.9971 -1.3733
 7378TIP3    H222099   1.794   3.099   4.425 -0.2890 -0.2308  0.6550
 7379TIP3   OH222100   1.758   1.689   4.596 -0.1857 -0.1873 -0.2966
 7379TIP3    H122101   1.672   1.656   4.569 -1.0717  0.4368  1.5697
 7379TIP3    H222102   1.814   1.674   4.520 -2.0101 -0.3162 -1.6990
 7380TIP3   OH222103   0.627   1.482   3.676  0.1465 -0.0532 -0.4286
 7380TIP3    H122104   0.647   1.418   3.745 -0.3539 -0.0777 -0.3025
 7380TIP3    H222105   0.655   1.438   3.595  1.4789  0.2944 -0.1806
 7381TIP3   OH222106   6.696   0.761   5.114 -0.4741  0.2951 -0.0844
 7381TIP3    H122107   6.756   0.764   5.188 -1.0772  2.1360  0.3887
 7381TIP3    H222108   6.616   0.722   5.150  0.4736 -2.4850 -0.8020
 7382TIP3   OH222109   5.889   3.591   4.875  0.1276 -0.2006 -0.0217
 7382TIP3    H122110   5.881   3.508   4.828 -0.1878 -0.0905 -0.1639
 7382TIP3    H222111   5.949   3.572   4.947 -0.1466 -0.6218  0.1040
 7383TIP3   OH222112   5.075   6.127   3.838 -0.3877 -0.1816 -0.2629
 7383TIP3    H122113   4.990   6.171   3.843  0.9043  2.4164  4.0084
 7383TIP3    H222114   5.126   6.181   3.777 -0.7608  0.3778 -0.0932
 7384TIP3   OH222115   5.314   4.271   1.434 -0.3335 -0.7633 -0.1955
 7384TIP3    H122116   5.322   4.345   1.374 -0.1195 -1.6863 -1.3306
 7384TIP3    H222117   5.383   4.286   1.499 -0.4107  0.1217 -0.3051
 7385TIP3   OH222118   4.883   4.611   4.647  0.6987  0.0034 -0.4367
 7385TIP3    H122119   4.805   4.568   4.682  1.7630 -1.1666  0.6119
 7385TIP3    H222120   4.852   4.698   4.620 -1.4735 -1.2525 -2.3769
 7386TIP3   OH222121   2.392   6.148   5.259 -0.1517 -0.1182 -0.3436
 7386TIP3    H122122   2.411   6.070   5.310 -1.4765 -0.1760  0.0934
 7386TIP3    H222123   2.297   6.152   5.256 -0.1071  0.2437 -2.2750
 7387TIP3   OH222124   2.527   5.917   4.247 -0.1197 -0.1416 -0.8962
 7387TIP3    H122125   2.445   5.880   4.217  0.1418 -0.0723 -1.7044
 7387TIP3    H222126   2.557   5.857   4.315 -1.0205  0.0443 -0.3215
 7388TIP3   OH222127   6.771   4.465   4.017  0.0413  0.2433  0.1852
 7388TIP3    H122128   6.689   4.508   3.993 -0.1205 -1.1763 -2.1064
 7388TIP3    H222129   6.838   4.512   3.967  0.5703  0.9460  1.5075
 7389TIP3   OH222130   4.814   0.328   0.860 -0.5322  0.3327 -0.0037
 7389TIP3    H122131   4.838   0.260   0.922  0.1642 -0.2044 -0.8405
 7389TIP3    H222132   4.847   0.409   0.899 -2.2243  0.3696  1.4686
 7390TIP3   OH222133   2.907   5.301   0.346 -0.0705  0.3639 -0.0743
 7390TIP3    H122134   2.988   5.255   0.324  1.2761  3.0716 -1.1688
 7390TIP3    H222135   2.905   5.301   0.442  0.2543 -1.2211 -0.0307
 7391TIP3   OH222136   4.567   0.609   1.962 -0.1607 -0.1021 -0.3886
 7391TIP3    H122137   4.634   0.561   2.010  1.1402  2.8022  0.9710
 7391TIP3    H222138   4.609   0.634   1.880  0.5678  1.7842  0.4962
 7392TIP3   OH222139   4.272   5.169   5.477 -0.0570  0.3947  0.1156
 7392TIP3    H122140   4.237   5.127   5.556  1.1235 -0.6450  0.1211
 7392TIP3    H222141   4.304   5.096   5.423 -0.5956  1.1102 -1.2113
 7393TIP3   OH222142   2.040   3.925   3.733 -0.5054 -0.1175 -0.2144
 7393TIP3    H122143   2.051   3.879   3.650  0.6725 -0.0147 -0.1323
 7393TIP3    H222144   2.116   3.982   3.740 -1.7110  1.5363 -0.0951
 7394TIP3   OH222145   0.031   1.153   2.966  0.1693  0.5457 -0.1944
 7394TIP3    H122146  -0.055   1.123   2.935  0.3037  0.0879 -0.1287
 7394TIP3    H222147   0.035   1.245   2.937 -0.1698  0.4538 -0.5583
 7395TIP3   OH222148   7.116   4.713   5.479  0.0496 -0.2468 -0.2559
 7395TIP3    H122149   7.043   4.766   5.509  0.1995 -0.2257  0.0807
 7395TIP3    H222150   7.085   4.622   5.487  0.3441 -0.2751  0.6757
 7396TIP3   OH222151   2.376   6.105   2.065 -0.4461  0.2107  0.0402
 7396TIP3    H122152   2.464   6.142   2.070  0.6380 -1.7519 -2.2029
 7396TIP3    H222153   2.319   6.180   2.048  1.0059  1.3343 -0.0787
 7397TIP3   OH222154   0.052   4.502   3.395  0.0113  0.5684  0.1822
 7397TIP3    H122155   0.017   4.528   3.310  1.6933  3.6106  0.2645
 7397TIP3    H222156   0.118   4.436   3.373  1.9750  2.8248 -1.2772
 7398TIP3   OH222157   3.593   5.158   1.577  1.0113  0.0873  0.3355
 7398TIP3    H122158   3.601   5.217   1.502 -0.1241 -0.2204 -0.0541
 7398TIP3    H222159   3.566   5.214   1.649  1.3104  0.2574  0.3181
 7399TIP3   OH222160   0.875   6.751   5.720 -0.1255  0.2664 -0.0956
 7399TIP3    H122161   0.833   6.787   5.641  0.7875  0.8419 -0.3338
 7399TIP3    H222162   0.964   6.729   5.692  1.0434  2.7372  1.3086
 7400TIP3   OH222163   6.694   0.745   3.979  0.0216  0.2419 -0.3123
 7400TIP3    H122164   6.784   0.713   3.974 -0.0064 -0.0237  0.6015
 7400TIP3    H222165   6.702   0.839   3.990  0.3501 -0.0088  2.6194
 7401TIP3   OH222166   6.322   2.199   4.917  0.4170  0.0768 -0.1810
 7401TIP3    H122167   6.239   2.247   4.910  0.8022  0.8436  0.2879
 7401TIP3    H222168   6.340   2.197   5.011 -1.0395 -3.6165  0.1971
 7402TIP3   OH222169   6.948   6.416   0.424  0.2407 -0.3302 -0.0337
 7402TIP3    H122170   6.968   6.342   0.367 -1.8577  0.6628 -2.2046
 7402TIP3    H222171   6.988   6.491   0.381 -1.0494  0.3831 -0.0217
 7403TIP3   OH222172   2.752   3.332   3.017 -0.1678  0.3824  0.0118
 7403TIP3    H122173   2.678   3.271   3.017 -0.3435  0.5848  0.9267
 7403TIP3    H222174   2.811   3.298   2.950  0.5287 -1.7646  1.5854
 7404TIP3   OH222175   5.832   5.635   3.801  0.4014  0.3433 -0.4643
 7404TIP3    H122176   5.752   5.591   3.830  1.3082 -2.3454 -1.7072
 7404TIP3    H222177   5.801   5.705   3.743 -1.0723  0.5313  0.4989
 7405TIP3   OH222178   6.592   4.149   5.554  0.1040 -0.3631 -0.3323
 7405TIP3    H122179   6.603   4.132   5.461  0.6948 -0.3011 -0.2779
 7405TIP3    H222180   6.620   4.068   5.597  0.6386 -0.0942 -0.1734
 7406TIP3   OH222181   5.769   3.787   2.553  0.0577  0.0592 -0.4952
 7406TIP3    H122182   5.860   3.787   2.523 -0.3155 -0.5822 -1.6988
 7406TIP3    H222183   5.736   3.874   2.530 -0.4345 -0.6467 -2.7701
 7407TIP3   OH222184   4.150   3.663   5.680  0.4542 -0.0439  0.1286
 7407TIP3    H122185   4.115   3.638   5.766  0.0950  0.1295  0.0357
 7407TIP3    H222186   4.080   3.715   5.640  0.4358 -0.5060 -0.4541
 7408TIP3   OH222187   2.524   0.200   3.006  0.3645 -0.7721 -0.0179
 7408TIP3    H122188   2.431   0.224   3.002  0.3024 -1.1415 -1.5557
 7408TIP3    H222189   2.526   0.122   3.062 -0.0914 -0.1228  0.9253
 7409TIP3   OH222190   2.980   0.813   1.579  0.1801 -0.4317  0.3901
 7409TIP3    H122191   2.956   0.905   1.587 -0.3175 -0.7072  2.4275
 7409TIP3    H222192   3.065   0.807   1.623 -0.9732 -1.3782  2.6045
 7410TIP3   OH222193   4.166   2.277   1.849  0.2833  0.3041  0.0620
 7410TIP3    H122194   4.230   2.240   1.789  0.1603 -0.0714  0.1617
 7410TIP3    H222195   4.166   2.371   1.829 -1.4407 -0.0989 -2.1534
 7411TIP3   OH222196   1.268   6.596   4.682 -0.5593 -0.3179 -0.5011
 7411TIP3    H122197   1.234   6.542   4.754  1.3762 -3.2744 -1.6021
 7411TIP3    H222198   1.256   6.686   4.711 -1.2236 -1.3647  2.8426
 7412TIP3   OH222199   0.045   0.317   4.093  0.2824  0.2586 -0.7898
 7412TIP3    H122200   0.101   0.325   4.170  0.7402  0.8983 -1.1742
 7412TIP3    H222201   0.022   0.224   4.089  1.6435 -0.1016 -0.8373
 7413TIP3   OH222202   2.976   2.973   2.553 -0.0187 -0.1068 -0.3370
 7413TIP3    H122203   3.029   2.937   2.481 -2.2246  0.2794 -2.2583
 7413TIP3    H222204   3.014   2.933   2.632  0.0856 -3.6853 -1.9977
 7414TIP3   OH222205   3.215   6.053   4.432  0.0118  0.1204  0.4767
 7414TIP3    H122206   3.146   6.072   4.368 -0.6998 -1.2128  0.8221
 7414TIP3    H222207   3.247   6.140   4.459 -0.8062  0.7304 -0.4599
 7415TIP3   OH222208   3.900   5.235   5.375 -0.2067 -0.0236  0.7027
 7415TIP3    H122209   3.909   5.287   5.295 -0.6813 -0.5889  0.2756
 7415TIP3    H222210   3.987   5.197   5.389 -0.2526 -0.3188  0.1823
 7416TIP3   OH222211   5.177   4.111   2.601  0.7136  0.7577 -0.0327
 7416TIP3    H122212   5.230   4.185   2.629  0.9818  0.4701  0.2295
 7416TIP3    H222213   5.133   4.081   2.680 -0.3666  1.3994 -0.3664
 7417TIP3   OH222214   6.358   2.008   4.154  0.4519 -0.1197  0.5557
 7417TIP3    H122215   6.275   1.979   4.117  0.4992 -0.3636  0.6389
 7417TIP3    H222216   6.425   1.972   4.096  0.4888  0.4378  0.2414
 7418TIP3   OH222217   4.550   5.480   5.860 -0.0839 -0.0966 -0.1976
 7418TIP3    H122218   4.489   5.552   5.846 -0.7155 -0.9341 -2.0568
 7418TIP3    H222219   4.526   5.415   5.795 -0.2527 -2.5002  2.0925
 7419TIP3   OH222220   4.888   4.808   2.508  0.1889  0.2607 -0.7324
 7419TIP3    H122221   4.799   4.773   2.504  0.1517  0.4713 -2.8246
 7419TIP3    H222222   4.939   4.747   2.455  1.4502 -0.1570  0.8602
 7420TIP3   OH222223   0.478   6.423   1.140 -0.8969  0.3519  0.0704
 7420TIP3    H122224   0.556   6.383   1.103  0.0709  1.2806  1.0496
 7420TIP3    H222225   0.450   6.362   1.208 -1.7588 -0.5756 -1.0751
 7421TIP3   OH222226   4.710   4.728   0.748 -0.2747  0.2077  0.4468
 7421TIP3    H122227   4.677   4.758   0.664  0.1670  1.2307  0.6223
 7421TIP3    H222228   4.657   4.775   0.813 -0.4617 -0.4010  0.7438
 7422TIP3   OH222229   1.890   1.940   5.582 -0.2260 -0.0780 -0.5813
 7422TIP3    H122230   1.950   2.004   5.619 -0.7689 -0.0535  0.2960
 7422TIP3    H222231   1.939   1.898   5.512  0.5194  0.5135 -0.4231
 7423TIP3   OH222232   0.412   2.705   3.950  0.2748 -0.1447  0.9079
 7423TIP3    H122233   0.464   2.652   3.890 -0.8543 -1.1884  0.8151
 7423TIP3    H222234   0.410   2.792   3.910  0.6487 -0.4872  0.1263
 7424TIP3   OH222235   6.619   6.263   0.214 -0.2701  0.2528 -0.4797
 7424TIP3    H122236   6.624   6.174   0.181 -0.1973  0.9013 -2.3422
 7424TIP3    H222237   6.644   6.256   0.306 -1.5974 -1.8155 -0.2085
 7425TIP3   OH222238   2.383   0.560   0.057  0.0963  0.2930  0.2117
 7425TIP3    H122239   2.401   0.495   0.124  0.8455  0.1059 -0.1652
 7425TIP3    H222240   2.316   0.616   0.096 -0.8827 -0.9535  0.3646
 7426TIP3   OH222241   3.794   6.651   0.576 -0.3092  0.1996  0.0991
 7426TIP3    H122242   3.765   6.679   0.489  1.3306 -1.1941 -0.9660
 7426TIP3    H222243   3.736   6.578   0.599  0.1744 -0.3985 -0.5247
 7427TIP3   OH222244   6.036   3.804   2.472  0.1611 -0.0051  0.2618
 7427TIP3    H122245   6.040   3.788   2.378 -0.6985  0.8422  0.0662
 7427TIP3    H222246   6.064   3.722   2.512 -0.7263 -0.8088 -0.7195
 7428TIP3   OH222247   0.104   3.784   3.104 -0.1877 -0.7085  0.3640
 7428TIP3    H122248   0.038   3.854   3.099  0.6405  0.0224 -1.1561
 7428TIP3    H222249   0.169   3.817   3.165  0.5552  0.2120 -0.8790
 7429TIP3   OH222250   0.816   4.245   3.757 -0.4124  0.6177  0.4787
 7429TIP3    H122251   0.826   4.324   3.703 -1.5638  0.7771  0.4762
 7429TIP3    H222252   0.828   4.173   3.695 -0.3794  0.7932  0.2762
 7430TIP3   OH222253   2.130   6.164   5.194  0.0532  0.3780  0.6512
 7430TIP3    H122254   2.131   6.101   5.122  0.4865 -0.0348  1.0140
 7430TIP3    H222255   2.037   6.186   5.204 -0.5227 -2.2740  2.2848
 7431TIP3   OH222256   0.161   2.334   0.461  0.0573 -0.0538 -0.3741
 7431TIP3    H122257   0.125   2.403   0.516  0.6754 -1.5485  2.0986
 7431TIP3    H222258   0.250   2.364   0.440 -0.1813  0.5368 -0.5400
 7432TIP3   OH222259   2.455   3.385   0.382 -0.1837  0.2123  0.9017
 7432TIP3    H122260   2.436   3.384   0.476 -1.1761  1.0114  0.7275
 7432TIP3    H222261   2.433   3.297   0.352  0.2731 -0.0909  1.4385
 7433TIP3   OH222262   5.089   3.398   0.070 -0.0114  0.4182 -0.1602
 7433TIP3    H122263   5.044   3.421   0.151 -1.7889 -2.3615 -0.2273
 7433TIP3    H222264   5.139   3.319   0.092 -0.2633 -0.1959 -1.6612
 7434TIP3   OH222265   5.682   6.810   0.691  0.1081  0.2084 -0.4113
 7434TIP3    H122266   5.683   6.718   0.718 -0.7841  0.0895 -0.7713
 7434TIP3    H222267   5.705   6.808   0.598  2.0116  0.5262  0.0012
 7435TIP3   OH222268   2.482   5.374   3.391 -0.0616 -0.2795  0.2497
 7435TIP3    H122269   2.481   5.415   3.477 -0.9243 -0.5832  0.3872
 7435TIP3    H222270   2.575   5.363   3.371  0.2799  2.6115 -0.2012
 7436TIP3   OH222271   3.633   6.364   3.710  0.0697 -0.0409  0.1216
 7436TIP3    H122272   3.709   6.396   3.661  0.5096 -1.6427 -0.3132
 7436TIP3    H222273   3.630   6.418   3.789  0.5280  1.2908 -0.7459
 7437TIP3   OH222274   3.725   1.068   4.326 -0.5876  0.4518  0.0513
 7437TIP3    H122275   3.772   0.996   4.283 -0.3202 -0.6075  2.0211
 7437TIP3    H222276   3.779   1.090   4.402 -1.8768  1.1143  0.8151
 7438TIP3   OH222277   6.866   3.727   4.540  0.1749  0.1513 -0.1338
 7438TIP3    H122278   6.950   3.718   4.495  1.6634  1.5191  2.1454
 7438TIP3    H222279   6.866   3.658   4.605 -0.6569 -0.0649 -0.3554
 7439TIP3   OH222280   1.941   6.706   4.739 -0.5201  0.3500 -0.0159
 7439TIP3    H122281   1.851   6.681   4.761 -0.2640  0.2109  0.9419
 7439TIP3    H222282   1.939   6.725   4.645 -1.2363 -1.0104 -0.2900
 7440TIP3   OH222283   1.312   4.334   5.434 -0.1959 -0.0932 -0.1480
 7440TIP3    H122284   1.253   4.396   5.390 -2.0261 -2.3085 -1.0484
 7440TIP3    H222285   1.334   4.270   5.366  2.3793  0.0038  0.5008
 7441TIP3   OH222286   6.450   3.635   0.569  0.2631  0.0908 -0.2936
 7441TIP3    H122287   6.516   3.703   0.580  0.1820  0.2602 -0.8043
 7441TIP3    H222288   6.370   3.683   0.546 -0.4050 -0.0056  1.7046
 7442TIP3   OH222289   3.583   4.753   2.698  0.2361  0.0333 -0.2160
 7442TIP3    H122290   3.559   4.760   2.606  0.3036  0.1215 -0.2269
 7442TIP3    H222291   3.679   4.752   2.698  0.2784  1.4970 -0.0473
 7443TIP3   OH222292   5.581   3.573   2.241  0.0169 -0.0818 -0.1708
 7443TIP3    H122293   5.540   3.507   2.185  0.8984 -0.4579 -0.3896
 7443TIP3    H222294   5.670   3.581   2.208  0.0777  0.8508  0.1850
 7444TIP3   OH222295   3.634   2.268   3.000 -0.1638  0.1695  0.2673
 7444TIP3    H122296   3.545   2.245   3.025  0.4953 -1.5832  1.1222
 7444TIP3    H222297   3.669   2.190   2.957  1.7292 -0.0669  2.0721
 7445TIP3   OH222298   0.188   0.957   3.406 -0.3056 -0.7165 -0.4721
 7445TIP3    H122299   0.129   1.021   3.448 -0.0661 -1.0258  0.3576
 7445TIP3    H222300   0.218   1.002   3.327 -1.4050 -0.4311 -0.7583
 7446TIP3   OH222301   0.621   2.314   0.444 -0.4333  0.8438 -0.0992
 7446TIP3    H122302   0.667   2.234   0.467  1.0614  2.1486  1.8558
 7446TIP3    H222303   0.676   2.355   0.377  0.3499  1.5126  0.9097
 7447TIP3   OH222304   7.162   0.899   0.642 -0.1533  0.1321  0.1989
 7447TIP3    H122305   7.125   0.811   0.653 -1.3296  0.6164  0.2331
 7447TIP3    H222306   7.248   0.883   0.601 -0.6409 -0.9933 -0.4622
 7448TIP3   OH222307   4.164   1.882   2.910 -0.2719  0.6783 -0.1808
 7448TIP3    H122308   4.251   1.920   2.896 -0.0388 -0.3026 -1.6405
 7448TIP3    H222309   4.103   1.949   2.877 -0.1581  1.6725  1.5003
 7449TIP3   OH222310   0.111   2.507   5.536 -0.3461  0.4062 -0.0409
 7449TIP3    H122311   0.073   2.431   5.492 -0.0494  0.8562 -1.0973
 7449TIP3    H222312   0.194   2.475   5.571 -1.0947 -0.2519  1.2140
 7450TIP3   OH222313   6.508   5.706   5.181 -0.2520 -0.0838 -0.4443
 7450TIP3    H122314   6.437   5.642   5.177 -1.2015  0.9068  0.0500
 7450TIP3    H222315   6.585   5.657   5.153 -0.8166 -1.6121  0.5165
 7451TIP3   OH222316   3.453   5.334   2.397 -0.6547  0.5740  0.0852
 7451TIP3    H122317   3.419   5.421   2.417 -0.9252  0.7571 -1.1050
 7451TIP3    H222318   3.540   5.349   2.360 -0.0549  0.2225  1.2817
 7452TIP3   OH222319   6.106   2.536   2.690 -0.2250 -0.0534 -0.0391
 7452TIP3    H122320   6.190   2.518   2.647 -0.5399  1.0704 -1.2083
 7452TIP3    H222321   6.124   2.530   2.783  1.7002  2.2008 -0.1767
 7453TIP3   OH222322   3.669   4.565   1.334 -0.4081  0.3557  0.0365
 7453TIP3    H122323   3.592   4.594   1.383 -0.6512 -1.2372  0.6505
 7453TIP3    H222324   3.727   4.642   1.334 -3.0393  2.6129 -2.8384
 7454TIP3   OH222325   6.530   5.544   3.651  0.2220 -0.2438  0.3090
 7454TIP3    H122326   6.440   5.510   3.653 -0.1176  0.6537  0.8138
 7454TIP3    H222327   6.534   5.606   3.724  1.9726 -1.9898  1.8097
 7455TIP3   OH222328   1.426   5.757   4.475 -0.8003 -0.3493  0.4780
 7455TIP3    H122329   1.466   5.839   4.445  0.3155 -1.7515 -2.2007
 7455TIP3    H222330   1.334   5.765   4.449 -0.4432 -0.3710 -0.8883
 7456TIP3   OH222331   1.334   0.857   5.649  0.5151  0.7194  0.2712
 7456TIP3    H122332   1.304   0.832   5.561  0.4864 -0.0607  0.4959
 7456TIP3    H222333   1.415   0.905   5.634  1.2883 -0.6629 -0.1055
 7457TIP3   OH222334   3.967   3.391   5.647 -0.5036  0.0193 -0.1267
 7457TIP3    H122335   4.058   3.360   5.651  0.0689  1.6722  0.4618
 7457TIP3    H222336   3.930   3.370   5.733 -1.7742 -3.5559 -1.3467
 7458TIP3   OH222337   6.472   3.514   0.929  0.5874  0.1673  0.1250
 7458TIP3    H122338   6.487   3.533   0.836 -1.1440  1.2913  0.0164
 7458TIP3    H222339   6.470   3.600   0.971  3.1503 -0.3934  1.5694
 7459TIP3   OH222340   5.487   5.947   2.326 -0.1511  0.5307  0.3022
 7459TIP3    H122341   5.457   5.873   2.273  1.4001 -0.4267  0.6912
 7459TIP3    H222342   5.440   5.938   2.409 -0.9276  0.7419 -0.1110
 7460TIP3   OH222343   3.434  -0.009   2.612 -0.3555 -0.0606 -0.1402
 7460TIP3    H122344   3.340  -0.005   2.598 -0.4963 -0.2467  0.7424
 7460TIP3    H222345   3.455   0.071   2.659 -0.2821 -0.6391  0.8304
 7461TIP3   OH222346   3.189   3.353   3.088 -0.0483 -0.5633 -0.1037
 7461TIP3    H122347   3.170   3.431   3.141 -0.3288 -0.6134 -0.1271
 7461TIP3    H222348   3.118   3.350   3.024 -2.4031 -3.0428  2.3219
 7462TIP3   OH222349   4.362   2.086   2.372  0.3893 -0.0174  0.5957
 7462TIP3    H122350   4.413   2.150   2.323 -0.2392  0.8252  1.0089
 7462TIP3    H222351   4.351   2.012   2.312 -1.7051  1.5970 -1.1659
 7463TIP3   OH222352   3.195   3.584   5.541  0.1147 -0.0842  0.2320
 7463TIP3    H122353   3.288   3.571   5.559  0.4174  0.0290 -1.1107
 7463TIP3    H222354   3.158   3.613   5.624  1.5684  1.3046  0.4536
 7464TIP3   OH222355   0.772   5.449   2.799 -0.1211 -0.2105  0.1266
 7464TIP3    H122356   0.811   5.493   2.874 -1.3317  0.5401  0.3404
 7464TIP3    H222357   0.743   5.520   2.742  0.1187 -0.7664 -0.7089
 7465TIP3   OH222358   0.975   1.452   1.993  0.2446 -0.2401  0.0116
 7465TIP3    H122359   1.070   1.455   1.999  0.2131 -0.8730  1.0213
 7465TIP3    H222360   0.948   1.544   1.993  0.7927 -0.0695  0.9205
 7466TIP3   OH222361   6.139   6.245   2.718  0.0324  0.0116 -0.2163
 7466TIP3    H122362   6.148   6.157   2.681  1.2314 -0.3915  0.9776
 7466TIP3    H222363   6.047   6.267   2.703  0.0667 -0.7820 -1.9326
 7467TIP3   OH222364   0.000   2.877   1.448 -0.0943 -0.6832 -0.4370
 7467TIP3    H122365   0.067   2.883   1.516 -1.8382  1.8043  1.2261
 7467TIP3    H222366  -0.041   2.792   1.462  2.3586 -2.1218 -1.2869
 7468TIP3   OH222367   4.884   5.344   1.164  0.6842 -0.3563 -0.2021
 7468TIP3    H122368   4.811   5.305   1.116 -0.0355  0.1173  0.5020
 7468TIP3    H222369   4.847   5.421   1.206  1.9173  0.6865 -0.9621
 7469TIP3   OH222370   0.163   1.095   1.493  0.1488  0.2426  0.4632
 7469TIP3    H122371   0.107   1.076   1.418  2.1396  1.7546 -1.5539
 7469TIP3    H222372   0.131   1.179   1.525  0.5026  0.5373  0.0549
 7470TIP3   OH222373   3.584   5.079   3.678  0.3588 -0.2314  0.0471
 7470TIP3    H122374   3.635   5.109   3.603 -1.6112  1.7581 -0.6084
 7470TIP3    H222375   3.623   5.122   3.753 -0.2104  1.1559 -0.4256
 7471TIP3   OH222376   3.068   5.370   2.773 -0.3366 -0.0373 -0.1089
 7471TIP3    H122377   3.078   5.465   2.784 -2.8098  0.1882  0.8915
 7471TIP3    H222378   3.109   5.332   2.851  2.6411 -0.0463 -1.5308
 7472TIP3   OH222379   1.384   6.075   4.603  0.6499 -0.2766 -0.6943
 7472TIP3    H122380   1.325   6.001   4.619  0.9928 -0.5300 -0.6026
 7472TIP3    H222381   1.338   6.127   4.537 -0.9206  0.9243  1.2397
 7473TIP3   OH222382   2.360   1.889   1.726 -0.3221 -0.4321  0.1912
 7473TIP3    H122383   2.434   1.933   1.685  0.1036 -1.6797 -0.4225
 7473TIP3    H222384   2.293   1.886   1.657  0.1246 -1.8660 -0.2127
 7474TIP3   OH222385   6.514   6.138   1.998 -0.7883  0.3696 -0.3899
 7474TIP3    H122386   6.607   6.115   2.004 -0.6832  0.4727 -1.4767
 7474TIP3    H222387   6.476   6.070   1.942 -1.5403 -0.1159  0.6722
 7475TIP3   OH222388   2.925   1.179   4.398 -0.0707 -0.3232 -0.3693
 7475TIP3    H122389   2.868   1.102   4.399 -1.7161  0.7183 -2.7990
 7475TIP3    H222390   2.907   1.223   4.481 -0.2733 -1.7395  0.3656
 7476TIP3   OH222391   2.641   5.782   1.137 -0.3638 -0.1936  0.3081
 7476TIP3    H122392   2.614   5.819   1.053 -0.8975  0.1076  0.6072
 7476TIP3    H222393   2.567   5.727   1.164 -0.6681  0.5696  1.0910
 7477TIP3   OH222394   2.182   3.044   0.048  0.5294 -0.1659  0.2588
 7477TIP3    H122395   2.173   2.975  -0.017  1.8126 -0.8817  0.8022
 7477TIP3    H222396   2.176   3.125  -0.002  0.1922 -0.6783 -0.5546
 7478TIP3   OH222397   1.412   0.767   4.613 -0.0258  0.0896 -0.4904
 7478TIP3    H122398   1.331   0.814   4.631  0.2602  0.3965  0.0587
 7478TIP3    H222399   1.443   0.804   4.531 -0.7986 -0.5404 -1.0762
 7479TIP3   OH222400   4.923   2.135   3.893 -0.1681  0.2270 -0.3337
 7479TIP3    H122401   4.841   2.153   3.848 -0.0803  0.2951 -0.4679
 7479TIP3    H222402   4.987   2.124   3.823 -0.2183 -0.6188 -0.2569
 7480TIP3   OH222403   1.290   4.024   2.907  0.3152  0.0427  0.3312
 7480TIP3    H122404   1.361   4.025   2.843 -1.9294 -0.5723 -2.4095
 7480TIP3    H222405   1.234   4.097   2.881  0.0072  0.6550  2.5548
 7481TIP3   OH222406   6.755   3.497   5.776 -0.2223 -0.1661  0.1022
 7481TIP3    H122407   6.710   3.472   5.695  0.4745 -0.6102 -0.1650
 7481TIP3    H222408   6.813   3.568   5.750 -0.8491  0.4941  0.4729
 7482TIP3   OH222409   2.656   1.801   5.008 -0.0812 -0.3400  0.0768
 7482TIP3    H122410   2.671   1.778   5.100  1.9388  1.5055  0.2859
 7482TIP3    H222411   2.589   1.870   5.011  2.2489  2.0679  0.5756
 7483TIP3   OH222412   6.251   3.963   2.849 -0.7284  0.0784  0.1205
 7483TIP3    H122413   6.293   4.016   2.781  0.8670 -1.3198 -0.0344
 7483TIP3    H222414   6.158   3.970   2.830 -0.4346  1.2269 -1.0738
 7484TIP3   OH222415   6.456   6.216   4.605 -0.1670  0.0653 -0.5671
 7484TIP3    H122416   6.404   6.262   4.539  0.8043 -0.0749 -1.4501
 7484TIP3    H222417   6.522   6.280   4.631  0.0329 -0.1992 -0.4259
 7485TIP3   OH222418   1.657   0.210   0.044  0.1270 -0.2158  0.2553
 7485TIP3    H122419   1.655   0.131   0.098  3.5118  0.1046  1.1082
 7485TIP3    H222420   1.654   0.282   0.107  0.4956  0.2282 -0.2245
 7486TIP3   OH222421   4.726   4.820   2.239  0.5372 -0.2115 -0.1137
 7486TIP3    H122422   4.740   4.737   2.193  0.6984  0.1966 -0.8163
 7486TIP3    H222423   4.810   4.837   2.283 -0.0296 -1.2472  1.4139
 7487TIP3   OH222424   6.030   2.811   1.290 -0.2971 -0.7144  0.0622
 7487TIP3    H122425   5.999   2.727   1.324 -0.1388 -1.0873 -0.6811
 7487TIP3    H222426   6.115   2.825   1.331 -0.2396 -1.0126  0.0451
 7488TIP3   OH222427   3.351   6.545   1.060  0.2875 -0.4899 -0.1519
 7488TIP3    H122428   3.271   6.524   1.108 -1.6102  1.9707 -2.0282
 7488TIP3    H222429   3.357   6.478   0.992 -0.0530 -0.7958  0.1173
 7489TIP3   OH222430   5.475   0.802   3.343  0.0886  0.2450  0.0519
 7489TIP3    H122431   5.511   0.717   3.318 -0.8387 -0.5138  1.1956
 7489TIP3    H222432   5.482   0.804   3.438 -0.9490  0.9650  0.1251
 7490TIP3   OH222433   4.344   0.743   5.374 -0.3846 -0.2253  0.6229
 7490TIP3    H122434   4.299   0.707   5.298 -1.8007  0.1102  1.2740
 7490TIP3    H222435   4.367   0.833   5.348 -2.6239  0.5842  1.2183
 7491TIP3   OH222436   6.645   4.978   1.231  0.3692 -0.2098  0.0088
 7491TIP3    H122437   6.669   4.931   1.151  0.6743  1.8156 -1.1636
 7491TIP3    H222438   6.558   4.944   1.253 -0.3588  0.1733 -2.0208
 7492TIP3   OH222439   0.202   6.093   5.670  0.2886  0.3764 -0.0576
 7492TIP3    H122440   0.135   6.153   5.704  0.1521  1.6390 -2.3973
 7492TIP3    H222441   0.153   6.030   5.618  0.5061 -1.5217  1.8788
 7493TIP3   OH222442   0.656   5.189   2.758  0.4285  0.8485 -0.1486
 7493TIP3    H122443   0.693   5.277   2.753  0.8541  0.6608 -0.3811
 7493TIP3    H222444   0.583   5.197   2.820  1.2198  1.0923  0.7730
 7494TIP3   OH222445   0.104   1.297   1.834 -0.2771 -0.3384  0.1222
 7494TIP3    H122446   0.068   1.375   1.877  1.8881  1.3136 -0.8423
 7494TIP3    H222447   0.104   1.230   1.902 -1.9881  0.5437  1.0676
 7495TIP3   OH222448   4.183   6.126   0.801  0.1327 -0.3610 -0.1913
 7495TIP3    H122449   4.167   6.186   0.728  1.1920 -1.2204 -1.1693
 7495TIP3    H222450   4.277   6.132   0.816  0.2384 -1.6934 -0.2477
 7496TIP3   OH222451   0.873   6.097   2.752  0.4202  0.2316  0.2078
 7496TIP3    H122452   0.862   6.123   2.843  0.6852 -2.8492  1.2263
 7496TIP3    H222453   0.794   6.130   2.708  0.0653  1.3644  1.6219
 7497TIP3   OH222454   1.946   2.510   5.107 -0.6669 -0.1332  0.4699
 7497TIP3    H122455   1.857   2.546   5.111 -0.9845 -0.7018 -0.8959
 7497TIP3    H222456   2.003   2.585   5.125 -1.4169  0.2234  1.4352
 7498TIP3   OH222457   4.197   4.893   0.515 -0.2402  0.0932 -0.0381
 7498TIP3    H122458   4.105   4.888   0.542 -0.2198  0.7939  0.1809
 7498TIP3    H222459   4.245   4.914   0.595 -0.2892  3.2432 -0.7082
 7499TIP3   OH222460   6.227   2.651   5.104 -0.0960 -0.4461  0.1460
 7499TIP3    H122461   6.164   2.582   5.124 -0.1865 -0.3962  0.0424
 7499TIP3    H222462   6.224   2.659   5.008  0.3860 -0.7370  0.1076
 7500TIP3   OH222463   0.040   3.859   5.819  0.0059 -0.4761  0.1681
 7500TIP3    H122464   0.018   3.812   5.900 -2.9310  0.9140  0.3115
 7500TIP3    H222465   0.115   3.914   5.843 -0.1449 -0.8593  1.6385
 7501TIP3   OH222466   0.883   3.328   2.712 -0.2102  0.1898  0.2304
 7501TIP3    H122467   0.945   3.400   2.725 -0.1758  0.5412 -1.6898
 7501TIP3    H222468   0.935   3.249   2.727 -0.2052  0.5080  2.1808
 7502TIP3   OH222469   5.336   0.139   1.416 -0.2557  0.2261  0.1342
 7502TIP3    H122470   5.336   0.113   1.508 -1.1308  0.2969  0.1621
 7502TIP3    H222471   5.424   0.171   1.401 -0.1136  0.2619  0.9678
 7503TIP3   OH222472   7.158   1.026   1.316  0.4387  0.2870 -0.4413
 7503TIP3    H122473   7.126   1.081   1.245 -1.0822 -1.2107 -0.9653
 7503TIP3    H222474   7.086   1.025   1.380  0.7577 -0.4357 -0.0783
 7504TIP3   OH222475   6.140   0.759   1.928 -0.2054  0.3938 -0.3910
 7504TIP3    H122476   6.222   0.715   1.953 -0.1565 -0.0655 -1.3353
 7504TIP3    H222477   6.165   0.851   1.919  0.0059  0.4018  0.1853
 7505TIP3   OH222478   1.072   5.203   4.455  0.6015 -0.1524 -0.0462
 7505TIP3    H122479   1.098   5.177   4.543 -3.3148 -0.9632  1.0550
 7505TIP3    H222480   1.039   5.122   4.415 -1.0924  0.8663 -0.8466
 7506TIP3   OH222481   1.472   6.191   0.636 -0.0881 -0.0632 -0.5400
 7506TIP3    H122482   1.497   6.163   0.548 -3.0686  0.2317 -1.5893
 7506TIP3    H222483   1.413   6.123   0.667 -0.7850  0.9024  0.3167
 7507TIP3   OH222484   1.514   2.606   0.901  0.6671  0.2124  0.3195
 7507TIP3    H122485   1.467   2.550   0.840  0.8742  0.6700 -0.2688
 7507TIP3    H222486   1.598   2.563   0.913  1.2078  0.8842 -0.8974
 7508TIP3   OH222487   3.794   1.596   2.589  0.1853  0.2509  0.2490
 7508TIP3    H122488   3.756   1.679   2.563 -0.5720 -0.0755  0.2845
 7508TIP3    H222489   3.844   1.616   2.669  0.9425  0.8747 -0.3634
 7509TIP3   OH222490   4.347   4.573   4.915 -0.2432 -0.2316  0.0603
 7509TIP3    H122491   4.297   4.630   4.857  0.8666 -0.9881 -1.7612
 7509TIP3    H222492   4.437   4.607   4.910  0.3737 -1.8746 -0.7978
 7510TIP3   OH222493   7.114   2.196   0.252 -0.0142 -0.2582  0.2760
 7510TIP3    H122494   7.184   2.193   0.317  0.8652  1.2975 -0.5259
 7510TIP3    H222495   7.089   2.289   0.248  0.0740 -0.2800 -1.6985
 7511TIP3   OH222496   5.509   1.652   1.693  0.6235 -0.0500 -0.3590
 7511TIP3    H122497   5.470   1.643   1.606  1.3768 -2.4074 -0.5243
 7511TIP3    H222498   5.512   1.562   1.727  0.0544  0.8380  2.2473
 7512TIP3   OH222499   1.735   1.522   2.367  0.1437  0.8616  0.3084
 7512TIP3    H122500   1.795   1.575   2.314 -0.0398  1.5877  0.8036
 7512TIP3    H222501   1.744   1.433   2.332  0.6610  1.1659 -0.3680
 7513TIP3   OH222502   5.063   4.122   3.974  0.4125 -0.3997 -0.5884
 7513TIP3    H122503   5.074   4.042   3.923  2.0130 -1.4266  1.2154
 7513TIP3    H222504   5.070   4.093   4.065 -0.7862  1.5607  0.1854
 7514TIP3   OH222505   6.287   2.822   1.345 -0.5379  0.6870  0.1779
 7514TIP3    H122506   6.289   2.822   1.249 -0.9218 -1.0286  0.1234
 7514TIP3    H222507   6.378   2.808   1.371 -0.6452 -0.5631 -0.0209
 7515TIP3   OH222508   1.721   2.693   5.699 -0.1153 -0.4181  0.0102
 7515TIP3    H122509   1.723   2.774   5.649  0.6786  0.0473  0.7562
 7515TIP3    H222510   1.661   2.636   5.651 -1.7282  1.0662  0.1802
 7516TIP3   OH222511   6.929   1.605   5.016 -0.3047 -0.0046  0.0592
 7516TIP3    H122512   6.923   1.698   5.039 -0.4428  0.0484 -0.1937
 7516TIP3    H222513   7.018   1.580   5.042  0.1426  0.4863 -0.9353
 7517TIP3   OH222514   1.811   5.282   1.155 -0.1467  0.1386  0.0893
 7517TIP3    H122515   1.811   5.187   1.165  0.1497 -0.0953 -1.8405
 7517TIP3    H222516   1.835   5.315   1.242  4.3025 -1.6960 -0.2145
 7518TIP3   OH222517   3.221   2.734   0.092 -0.5986 -0.4486 -0.2133
 7518TIP3    H122518   3.245   2.801   0.156 -1.2270 -0.7093  0.3098
 7518TIP3    H222519   3.131   2.755   0.069 -1.1423 -1.6785  0.7049
 7519TIP3   OH222520   3.968   1.080   0.362 -0.2399  0.2072 -0.3668
 7519TIP3    H122521   4.000   1.051   0.447  1.3759  0.5441 -0.8234
 7519TIP3    H222522   4.014   1.162   0.345 -0.0121 -0.1942 -1.8559
 7520TIP3   OH222523   1.856   3.772   3.258 -0.4868  0.0208 -0.4823
 7520TIP3    H122524   1.799   3.722   3.315 -1.1058  1.8957  0.6205
 7520TIP3    H222525   1.927   3.802   3.315  0.0188  0.1926 -1.1851
 7521TIP3   OH222526   3.706   1.810   3.655 -0.2409  0.8413  0.3662
 7521TIP3    H122527   3.664   1.894   3.675 -1.6854  0.6377 -1.4964
 7521TIP3    H222528   3.703   1.804   3.559 -0.6772 -1.5736  0.4568
 7522TIP3   OH222529   1.728   6.248   2.661 -0.0525  0.0271  0.1759
 7522TIP3    H122530   1.715   6.159   2.694 -1.5398  0.1508  0.0168
 7522TIP3    H222531   1.794   6.239   2.593 -1.3025 -1.2420 -0.9286
 7523TIP3   OH222532   1.336   3.997   2.500  0.0859  0.1937 -0.4875
 7523TIP3    H122533   1.246   4.010   2.473 -0.4129 -1.2151  0.3650
 7523TIP3    H222534   1.358   4.076   2.550 -1.5808 -0.5279  1.5150
 7524TIP3   OH222535   0.804   4.633   0.165 -0.6020  0.1280  0.0035
 7524TIP3    H122536   0.762   4.716   0.188  1.2993  1.5133 -1.2322
 7524TIP3    H222537   0.849   4.651   0.082  0.9409 -1.7619  0.3612
 7525TIP3   OH222538   4.948   6.002   2.854 -0.0641  0.2902  0.5792
 7525TIP3    H122539   4.970   6.000   2.761 -0.9280  0.6473  0.3606
 7525TIP3    H222540   5.032   5.994   2.899  0.3220 -0.3458 -0.2293
 7526TIP3   OH222541   4.649   6.396   1.753 -0.5254  0.0141 -0.2245
 7526TIP3    H122542   4.553   6.398   1.750 -0.5563 -0.4903  0.2777
 7526TIP3    H222543   4.670   6.413   1.845 -0.1407 -0.1060 -0.2880
 7527TIP3   OH222544   0.985   2.211   5.277  0.3594 -0.3605 -0.0547
 7527TIP3    H122545   1.033   2.246   5.352 -0.2539  1.1356 -0.3274
 7527TIP3    H222546   0.942   2.287   5.238  1.8134 -0.8173 -2.8050
 7528TIP3   OH222547   3.590   3.026   1.135 -0.0539 -0.6693  0.0713
 7528TIP3    H122548   3.607   2.948   1.082 -0.7459  0.0999 -1.3343
 7528TIP3    H222549   3.495   3.031   1.140 -0.1375  1.4037 -1.9713
 7529TIP3   OH222550   3.906   2.072   0.719 -0.8126  0.4610 -0.2639
 7529TIP3    H122551   3.835   2.009   0.711 -0.3065 -0.0991 -0.3916
 7529TIP3    H222552   3.940   2.082   0.630 -0.7757  0.7794 -0.2152
 7530TIP3   OH222553   5.402   2.917   0.088 -0.1157 -0.1797 -0.5800
 7530TIP3    H122554   5.490   2.881   0.095 -0.4509 -0.8334  0.4387
 7530TIP3    H222555   5.410   2.988   0.024  1.5217  0.9462  0.8017
 7531TIP3   OH222556   5.437   6.203   2.655  0.0965  0.3381  0.6305
 7531TIP3    H122557   5.423   6.294   2.628 -0.7140  0.3219  0.9805
 7531TIP3    H222558   5.516   6.177   2.608 -1.9996 -0.1780 -3.0375
 7532TIP3   OH222559   2.993   2.808   1.001 -0.0253  0.0411 -0.0272
 7532TIP3    H122560   3.015   2.884   1.055 -2.6023  0.5473  0.4203
 7532TIP3    H222561   3.020   2.733   1.054 -0.2327  0.5852  0.8743
 7533TIP3   OH222562   1.643   2.882   2.694  0.1882  0.3022 -0.2366
 7533TIP3    H122563   1.682   2.962   2.731 -0.0334  0.7104 -0.8675
 7533TIP3    H222564   1.713   2.817   2.700  0.6078  0.7307 -0.3552
 7534TIP3   OH222565   7.232   1.932   1.663  0.0208  0.1065  0.3079
 7534TIP3    H122566   7.143   1.965   1.644  0.7026  1.2290 -1.1645
 7534TIP3    H222567   7.242   1.856   1.606  0.0341  0.0376  0.4027
 7535TIP3   OH222568   4.031   5.867   4.482 -0.5111  0.3006  0.7370
 7535TIP3    H122569   4.058   5.816   4.558 -0.4456 -1.2910 -0.3153
 7535TIP3    H222570   3.970   5.810   4.435  0.4584  0.7073 -1.0933
 7536TIP3   OH222571   4.596   0.511   4.718 -0.1295 -0.3118  0.8074
 7536TIP3    H122572   4.611   0.480   4.628  1.6430  0.5281  0.7601
 7536TIP3    H222573   4.648   0.452   4.773  0.3781  0.3559  1.0604
 7537TIP3   OH222574   4.928   3.768   0.433  0.5345 -0.0638 -0.0202
 7537TIP3    H122575   4.904   3.701   0.370 -0.1447  0.6720 -0.5673
 7537TIP3    H222576   4.938   3.721   0.516  1.3131 -1.0232 -0.6333
 7538TIP3   OH222577   7.068   0.060   3.762  0.1186  0.2997  0.1522
 7538TIP3    H122578   7.039   0.094   3.678  1.5090  1.3320  0.0633
 7538TIP3    H222579   7.004  -0.008   3.783 -0.1359 -0.1411 -1.8350
 7539TIP3   OH222580   2.688   3.204   0.572 -0.5145  0.2820 -0.0037
 7539TIP3    H122581   2.640   3.264   0.516  0.9953  1.1108 -0.4617
 7539TIP3    H222582   2.723   3.259   0.642 -2.3049 -0.7201  1.7705
 7540TIP3   OH222583   5.559   6.358   0.304  0.5610  0.2181  0.4964
 7540TIP3    H122584   5.573   6.401   0.388  0.4637  0.7140  0.2641
 7540TIP3    H222585   5.477   6.310   0.315  0.6678  0.0937  0.7558
 7541TIP3   OH222586   6.078   0.089   0.472 -0.2069  0.0224 -0.0638
 7541TIP3    H122587   6.138   0.094   0.546  0.2857 -1.9649 -0.2695
 7541TIP3    H222588   6.134   0.081   0.395 -0.6553 -1.9384 -0.2531
 7542TIP3   OH222589   0.372   0.744   3.734  0.2832 -0.3077  0.2099
 7542TIP3    H122590   0.279   0.719   3.733  0.3563 -0.7710  1.9690
 7542TIP3    H222591   0.411   0.687   3.801  1.8147 -0.0099 -0.3959
 7543TIP3   OH222592   3.140   5.400   1.048 -0.6756 -0.2621 -0.3102
 7543TIP3    H122593   3.131   5.387   1.143  0.6868  1.2364  0.0655
 7543TIP3    H222594   3.121   5.493   1.035  0.1177 -0.2312 -1.3490
 7544TIP3   OH222595   2.320   5.943   5.413  0.0699  0.7215  0.1545
 7544TIP3    H122596   2.280   5.892   5.343 -1.6694 -0.7670  2.1162
 7544TIP3    H222597   2.393   5.889   5.443 -0.1670  0.6078  0.5263
 7545TIP3   OH222598   6.560   0.838   3.558 -0.1312 -0.1840  0.0306
 7545TIP3    H122599   6.629   0.876   3.613 -1.3075  1.6585  0.3324
 7545TIP3    H222600   6.605   0.813   3.478  0.9700  0.6556  0.3546
 7546TIP3   OH222601   3.805   5.431   1.236 -0.1660  0.2829  0.2700
 7546TIP3    H122602   3.798   5.414   1.142  0.6030  0.4194  0.1855
 7546TIP3    H222603   3.897   5.455   1.250 -0.0591 -0.6172  1.2048
 7547TIP3   OH222604   1.828   0.248   5.215 -0.0061 -0.2552  0.1309
 7547TIP3    H122605   1.782   0.165   5.200  0.9035 -0.9866  1.2063
 7547TIP3    H222606   1.897   0.226   5.278 -0.0039  1.4073  0.7628
 7548TIP3   OH222607   6.804   0.051   1.733 -0.3784  0.2428  0.8803
 7548TIP3    H122608   6.814   0.042   1.827 -1.2585 -0.8271  0.8950
 7548TIP3    H222609   6.714   0.079   1.720 -1.5518 -3.2220  0.2877
 7549TIP3   OH222610   5.117   5.935   5.174 -0.0454  0.4421 -0.1372
 7549TIP3    H122611   5.070   5.962   5.253 -0.1041 -1.2542  0.4568
 7549TIP3    H222612   5.168   6.012   5.149 -1.1825  1.4974  0.6704
 7550TIP3   OH222613   6.044   5.094   0.689 -0.0207  0.0023 -0.2494
 7550TIP3    H122614   6.074   5.004   0.686  1.0345  0.3478 -0.7170
 7550TIP3    H222615   5.964   5.095   0.636 -0.1548 -0.6952 -0.0591
 7551TIP3   OH222616   5.517   2.903   1.608 -0.0111  0.5696 -0.2656
 7551TIP3    H122617   5.602   2.924   1.648 -0.8896  0.0456  1.9772
 7551TIP3    H222618   5.454   2.954   1.658 -1.2071 -0.3223 -0.8253
 7552TIP3   OH222619   4.245   6.129   2.502 -0.1315 -0.1227 -0.5749
 7552TIP3    H122620   4.159   6.109   2.467 -1.2130 -0.0715  1.8201
 7552TIP3    H222621   4.292   6.046   2.498 -0.8733 -0.5631 -0.4240
 7553TIP3   OH222622   4.637   5.021   4.006  0.1912 -0.0166  0.3334
 7553TIP3    H122623   4.696   4.947   4.020  1.0560  0.7342  0.8313
 7553TIP3    H222624   4.583   5.024   4.085  0.0643 -0.2015  0.2525
 7554TIP3   OH222625   2.924   2.061   3.797  0.2442 -0.2701 -0.1834
 7554TIP3    H122626   2.974   2.120   3.854  1.2047 -0.7341 -0.5226
 7554TIP3    H222627   2.944   2.091   3.708 -0.2926 -0.2983 -0.3143
 7555TIP3   OH222628   0.798   1.733   4.735  0.3379  0.7076  0.0355
 7555TIP3    H122629   0.830   1.646   4.710 -2.5001 -0.8610  1.4137
 7555TIP3    H222630   0.824   1.742   4.827  0.7574  1.4301 -0.1436
 7556TIP3   OH222631   0.285   6.601   0.504  0.1315 -0.2855 -0.6414
 7556TIP3    H122632   0.254   6.686   0.473 -0.2974 -0.2275 -0.0756
 7556TIP3    H222633   0.370   6.589   0.462  0.1682  0.3973 -0.7684
 7557TIP3   OH222634   1.845   1.996   1.228  0.2424 -0.0261  0.3084
 7557TIP3    H122635   1.795   1.996   1.147  0.7138 -0.2255  0.0133
 7557TIP3    H222636   1.780   2.005   1.297 -0.2397 -0.7313 -0.0461
 7558TIP3   OH222637   1.311   5.414   2.173 -0.3367  0.1598 -0.0248
 7558TIP3    H122638   1.367   5.397   2.249 -0.4273  1.0595  0.2544
 7558TIP3    H222639   1.233   5.360   2.188 -0.6917  0.9089  0.9191
 7559TIP3   OH222640   0.299   6.627   1.310  0.8710  0.0387  0.1143
 7559TIP3    H122641   0.281   6.665   1.396  0.5040 -0.4352  0.2468
 7559TIP3    H222642   0.213   6.611   1.272  0.8494 -4.0620  1.5251
 7560TIP3   OH222643   6.073   1.827   5.143  0.7008 -0.4266 -0.4535
 7560TIP3    H122644   6.168   1.820   5.146  0.7342  0.2216  2.1240
 7560TIP3    H222645   6.043   1.799   5.230 -1.3791  0.4866 -0.7967
 7561TIP3   OH222646   0.437   1.819   5.071 -0.3375 -0.0069  0.6735
 7561TIP3    H122647   0.375   1.883   5.106  0.7838 -0.0552  2.9521
 7561TIP3    H222648   0.476   1.779   5.149  1.8682 -0.6387 -0.6736
 7562TIP3   OH222649   0.215   1.786   3.945 -0.2959 -0.8913 -0.3216
 7562TIP3    H122650   0.298   1.742   3.927  0.5987  0.2203  0.8730
 7562TIP3    H222651   0.240   1.866   3.991 -2.0823 -1.0039  0.9471
 7563TIP3   OH222652   4.600   2.606   5.236  0.1217  0.7620  0.0743
 7563TIP3    H122653   4.639   2.541   5.294 -0.6270 -0.7207 -1.0044
 7563TIP3    H222654   4.675   2.651   5.196  0.6378  1.4730  1.7700
 7564TIP3   OH222655   1.081   1.772   2.334 -0.4654  0.7329  0.4377
 7564TIP3    H122656   1.112   1.799   2.247  1.8181  0.9976  1.2686
 7564TIP3    H222657   1.008   1.832   2.353  1.4474  3.2940  0.2569
 7565TIP3   OH222658   0.915   1.546   2.466  0.2047  0.3722  0.3886
 7565TIP3    H122659   0.895   1.565   2.558 -0.0485  2.6075 -0.0720
 7565TIP3    H222660   0.829   1.536   2.425  0.2950  0.2161  0.2389
 7566TIP3   OH222661   2.152   1.398   3.781  0.2180  0.0885 -0.2889
 7566TIP3    H122662   2.081   1.404   3.844  0.3456  1.4289 -0.2328
 7566TIP3    H222663   2.226   1.440   3.824  0.8723 -0.7119 -0.5949
 7567TIP3   OH222664   2.784   4.490   4.849  0.1793  0.0685 -0.3761
 7567TIP3    H122665   2.844   4.444   4.790  0.1099  0.4247 -0.7253
 7567TIP3    H222666   2.813   4.464   4.937  2.5920  2.2807 -0.3833
 7568TIP3   OH222667   0.390   4.694   2.792  0.1280  0.3504 -0.2707
 7568TIP3    H122668   0.477   4.712   2.756  0.5046  0.5381  0.6886
 7568TIP3    H222669   0.362   4.614   2.747  1.6781 -0.8905  0.8066
 7569TIP3   OH222670   0.682   0.570   2.163  0.1951  0.0640 -0.4730
 7569TIP3    H122671   0.776   0.563   2.144  0.4729  0.5374  0.6732
 7569TIP3    H222672   0.675   0.557   2.257 -0.8085  0.7623 -0.4310
 7570TIP3   OH222673   5.529   5.117   0.283  0.2412  0.0952  0.6111
 7570TIP3    H122674   5.492   5.199   0.251  1.2912 -0.1795 -1.5208
 7570TIP3    H222675   5.461   5.052   0.266  0.0666  0.2511  0.7081
 7571TIP3   OH222676   2.286   4.574   3.382  0.2629  0.9725 -0.5767
 7571TIP3    H122677   2.234   4.562   3.461  1.0099  3.1002  0.3138
 7571TIP3    H222678   2.224   4.559   3.310  0.6333 -6.6176 -0.0951
 7572TIP3   OH222679   1.461   3.567   2.921 -0.0812  0.2515 -0.3503
 7572TIP3    H122680   1.385   3.625   2.919 -0.2221  0.0514 -1.3617
 7572TIP3    H222681   1.536   3.626   2.907 -0.0216  0.4779  0.8688
 7573TIP3   OH222682   4.964   4.430   5.681 -0.1945  0.2134 -0.0648
 7573TIP3    H122683   5.058   4.448   5.685 -0.1745 -0.0665  2.0530
 7573TIP3    H222684   4.958   4.335   5.686 -0.5976  0.2912  1.2580
 7574TIP3   OH222685   2.121   6.801   0.395  0.2280  0.5687  0.5429
 7574TIP3    H122686   2.035   6.775   0.362  0.4117 -0.2124  0.6667
 7574TIP3    H222687   2.152   6.725   0.444  1.4404  0.4387 -0.3814
 7575TIP3   OH222688   5.051   4.320   1.130 -0.4051  0.4174  0.0459
 7575TIP3    H122689   5.023   4.348   1.043  1.3627 -1.6828 -1.3188
 7575TIP3    H222690   5.028   4.227   1.134  0.3745  0.2541  1.4424
 7576TIP3   OH222691   2.929   0.249   3.196  0.1041 -0.4796  0.2188
 7576TIP3    H122692   2.999   0.184   3.192  1.2222  0.6999 -0.0130
 7576TIP3    H222693   2.941   0.302   3.118 -1.1047 -0.2798  0.1491
 7577TIP3   OH222694   5.485   4.377   4.093 -0.7064 -0.2005 -0.1587
 7577TIP3    H122695   5.452   4.290   4.071 -0.6286  0.1241 -1.6868
 7577TIP3    H222696   5.406   4.431   4.100 -0.9277 -0.7043  2.6821
 7578TIP3   OH222697   5.526   5.272   1.993 -0.1122  0.4673 -0.2416
 7578TIP3    H122698   5.476   5.190   1.988  0.0355  0.2134  1.6211
 7578TIP3    H222699   5.612   5.249   1.957 -0.1620 -0.1428  0.0075
 7579TIP3   OH222700   0.775   2.741   0.287 -0.9377 -0.4169  0.1314
 7579TIP3    H122701   0.802   2.662   0.334 -0.4115  0.3082  1.0978
 7579TIP3    H222702   0.766   2.713   0.196 -0.5444 -1.5373  0.4185
 7580TIP3   OH222703   3.819   2.174   2.752 -0.4581 -0.5252  0.6689
 7580TIP3    H122704   3.814   2.078   2.753 -1.4862 -0.4975  0.1136
 7580TIP3    H222705   3.909   2.194   2.727 -0.7390 -1.3672 -1.1511
 7581TIP3   OH222706   1.971   1.754   1.135 -0.0654 -0.4990  0.2681
 7581TIP3    H122707   1.910   1.826   1.154 -0.0730  0.1846 -2.0490
 7581TIP3    H222708   2.057   1.790   1.156  0.0769  0.7912 -2.1741
 7582TIP3   OH222709   6.366   5.728   4.657  0.3406  0.1058  0.0636
 7582TIP3    H122710   6.309   5.652   4.645 -1.6527  1.3566  1.0331
 7582TIP3    H222711   6.355   5.752   4.749  1.1622  1.3890 -0.1399
 7583TIP3   OH222712   6.850   4.260   3.076 -0.1975 -0.7507  0.3711
 7583TIP3    H122713   6.933   4.260   3.125 -0.3412 -1.0391  0.6237
 7583TIP3    H222714   6.846   4.346   3.036 -0.5243 -0.1459  1.6438
 7584TIP3   OH222715   2.613   1.675   1.027 -0.0256  0.7491 -0.2112
 7584TIP3    H122716   2.613   1.649   1.119 -0.9140  1.2968 -0.0444
 7584TIP3    H222717   2.681   1.743   1.021 -0.0569  0.8043  0.0600
 7585TIP3   OH222718   0.981   0.695   0.077 -0.1328 -0.0186 -0.8391
 7585TIP3    H122719   1.021   0.674  -0.008 -0.7811  0.0352 -1.1658
 7585TIP3    H222720   0.936   0.778   0.062 -0.5115 -0.1682 -0.5254
 7586TIP3   OH222721   2.750   0.070   0.664  0.2898 -0.1454 -0.0052
 7586TIP3    H122722   2.800   0.056   0.584  0.0862 -0.4299 -0.0866
 7586TIP3    H222723   2.680   0.130   0.639  0.0420 -0.4772 -0.1193
 7587TIP3   OH222724   6.028   3.085   3.089  0.2838  0.6523  0.4454
 7587TIP3    H122725   6.072   3.010   3.128 -0.5745 -1.3934 -2.2045
 7587TIP3    H222726   5.946   3.093   3.138  0.4222 -0.1122  0.8172
 7588TIP3   OH222727   4.140   4.894   1.833  0.4684  0.1307  0.2177
 7588TIP3    H122728   4.176   4.806   1.823  0.6276  0.3738 -1.7364
 7588TIP3    H222729   4.217   4.952   1.831  0.2162  0.6128 -3.4911
 7589TIP3   OH222730   6.542   4.426   1.301  0.3389 -0.3680 -0.2471
 7589TIP3    H122731   6.598   4.365   1.348 -0.7470 -0.8005  0.5418
 7589TIP3    H222732   6.498   4.476   1.370 -0.9810 -0.7256 -0.7932
 7590TIP3   OH222733   2.095   4.667   3.618  0.0148  0.5753  0.0026
 7590TIP3    H122734   2.102   4.736   3.553 -0.6233 -0.2735 -0.9981
 7590TIP3    H222735   2.009   4.681   3.659 -0.2235  0.2492 -0.3727
 7591TIP3   OH222736   4.159   4.060   1.156 -0.0787  0.1288 -0.1738
 7591TIP3    H122737   4.174   3.984   1.212 -0.5841  0.4138  0.3606
 7591TIP3    H222738   4.135   4.024   1.071 -0.8315 -0.3063  0.2208
 7592TIP3   OH222739   0.258   0.875   0.356 -0.0279 -0.3450  0.0856
 7592TIP3    H122740   0.353   0.878   0.346 -0.0992  0.0138 -0.5238
 7592TIP3    H222741   0.244   0.862   0.450  0.6388 -1.7414  0.0110
 7593TIP3   OH222742   4.714   3.944   2.523  0.4466  0.4122  0.0432
 7593TIP3    H122743   4.657   3.871   2.498 -0.2845  0.7378  0.7194
 7593TIP3    H222744   4.687   4.016   2.467  1.9934 -0.1237 -1.5015
 7594TIP3   OH222745   5.694   6.395   2.062  0.1306  0.3081 -0.3809
 7594TIP3    H122746   5.710   6.470   2.004  2.0955  0.9465  0.8688
 7594TIP3    H222747   5.686   6.434   2.149 -0.4164 -0.8183  0.0940
 7595TIP3   OH222748   1.545   2.575   0.546  0.9369 -0.1175 -0.6813
 7595TIP3    H122749   1.508   2.649   0.498 -1.3059 -0.0070  1.0424
 7595TIP3    H222750   1.621   2.611   0.592  0.0177  1.0850 -0.0641
 7596TIP3   OH222751   3.243   2.245   3.295  0.3427 -0.5305  0.6028
 7596TIP3    H122752   3.193   2.323   3.321 -0.2950 -0.1254 -1.6131
 7596TIP3    H222753   3.196   2.172   3.336 -0.5605  0.0560  0.6565
 7597TIP3   OH222754   3.451   4.625   4.118 -0.2776  0.1871  0.5020
 7597TIP3    H122755   3.397   4.684   4.170  1.6653  2.8071 -0.2321
 7597TIP3    H222756   3.391   4.587   4.054 -1.4607  2.3675  0.2123
 7598TIP3   OH222757   2.945   0.287   5.832  0.2556  0.2445  0.1017
 7598TIP3    H122758   2.995   0.359   5.871  0.6341  0.5896 -1.0079
 7598TIP3    H222759   2.944   0.220   5.900  1.0002  0.7944  0.6732
 7599TIP3   OH222760   0.137   0.469   3.463  0.4436  0.4164  0.7292
 7599TIP3    H122761   0.076   0.438   3.530 -0.5234  2.4323  0.8445
 7599TIP3    H222762   0.184   0.541   3.505  1.3452  0.3251 -0.0961
 7600TIP3   OH222763   3.607   5.911   1.995 -0.3308 -0.1309  0.0054
 7600TIP3    H122764   3.684   5.883   2.045 -1.4815  0.8475  2.4762
 7600TIP3    H222765   3.534   5.866   2.036 -1.4511  1.4869 -0.1433
 7601TIP3   OH222766   6.581   3.837   1.720 -0.1607  0.9938  0.4707
 7601TIP3    H122767   6.613   3.925   1.700 -2.2153  1.6089 -0.3977
 7601TIP3    H222768   6.487   3.849   1.737 -0.2565 -0.8700  1.5198
 7602TIP3   OH222769   2.624   6.349   4.758  0.0308  0.3145 -0.1100
 7602TIP3    H122770   2.589   6.424   4.711  0.9795  0.2564 -0.9523
 7602TIP3    H222771   2.611   6.370   4.851 -0.0441  1.3501 -0.3427
 7603TIP3   OH222772   2.986   0.423   3.003  0.2608  0.0971 -0.0504
 7603TIP3    H122773   2.960   0.513   2.982  0.7526  0.4361  0.7691
 7603TIP3    H222774   3.050   0.400   2.936  0.7258  0.6472  0.1952
 7604TIP3   OH222775   1.480   0.512   0.446  0.8357  0.7588 -0.0207
 7604TIP3    H122776   1.554   0.516   0.506  0.9235 -1.3217  0.0924
 7604TIP3    H222777   1.516   0.473   0.366 -0.1104 -0.4357  0.0917
 7605TIP3   OH222778   5.511   6.059   1.135  0.3252  0.1360  0.0765
 7605TIP3    H122779   5.466   5.995   1.080  0.0468 -0.9942  1.5572
 7605TIP3    H222780   5.580   6.008   1.178  0.1741  0.8580  1.1952
 7606TIP3   OH222781  -0.005   4.897   5.293  0.4005 -0.0977  0.0018
 7606TIP3    H122782  -0.037   4.861   5.376  0.4377  1.6547  0.8123
 7606TIP3    H222783   0.075   4.944   5.315 -0.5201  1.9153 -0.6504
 7607TIP3   OH222784   1.507   4.273   2.363 -0.1281 -0.1940 -0.3626
 7607TIP3    H122785   1.570   4.202   2.362  0.5604  0.3629 -2.2829
 7607TIP3    H222786   1.477   4.279   2.453  1.5946 -1.3262  0.3177
 7608TIP3   OH222787   4.891   3.731   3.358  0.4079  0.0846  0.0245
 7608TIP3    H122788   4.960   3.739   3.423  0.6985  0.9216 -0.3671
 7608TIP3    H222789   4.933   3.687   3.284  0.0277 -1.0386  0.4551
 7609TIP3   OH222790   5.800   1.416   3.437 -0.3767  0.0765 -0.5375
 7609TIP3    H122791   5.858   1.396   3.510 -0.7172 -0.4007 -0.3900
 7609TIP3    H222792   5.806   1.339   3.381 -1.1692 -0.1487 -0.3212
 7610TIP3   OH222793   3.419   3.766   5.873  0.2929 -0.1980 -0.1749
 7610TIP3    H122794   3.420   3.737   5.782 -1.4458 -0.5899 -0.0892
 7610TIP3    H222795   3.327   3.781   5.893  0.7782  1.4731  1.0364
 7611TIP3   OH222796   5.024   4.379   2.673 -0.1041 -0.5520 -1.2447
 7611TIP3    H122797   5.020   4.347   2.763 -0.5531  0.7290 -0.7856
 7611TIP3    H222798   4.942   4.351   2.634  0.0097 -0.9470 -1.2048
 7612TIP3   OH222799   5.760   0.007   5.458 -0.2373  0.1917  0.4085
 7612TIP3    H122800   5.820  -0.060   5.425 -2.4147 -1.2647 -0.8163
 7612TIP3    H222801   5.814   0.086   5.465  1.7272 -0.9486 -0.9234
 7613TIP3   OH222802   5.735   4.373   2.090 -0.2833  0.2871 -0.2378
 7613TIP3    H122803   5.801   4.368   2.021  0.6031  0.6698  0.5547
 7613TIP3    H222804   5.660   4.324   2.056  0.1993  0.3289 -1.3901
 7614TIP3   OH222805   4.866   6.412   4.753  0.0664  0.1209  0.6222
 7614TIP3    H122806   4.937   6.459   4.708 -1.3000  0.6321 -1.1018
 7614TIP3    H222807   4.816   6.480   4.798 -0.0441 -0.0815  0.8089
 7615TIP3   OH222808   2.577   0.087   4.337 -0.0820 -0.4796 -0.0560
 7615TIP3    H122809   2.571   0.158   4.401  1.4972  0.2290 -0.6423
 7615TIP3    H222810   2.640   0.025   4.376 -2.3530 -2.2508  1.0278
 7616TIP3   OH222811   7.168   2.779   4.312 -0.4502  0.2159  0.2012
 7616TIP3    H122812   7.194   2.687   4.325  0.0671  0.5133  1.3605
 7616TIP3    H222813   7.073   2.775   4.302 -0.5549 -0.3541  1.3010
 7617TIP3   OH222814   3.405   4.590   3.174  0.1759 -0.4849 -0.0438
 7617TIP3    H122815   3.325   4.579   3.225  1.2275 -1.8924  1.3810
 7617TIP3    H222816   3.452   4.662   3.217 -1.3200  2.0907 -2.3394
 7618TIP3   OH222817   0.976   0.683   3.199 -0.4789 -0.2116  0.6131
 7618TIP3    H122818   0.962   0.773   3.169 -2.2614 -1.0846 -1.4392
 7618TIP3    H222819   1.044   0.649   3.141 -1.0179 -0.6779  0.2433
 7619TIP3   OH222820   2.256   3.749   0.111 -0.7091 -0.1150 -0.4170
 7619TIP3    H122821   2.278   3.837   0.081  0.6244 -0.3063 -0.0719
 7619TIP3    H222822   2.221   3.763   0.199  0.5457  0.0139  0.0920
 7620TIP3   OH222823   4.199   2.458   4.859 -0.2892 -0.0729  0.1468
 7620TIP3    H122824   4.223   2.482   4.949  1.0716 -0.3177 -0.1221
 7620TIP3    H222825   4.244   2.522   4.804 -0.4050 -0.4393 -0.3878
 7621TIP3   OH222826   4.684   4.706   0.456 -0.3091 -0.0365  0.1422
 7621TIP3    H122827   4.699   4.635   0.394  0.9304  0.7236 -0.4589
 7621TIP3    H222828   4.611   4.756   0.419  0.3228  0.3209 -0.6318
 7622TIP3   OH222829   4.753   0.555   5.496  0.5402 -0.0102  0.2129
 7622TIP3    H122830   4.772   0.467   5.528  0.0412 -0.0030  0.5322
 7622TIP3    H222831   4.839   0.597   5.490  0.5889  0.3855  2.6886
 7623TIP3   OH222832   3.010   3.654   0.052 -0.4357  0.7676 -0.0338
 7623TIP3    H122833   2.931   3.632   0.101 -1.0805 -2.8451 -2.3039
 7623TIP3    H222834   3.082   3.617   0.103 -0.7367  0.0144 -0.1429
 7624TIP3   OH222835   4.842   6.052   3.255  0.3991  0.1492  0.2514
 7624TIP3    H122836   4.870   5.996   3.183 -1.8412  0.8967 -1.3292
 7624TIP3    H222837   4.814   6.133   3.213 -0.6648  0.7497  1.9948
 7625TIP3   OH222838   5.679   5.944   1.759 -0.2855 -0.8157 -0.4782
 7625TIP3    H122839   5.738   5.871   1.740 -1.4881 -1.1057 -3.9261
 7625TIP3    H222840   5.606   5.905   1.807  0.7604 -1.0873  0.9438
 7626TIP3   OH222841   4.175   0.150   4.275 -0.2194 -0.3910 -0.2322
 7626TIP3    H122842   4.147   0.060   4.256  0.9685 -0.9398  0.4254
 7626TIP3    H222843   4.192   0.189   4.189  1.5493 -1.6123 -0.4957
 7627TIP3   OH222844   0.970   0.984   4.608 -0.4962  0.4580 -0.7059
 7627TIP3    H122845   1.010   1.056   4.560  0.9536 -0.6560 -1.2495
 7627TIP3    H222846   0.979   0.909   4.550  0.4132 -0.7227  0.8684
 7628TIP3   OH222847   0.604   5.551   1.035 -0.2150 -0.8564 -0.1685
 7628TIP3    H122848   0.615   5.475   1.091 -0.6487 -1.1275 -0.4500
 7628TIP3    H222849   0.510   5.560   1.023 -0.2397  0.3701  0.7278
 7629TIP3   OH222850   6.785   6.134   2.006  0.0782 -0.5095 -0.4490
 7629TIP3    H122851   6.832   6.150   1.924  0.8629 -1.9968 -0.3083
 7629TIP3    H222852   6.838   6.070   2.053 -1.5127 -1.3731  0.2366
 7630TIP3   OH222853   0.392   4.397   2.689  0.3016  0.1340 -0.0727
 7630TIP3    H122854   0.399   4.394   2.594  3.7520  0.1627  0.0525
 7630TIP3    H222855   0.437   4.318   2.718 -0.5810  0.1947  1.5738
 7631TIP3   OH222856   3.508   0.533   0.600  0.6563 -0.0946 -0.5443
 7631TIP3    H122857   3.502   0.462   0.665 -1.9994  0.1317 -0.4043
 7631TIP3    H222858   3.554   0.603   0.646  1.1626 -0.8750  0.1721
 7632TIP3   OH222859   6.945   0.453   1.191  0.2972 -0.2373 -0.6451
 7632TIP3    H122860   6.893   0.465   1.271  0.2483  0.1188 -0.7282
 7632TIP3    H222861   6.888   0.483   1.121  0.1779 -0.9594 -0.8677
 7633TIP3   OH222862   2.305   5.340   1.611 -0.3331 -0.2616 -0.3146
 7633TIP3    H122863   2.224   5.343   1.663  1.4789 -1.0521  2.8639
 7633TIP3    H222864   2.295   5.263   1.556 -2.0369  0.1277 -0.6304
 7634TIP3   OH222865   7.069   4.180   3.456  0.1491  0.9059  0.1562
 7634TIP3    H122866   6.978   4.159   3.476 -0.1827 -0.1411 -2.0906
 7634TIP3    H222867   7.064   4.245   3.386  1.1531  1.6123  0.7111
 7635TIP3   OH222868   3.953   6.422   3.968  0.0962  0.4117  0.1978
 7635TIP3    H122869   3.934   6.497   3.911 -2.3891  0.1166  0.5312
 7635TIP3    H222870   3.976   6.461   4.052  0.6208  0.8205 -0.1317
 7636TIP3   OH222871   2.535   3.556   4.813 -0.1137  0.2051  0.3116
 7636TIP3    H122872   2.459   3.499   4.807 -0.4972  0.7959 -1.0985
 7636TIP3    H222873   2.593   3.526   4.743  0.2822  0.6788  0.4280
 7637TIP3   OH222874   7.021   6.600   2.083  0.4213 -0.1635 -0.1130
 7637TIP3    H122875   7.089   6.596   2.150  0.1323  2.4226  0.4220
 7637TIP3    H222876   6.940   6.575   2.128  0.6204 -0.9529 -0.1760
 7638TIP3   OH222877   0.209   0.397   0.546  0.5339 -0.1239 -0.1122
 7638TIP3    H122878   0.240   0.469   0.492 -1.1046  0.0908 -0.8353
 7638TIP3    H222879   0.252   0.409   0.630  0.4787  1.5668 -0.2971
 7639TIP3   OH222880   0.392   1.211   1.715 -0.1728  0.2997 -0.1767
 7639TIP3    H122881   0.376   1.259   1.634  0.7718  0.9872  0.0294
 7639TIP3    H222882   0.354   1.266   1.784 -2.7334 -1.1872 -0.2712
 7640TIP3   OH222883   5.549   3.309   4.313 -0.0681  0.4580 -0.4206
 7640TIP3    H122884   5.467   3.357   4.326  0.3425  0.7462  1.3153
 7640TIP3    H222885   5.614   3.358   4.363  0.5453 -1.3682  0.6998
 7641TIP3   OH222886   6.065   2.346   3.359  0.0377 -0.1948 -0.3040
 7641TIP3    H122887   5.972   2.356   3.338 -0.1670 -2.3718 -0.5893
 7641TIP3    H222888   6.067   2.327   3.453  0.2376  0.1594 -0.2326
 7642TIP3   OH222889   0.325   2.180   2.024  0.1401  0.4488 -0.4033
 7642TIP3    H122890   0.304   2.088   2.009 -1.0312  0.3949  1.3287
 7642TIP3    H222891   0.374   2.180   2.106 -0.4013  1.4119 -0.0640
 7643TIP3   OH222892   6.500   5.312   3.075 -0.3686  0.2799 -0.0984
 7643TIP3    H122893   6.532   5.379   3.016  1.3697  0.6777  1.2386
 7643TIP3    H222894   6.547   5.326   3.157  0.0871 -2.5532  0.2432
 7644TIP3   OH222895   2.607   6.047   1.662  0.2806 -0.0341 -0.5291
 7644TIP3    H122896   2.551   5.973   1.640 -0.8453  0.9557 -1.1333
 7644TIP3    H222897   2.596   6.108   1.588  0.4009  1.1492  0.3882
 7645TIP3   OH222898   3.384   5.811   4.506  0.2367  0.1979  0.1303
 7645TIP3    H122899   3.331   5.886   4.531 -0.8695 -0.3147 -0.6024
 7645TIP3    H222900   3.323   5.750   4.465  1.4446 -0.2502 -1.1161
 7646TIP3   OH222901   6.202   3.748   5.010  0.8393  0.1986 -0.1426
 7646TIP3    H122902   6.149   3.815   4.966  0.3453  0.4285  0.7686
 7646TIP3    H222903   6.197   3.672   4.953 -0.7661  0.1116  0.0784
 7647TIP3   OH222904   0.900   2.820   5.062 -0.2103  0.2057 -0.1946
 7647TIP3    H122905   0.858   2.906   5.058  0.3323  0.4913  0.1493
 7647TIP3    H222906   0.827   2.758   5.058 -0.6455  0.6883  0.0392
 7648TIP3   OH222907   3.714   5.301   2.046 -0.1099 -0.2780  0.1836
 7648TIP3    H122908   3.788   5.339   1.999  0.1424 -0.6670  0.2653
 7648TIP3    H222909   3.724   5.331   2.136  0.4362 -1.0343  0.3840
 7649TIP3   OH222910   1.480   1.361   4.501 -0.1995  0.2142 -0.4172
 7649TIP3    H122911   1.479   1.315   4.585 -2.3250 -2.3446 -1.6681
 7649TIP3    H222912   1.573   1.373   4.482  0.5115 -2.5945  0.6302
 7650TIP3   OH222913   0.268   2.508   4.551  0.5471 -0.0753  0.4204
 7650TIP3    H122914   0.287   2.461   4.470 -1.1429 -1.1112  0.5677
 7650TIP3    H222915   0.222   2.587   4.523  0.9633  0.1336  0.3187
 7651TIP3   OH222916   3.806   0.767   1.596  0.4842  0.4674  0.1524
 7651TIP3    H122917   3.839   0.678   1.595  0.2304  0.3730 -0.6017
 7651TIP3    H222918   3.870   0.817   1.546  0.5721  0.6918  0.4846
 7652TIP3   OH222919   0.539   2.854   0.328  0.4012  0.4820 -0.2263
 7652TIP3    H122920   0.634   2.845   0.323  0.2842 -0.3464 -1.3802
 7652TIP3    H222921   0.505   2.787   0.268 -0.9204  0.5205  0.4352
 7653TIP3   OH222922   4.886   1.078   4.176  0.6083  0.1493 -0.2837
 7653TIP3    H122923   4.936   1.023   4.116 -0.6279 -1.8411  0.4152
 7653TIP3    H222924   4.795   1.059   4.156  0.1597  0.4289  1.3471
 7654TIP3   OH222925   0.290   5.022   2.748 -0.2481  0.1762 -0.1075
 7654TIP3    H122926   0.382   5.035   2.771 -0.7329  0.6313  1.7042
 7654TIP3    H222927   0.268   5.098   2.694  0.6859 -0.4689 -1.4543
 7655TIP3   OH222928   4.597   3.632   3.702 -0.1146  0.1994 -0.4052
 7655TIP3    H122929   4.519   3.649   3.755 -0.6533  2.3180 -1.7513
 7655TIP3    H222930   4.563   3.601   3.618  0.4577  1.0311 -0.9656
 7656TIP3   OH222931   3.190   6.246   5.876  0.1658  0.7199 -0.5273
 7656TIP3    H122932   3.127   6.207   5.815 -0.3636 -1.6357  1.3548
 7656TIP3    H222933   3.137   6.297   5.937  0.2205 -0.0199  0.1579
 7657TIP3   OH222934   3.554   5.845   5.677 -0.1654 -0.3003 -0.1475
 7657TIP3    H122935   3.561   5.768   5.621  0.8083 -0.4368  0.1453
 7657TIP3    H222936   3.508   5.814   5.755  2.0478 -1.1405  0.8892
 7658TIP3   OH222937   3.489   3.382   4.410  0.2132  0.1658  1.1158
 7658TIP3    H122938   3.464   3.308   4.466 -1.4867  0.1744  0.4356
 7658TIP3    H222939   3.406   3.411   4.371  1.3965 -0.7399 -2.4797
 7659TIP3   OH222940   4.827   3.761   3.704 -0.3646 -0.3386 -0.4087
 7659TIP3    H122941   4.752   3.704   3.722 -1.9863  1.8779  0.1898
 7659TIP3    H222942   4.837   3.759   3.609 -3.7710  2.2896 -0.9964
 7660TIP3   OH222943   6.709   4.132   1.757 -0.5154  0.3559  0.3840
 7660TIP3    H122944   6.720   4.225   1.736 -0.7363  0.2559 -0.1921
 7660TIP3    H222945   6.760   4.119   1.837 -1.0786  1.1374  0.8882
 7661TIP3   OH222946   6.101   4.964   4.462  0.1528 -0.1278  0.5148
 7661TIP3    H122947   6.180   4.909   4.460  0.2216 -0.0289 -0.4451
 7661TIP3    H222948   6.029   4.903   4.472  0.0256 -0.7449 -2.7945
 7662TIP3   OH222949   3.866   0.100   1.531  0.6106 -0.3137 -0.5584
 7662TIP3    H122950   3.790   0.046   1.553  0.0249  1.0943  1.0982
 7662TIP3    H222951   3.932   0.075   1.595  0.2004  1.1224  0.4949
 7663TIP3   OH222952   6.552   1.440   4.099  0.0752  0.5434  0.2004
 7663TIP3    H122953   6.552   1.439   4.195 -1.1664 -0.3063  0.2215
 7663TIP3    H222954   6.577   1.351   4.074  0.8739  0.8983 -0.2781
 7664TIP3   OH222955   6.310   2.815   2.256  0.3344  0.1760  0.2220
 7664TIP3    H122956   6.323   2.857   2.341  0.8169 -0.5409  0.5124
 7664TIP3    H222957   6.219   2.788   2.256  0.0623  1.0451  0.1005
 7665TIP3   OH222958   2.507   1.026   3.695  0.5556 -0.1850  0.0346
 7665TIP3    H122959   2.494   0.966   3.622  1.4234 -0.1878 -0.1281
 7665TIP3    H222960   2.534   1.108   3.655  0.4143 -0.0002  0.3129
 7666TIP3   OH222961   3.651   4.637   0.787 -0.3294  0.2252  0.6491
 7666TIP3    H122962   3.659   4.596   0.701 -0.4157  1.7146 -0.1080
 7666TIP3    H222963   3.697   4.578   0.846 -0.3508 -0.8783 -0.3948
 7667TIP3   OH222964   0.594   4.473   1.178  0.2100  0.6065 -0.2725
 7667TIP3    H122965   0.552   4.538   1.123  1.7898  1.2815 -0.7409
 7667TIP3    H222966   0.677   4.513   1.205  1.0532 -1.0450 -0.2553
 7668TIP3   OH222967   2.423   3.217   3.229 -0.3798  0.2497  0.4739
 7668TIP3    H122968   2.364   3.210   3.154  0.1005  1.9553 -0.1148
 7668TIP3    H222969   2.489   3.149   3.214  0.3288  1.2513 -1.2603
 7669TIP3   OH222970   0.130   3.328   1.282  0.4678 -0.0287 -0.2683
 7669TIP3    H122971   0.059   3.297   1.338 -0.5074  1.1829 -0.7847
 7669TIP3    H222972   0.135   3.264   1.211 -1.0833  0.5876 -0.9829
 7670TIP3   OH222973   1.392   0.877   2.956 -0.0420  0.6769  0.7608
 7670TIP3    H122974   1.339   0.801   2.929 -0.9225  1.5080  0.0914
 7670TIP3    H222975   1.336   0.953   2.938  1.3494  1.5827  0.1408
 7671TIP3   OH222976   2.010   3.517   1.143 -0.1132 -0.7645  0.1036
 7671TIP3    H122977   2.017   3.503   1.238 -0.4002  0.7363  0.3747
 7671TIP3    H222978   1.987   3.609   1.134  2.1548 -0.2552 -1.4994
 7672TIP3   OH222979   7.208   5.745   3.065 -0.8569  0.1731 -0.3360
 7672TIP3    H122980   7.145   5.686   3.106  0.1431 -0.8805 -0.2690
 7672TIP3    H222981   7.273   5.687   3.025 -0.4433  1.2213 -1.2354
 7673TIP3   OH222982   6.588   1.160   4.059 -0.0120  0.3859 -0.3612
 7673TIP3    H122983   6.530   1.085   4.053 -0.2376  0.4479  0.7631
 7673TIP3    H222984   6.654   1.134   4.123  1.7188  0.0092 -2.2033
 7674TIP3   OH222985   6.199   1.529   5.806  0.1444 -0.7048 -0.1632
 7674TIP3    H122986   6.263   1.553   5.874 -1.3601 -0.8822  1.3905
 7674TIP3    H222987   6.233   1.570   5.726  1.0615  1.0733  1.0552
 7675TIP3   OH222988   0.151   2.865   1.161 -0.0767  0.0799  0.2790
 7675TIP3    H122989   0.235   2.833   1.192 -0.4784 -0.1899  1.1227
 7675TIP3    H222990   0.090   2.844   1.231 -0.8141  0.4480 -0.2362
 7676TIP3   OH222991   5.803   6.287   0.197 -0.1734  0.8905 -0.0162
 7676TIP3    H122992   5.719   6.331   0.210 -0.2827  1.0836 -1.2667
 7676TIP3    H222993   5.791   6.201   0.237 -0.4040  1.4875  1.2516
 7677TIP3   OH222994   4.302   5.683   3.366  0.0700  0.3945  0.0058
 7677TIP3    H122995   4.297   5.761   3.422  1.5407  1.4172 -1.2079
 7677TIP3    H222996   4.215   5.677   3.326 -0.7883  0.0370  1.8141
 7678TIP3   OH222997   3.713   2.396   2.397  0.1929  0.5176  0.5689
 7678TIP3    H122998   3.624   2.429   2.390 -0.0067 -0.0800  0.2061
 7678TIP3    H222999   3.733   2.400   2.490 -0.1675  0.7659  0.6369
 7679TIP3   OH223000   3.380   2.421   4.865  0.0772 -0.1050  0.1550
 7679TIP3    H123001   3.407   2.509   4.893 -0.5217 -0.2868  1.3486
 7679TIP3    H223002   3.335   2.436   4.782 -1.8291  1.0112  1.3027
 7680TIP3   OH223003   0.613   0.357   4.328  0.4404  0.0206  0.3047
 7680TIP3    H123004   0.595   0.357   4.234  0.7374  1.4579  0.2258
 7680TIP3    H223005   0.694   0.406   4.337  0.5960 -0.3994  1.2859
 7681TIP3   OH223006   1.802   0.069   2.062 -0.2879  0.0576  0.0310
 7681TIP3    H123007   1.743   0.097   1.991 -2.5484  0.3473  1.9109
 7681TIP3    H223008   1.779  -0.023   2.077  1.2066 -0.4362 -0.5152
 7682TIP3   OH223009   3.616   1.445   4.867 -0.1667  0.3226  0.5918
 7682TIP3    H123010   3.563   1.439   4.947 -1.9244  2.2047 -0.3468
 7682TIP3    H223011   3.569   1.394   4.802  0.9561 -0.7226  0.5673
 7683TIP3   OH223012   2.757   5.765   1.787  0.6468 -0.5802  0.9879
 7683TIP3    H123013   2.823   5.720   1.841 -1.4401 -3.4049  1.4294
 7683TIP3    H223014   2.698   5.805   1.851  0.2605 -0.7015  0.7077
 7684TIP3   OH223015   0.136   3.152   1.051  0.0581 -0.5621  0.0553
 7684TIP3    H123016   0.056   3.164   1.000 -0.6528 -1.8097  0.8284
 7684TIP3    H223017   0.154   3.058   1.046  1.4875 -0.3044 -0.1012
 7685TIP3   OH223018   4.691   2.224   3.732 -0.2481  0.3990  0.2023
 7685TIP3    H123019   4.741   2.217   3.650  0.7056  1.7527  0.6433
 7685TIP3    H223020   4.652   2.311   3.729  0.5553  0.8179  1.6049
 7686TIP3   OH223021   4.258   4.976   0.767  0.0710 -0.3097 -0.5626
 7686TIP3    H123022   4.174   5.015   0.789  0.2679 -0.1300 -0.1276
 7686TIP3    H223023   4.280   4.922   0.843  1.5670  1.6464  0.4947
 7687TIP3   OH223024   0.977   5.349   0.464 -0.3554 -0.3612  0.4368
 7687TIP3    H123025   0.887   5.344   0.497 -1.1748  1.5544 -1.3174
 7687TIP3    H223026   1.018   5.418   0.516 -1.4114  2.1003 -1.7672
 7688TIP3   OH223027   5.765   4.583   3.064 -0.4535 -0.2568 -0.7140
 7688TIP3    H123028   5.796   4.636   3.138 -0.7575  1.9752 -2.0977
 7688TIP3    H223029   5.810   4.499   3.074  0.2461  0.3115  1.4438
 7689TIP3   OH223030   1.925   5.893   3.052  0.3291  0.3162 -0.0752
 7689TIP3    H123031   1.855   5.896   3.118 -0.2211  1.0686 -0.6718
 7689TIP3    H223032   2.005   5.883   3.103 -0.0044  1.6557  0.7638
 7690TIP3   OH223033   5.194   4.794   5.668 -0.1756  0.3719  0.5710
 7690TIP3    H123034   5.187   4.725   5.734 -1.2492  0.0941  0.1800
 7690TIP3    H223035   5.104   4.818   5.648  0.1524  0.9186 -0.3061
 7691TIP3   OH223036   2.869   4.155   3.104  0.5061  0.3206  0.3718
 7691TIP3    H123037   2.795   4.201   3.065  0.5407 -0.4122 -0.6095
 7691TIP3    H223038   2.943   4.178   3.048  1.0702  1.1543  1.4207
 7692TIP3   OH223039   3.181   3.049   0.962 -0.3933 -0.0705  0.1480
 7692TIP3    H123040   3.169   3.142   0.978  1.4933  0.1547  0.5380
 7692TIP3    H223041   3.193   3.010   1.049  1.8151 -0.1482 -0.1275
 7693TIP3   OH223042   4.346   2.773   2.888 -0.2114  0.3197  0.2521
 7693TIP3    H123043   4.392   2.722   2.955  0.1077  1.1086  0.6507
 7693TIP3    H223044   4.253   2.757   2.905 -0.1134 -0.2052  0.3039
 7694TIP3   OH223045   3.751   4.449   3.219 -0.3459  0.2328  0.3218
 7694TIP3    H123046   3.794   4.534   3.211 -0.5933  0.2052 -1.7859
 7694TIP3    H223047   3.674   4.466   3.273  1.3785  0.5899  2.8470
 7695TIP3   OH223048   4.655   6.741   2.252  0.8475  0.3216  0.4151
 7695TIP3    H123049   4.621   6.665   2.300 -0.4962  0.2144 -0.6408
 7695TIP3    H223050   4.748   6.741   2.271  0.8964 -1.6497  0.3982
 7696TIP3   OH223051   3.662   0.894   1.789 -0.4819 -0.3387  0.3694
 7696TIP3    H123052   3.710   0.839   1.728 -2.0662 -0.8310 -0.5006
 7696TIP3    H223053   3.570   0.869   1.776 -1.1978  2.0159  0.4276
 7697TIP3   OH223054   6.930   4.869   3.866  0.1676 -0.2837 -0.0369
 7697TIP3    H123055   6.898   4.780   3.878  0.7667 -0.9362 -2.7292
 7697TIP3    H223056   7.008   4.860   3.811  1.1071  1.7989  0.8468
 7698TIP3   OH223057   1.807   0.502   2.700  0.2631 -0.2652  0.3475
 7698TIP3    H123058   1.875   0.486   2.634 -0.6752  0.1330 -0.7495
 7698TIP3    H223059   1.850   0.482   2.783  1.6374 -0.3089 -0.3321
 7699TIP3   OH223060   4.407   4.972   0.226 -0.3692 -0.1636  0.0170
 7699TIP3    H123061   4.329   4.966   0.280 -0.4463  0.6109  0.0069
 7699TIP3    H223062   4.460   5.040   0.267 -0.3815  0.3602 -0.8025
 7700TIP3   OH223063   6.127   6.749   1.157  0.3102 -0.3324 -0.0161
 7700TIP3    H123064   6.154   6.824   1.105 -1.7890  1.3163  1.1064
 7700TIP3    H223065   6.056   6.708   1.107  0.3936 -0.6159  0.0934
 7701TIP3   OH223066   0.292   3.740   5.171  1.0437  0.0476  0.3242
 7701TIP3    H123067   0.350   3.663   5.164 -0.7520 -1.5045  1.5804
 7701TIP3    H223068   0.209   3.711   5.134  0.8646  2.1052 -1.0649
 7702TIP3   OH223069   2.805   3.790   2.382 -0.5413 -0.0486  0.2712
 7702TIP3    H123070   2.881   3.810   2.436 -0.0769 -3.1579  0.9953
 7702TIP3    H223071   2.774   3.706   2.416 -3.3519  0.3462 -1.0464
 7703TIP3   OH223072   6.421   2.527   1.106 -0.3212  0.3094 -0.0074
 7703TIP3    H123073   6.396   2.617   1.084 -1.2148 -0.0989 -0.7180
 7703TIP3    H223074   6.505   2.514   1.061 -1.0453  0.2216 -1.3856
 7704TIP3   OH223075   2.548   0.245   0.585 -0.1688 -0.0362 -0.1509
 7704TIP3    H123076   2.466   0.262   0.631 -0.4591  1.2712 -1.0910
 7704TIP3    H223077   2.560   0.322   0.529  2.2626  0.3320  0.7682
 7705TIP3   OH223078   4.612   0.109   4.874  0.0097 -0.2112  0.2373
 7705TIP3    H123079   4.676   0.046   4.907 -0.9114 -1.1575  0.2493
 7705TIP3    H223080   4.527   0.070   4.895 -0.5819  1.1998  0.5519
 7706TIP3   OH223081   0.633   0.531   5.326 -0.2898  0.3916  0.2630
 7706TIP3    H123082   0.572   0.605   5.323  1.0016  1.4730 -0.4152
 7706TIP3    H223083   0.707   0.563   5.376 -0.6638 -1.2629  1.9888
 7707TIP3   OH223084   4.554   4.762   4.537 -1.0453  0.0725 -0.2048
 7707TIP3    H123085   4.530   4.689   4.593  0.0492  0.2368  0.5088
 7707TIP3    H223086   4.636   4.795   4.574 -1.3950  1.5201 -0.6424
 7708TIP3   OH223087   2.942   2.224   5.554  0.4416 -0.0520  0.4725
 7708TIP3    H123088   2.909   2.310   5.582 -0.0275  0.2863 -1.0328
 7708TIP3    H223089   3.037   2.229   5.568  0.1183 -0.5495  3.5802
 7709TIP3   OH223090   0.974   0.579   5.005 -0.6597  0.2051 -0.2428
 7709TIP3    H123091   0.977   0.543   5.094 -1.2013 -0.0348 -0.3222
 7709TIP3    H223092   1.006   0.508   4.949 -0.8411  0.1705 -0.3009
 7710TIP3   OH223093   4.361   6.386   1.431 -0.4178 -0.6115 -0.1908
 7710TIP3    H123094   4.453   6.408   1.413 -0.4737 -0.6897 -0.5908
 7710TIP3    H223095   4.311   6.440   1.371 -0.7037  0.3297  0.8724
 7711TIP3   OH223096   6.510   0.168   3.116  0.3414 -0.1058  0.0564
 7711TIP3    H123097   6.416   0.152   3.127  0.6682 -1.6059  0.9686
 7711TIP3    H223098   6.535   0.216   3.195  0.7569 -1.7555  0.9534
 7712TIP3   OH223099   3.960   2.599   5.515  0.2498  0.0025  0.5823
 7712TIP3    H123100   3.981   2.528   5.454 -0.1753  0.3100  0.0691
 7712TIP3    H223101   3.877   2.571   5.555  0.5014 -0.1739  0.9857
 7713TIP3   OH223102   1.460   4.207   3.637  0.8480  0.2208 -0.0558
 7713TIP3    H123103   1.422   4.248   3.714  1.9340  1.1263  0.0248
 7713TIP3    H223104   1.421   4.255   3.563  0.3867 -0.1375 -0.0475
 7714TIP3   OH223105   5.341   1.519   2.725  0.0528 -0.3212 -0.4428
 7714TIP3    H123106   5.432   1.549   2.726  0.2459 -0.9172  0.1829
 7714TIP3    H223107   5.313   1.533   2.634  1.5894 -2.4992 -1.3643
 7715TIP3   OH223108   3.763   3.419   1.386  0.0602 -0.2622 -0.0161
 7715TIP3    H123109   3.842   3.381   1.347  1.1413  0.4175  1.3828
 7715TIP3    H223110   3.789   3.440   1.476 -1.5601  0.5128  0.3154
 7716TIP3   OH223111   4.813   0.843   5.705  0.0903  0.0935  0.0340
 7716TIP3    H123112   4.891   0.792   5.684  0.1850  0.2409  0.0205
 7716TIP3    H223113   4.836   0.889   5.787  0.3305  0.7799 -0.4079
 7717TIP3   OH223114   2.773   4.967   4.387  0.0390 -0.0109 -0.7182
 7717TIP3    H123115   2.703   4.920   4.433 -0.5128 -0.3719 -1.8924
 7717TIP3    H223116   2.740   5.057   4.379 -0.2218 -0.1381 -1.1104
 7718TIP3   OH223117   0.285   1.066   2.984  0.2766  0.3518  0.3602
 7718TIP3    H123118   0.320   1.094   3.068 -0.7197 -0.3732  1.0382
 7718TIP3    H223119   0.192   1.088   2.988  0.4335  1.4109 -1.0366
 7719TIP3   OH223120   3.960   2.489   2.586 -0.2145 -0.5811 -0.0958
 7719TIP3    H123121   4.033   2.438   2.621  0.8221  0.7911 -0.2093
 7719TIP3    H223122   4.001   2.557   2.532 -1.5364  0.5972  0.3236
 7720TIP3   OH223123   2.707   1.743   5.271 -0.1163 -0.1752  0.0731
 7720TIP3    H123124   2.797   1.756   5.299 -0.5073 -0.2783  1.4801
 7720TIP3    H223125   2.658   1.812   5.317 -0.8550 -0.5808 -0.0871
 7721TIP3   OH223126   3.362   5.234   0.935  0.1748  0.2959  0.2984
 7721TIP3    H123127   3.300   5.301   0.962 -0.7733  0.0891 -1.2120
 7721TIP3    H223128   3.352   5.164   1.000  0.6355  1.2881  1.4595
 7722TIP3   OH223129   6.372   5.460   5.155  0.3691 -0.1885  0.4193
 7722TIP3    H123130   6.289   5.507   5.163  2.2378  3.2922  1.5479
 7722TIP3    H223131   6.375   5.406   5.234 -0.5228  0.1939  0.7426
 7723TIP3   OH223132   2.590   3.741   0.842 -0.7222  0.1267  0.8005
 7723TIP3    H123133   2.505   3.757   0.801 -0.3430  0.1232  0.0062
 7723TIP3    H223134   2.568   3.692   0.921 -1.3700 -1.0660 -0.0823
 7724TIP3   OH223135   6.682   5.364   2.027 -0.1702  0.1409  0.4005
 7724TIP3    H123136   6.723   5.424   1.965  0.5929 -0.5022  0.2508
 7724TIP3    H223137   6.593   5.352   1.995 -0.0988  0.6104  0.0202
 7725TIP3   OH223138   1.619   3.368   1.516 -0.2900 -0.0868 -0.2335
 7725TIP3    H123139   1.618   3.419   1.597 -0.4704  0.8985 -0.8396
 7725TIP3    H223140   1.705   3.326   1.515 -0.0481  0.3872  0.1560
 7726TIP3   OH223141   6.915   6.318   1.540  0.4514  0.6096  0.0175
 7726TIP3    H123142   6.887   6.253   1.475  1.0490 -0.7348  1.0615
 7726TIP3    H223143   6.942   6.394   1.488 -0.2561  0.0321 -1.2355
 7727TIP3   OH223144   4.494   4.520   1.786 -0.0612 -0.2198 -1.0314
 7727TIP3    H123145   4.520   4.431   1.763  0.7234 -0.3204  0.1325
 7727TIP3    H223146   4.439   4.509   1.864 -0.3562  0.2845 -1.1655
 7728TIP3   OH223147   4.060   5.766   2.739 -0.0924 -0.1605  0.7569
 7728TIP3    H123148   3.975   5.799   2.768  0.3256  0.3139  1.4839
 7728TIP3    H223149   4.121   5.794   2.808  0.3492 -2.1214  1.2176
 7729TIP3   OH223150   4.692   2.978   0.940  0.6984  0.4229 -0.1144
 7729TIP3    H123151   4.747   3.050   0.910  1.1408 -0.9824 -2.9767
 7729TIP3    H223152   4.678   2.924   0.862 -1.3667 -1.4695  1.4415
 7730TIP3   OH223153   0.458   4.523   5.669  0.2965  0.1924 -0.0113
 7730TIP3    H123154   0.391   4.463   5.700  2.1790 -2.4207 -0.6441
 7730TIP3    H223155   0.520   4.529   5.743 -0.3047  2.1388  0.3789
 7731TIP3   OH223156   0.730   2.420   4.547  0.2110  0.3220 -0.1939
 7731TIP3    H123157   0.802   2.453   4.493  1.0603 -0.0359  0.6791
 7731TIP3    H223158   0.685   2.499   4.578  2.3369  0.8110  2.0404
 7732TIP3   OH223159   5.890   4.673   0.544  0.4913  0.3113 -0.1326
 7732TIP3    H123160   5.917   4.748   0.492 -1.0240  0.8096 -0.2584
 7732TIP3    H223161   5.943   4.678   0.624  0.4367  1.5124 -0.1504
 7733TIP3   OH223162   0.454   4.502   4.665 -0.5814 -1.1279 -0.1506
 7733TIP3    H123163   0.466   4.572   4.601  2.3294 -1.2254  0.1717
 7733TIP3    H223164   0.429   4.426   4.613 -3.0916 -0.1006 -0.5776
 7734TIP3   OH223165   1.865   2.846   4.424  0.1860 -0.0598  0.0959
 7734TIP3    H123166   1.931   2.914   4.409  0.3747 -0.6848 -2.4523
 7734TIP3    H223167   1.888   2.777   4.362 -0.1121 -2.4190  2.4639
 7735TIP3   OH223168   4.456   2.545   1.918 -0.6781 -0.1772  0.3027
 7735TIP3    H123169   4.525   2.606   1.890  0.5028 -1.1371  1.0362
 7735TIP3    H223170   4.420   2.585   1.997  1.2085 -1.1362  1.7411
 7736TIP3   OH223171   3.413   4.441   1.825  0.2086 -0.2359  0.1012
 7736TIP3    H123172   3.322   4.443   1.795 -1.1870  1.4403  3.7528
 7736TIP3    H223173   3.443   4.531   1.817  0.6132 -0.2461  1.2335
 7737TIP3   OH223174   1.126   0.344   4.548 -0.0691  0.3566 -0.1132
 7737TIP3    H123175   1.191   0.308   4.608  0.7744 -1.4819 -2.0187
 7737TIP3    H223176   1.044   0.341   4.597  0.8205  0.3733  1.4523
 7738TIP3   OH223177   6.022   4.334   1.256 -0.2148  0.3149 -0.1088
 7738TIP3    H123178   6.093   4.393   1.228  0.8313 -0.3384  1.0625
 7738TIP3    H223179   6.019   4.267   1.187 -0.5279  1.0131 -0.7831
 7739TIP3   OH223180   3.128   1.041   1.814 -0.6633  0.6280  0.0593
 7739TIP3    H123181   3.044   1.074   1.782 -0.2338  2.0345  0.3445
 7739TIP3    H223182   3.106   0.999   1.898 -1.0043  1.4233  0.3746
 7740TIP3   OH223183   5.908   1.600   0.667  0.5367 -0.5165  0.2095
 7740TIP3    H123184   5.820   1.606   0.703 -0.4541 -2.0582 -1.7760
 7740TIP3    H223185   5.908   1.660   0.593  0.0004 -2.7995 -1.7869
 7741TIP3   OH223186   6.494   3.295   5.697 -0.3319  0.2639  0.4431
 7741TIP3    H123187   6.498   3.216   5.643 -1.0447  0.9415 -0.6490
 7741TIP3    H223188   6.478   3.366   5.634  3.4723  1.8188  0.9290
 7742TIP3   OH223189   4.766   5.032   3.636 -0.3763  0.0414 -0.2891
 7742TIP3    H123190   4.741   5.112   3.682 -1.7942 -0.0480 -0.8306
 7742TIP3    H223191   4.763   5.057   3.543 -1.3423 -0.7591 -0.4825
 7743TIP3   OH223192   5.027   3.468   1.708 -0.1337 -0.0179  0.0429
 7743TIP3    H123193   5.006   3.526   1.780 -1.1987 -0.2781 -0.0487
 7743TIP3    H223194   4.949   3.414   1.696 -0.5378  0.9231 -2.1755
 7744TIP3   OH223195   1.998   1.585   0.934 -0.2342 -0.1719 -0.2713
 7744TIP3    H123196   2.002   1.645   1.008  0.6977 -1.5047  0.8165
 7744TIP3    H223197   2.089   1.568   0.911 -0.4824 -1.0048 -0.6918
 7745TIP3   OH223198   3.454   1.263   4.741  0.0029 -0.3485 -0.4070
 7745TIP3    H123199   3.454   1.244   4.647  1.3555  0.7521 -0.6691
 7745TIP3    H223200   3.470   1.179   4.783 -1.4574 -0.9980 -1.1086
 7746TIP3   OH223201   5.061   1.467   0.622 -0.0400 -0.1573  0.8022
 7746TIP3    H123202   5.118   1.391   0.615 -1.1031 -0.8196 -2.8711
 7746TIP3    H223203   5.022   1.476   0.534 -2.7091  2.4726  2.0743
 7747TIP3   OH223204   5.696   6.774   3.131 -0.2888 -0.6046 -0.0421
 7747TIP3    H123205   5.672   6.741   3.218  2.3750 -1.4740  0.4615
 7747TIP3    H223206   5.772   6.829   3.146 -1.1327  1.1074 -1.6281
 7748TIP3   OH223207   2.264   0.358   2.084 -0.4734 -0.1081 -0.3984
 7748TIP3    H123208   2.227   0.285   2.034  0.1380 -0.2196 -0.7033
 7748TIP3    H223209   2.247   0.336   2.175  1.9721 -1.9910 -0.2695
 7749TIP3   OH223210   5.558   1.123   5.508 -0.5999  0.4165  0.0030
 7749TIP3    H123211   5.485   1.136   5.568 -0.3012  0.4256  0.3711
 7749TIP3    H223212   5.632   1.100   5.565 -0.4233 -0.0323 -0.3993
 7750TIP3   OH223213   3.660   6.378   4.832 -0.0453 -0.3322  0.1921
 7750TIP3    H123214   3.639   6.327   4.753 -2.2712  0.1110  0.4382
 7750TIP3    H223215   3.626   6.325   4.904 -1.0937  0.7784  0.5550
 7751TIP3   OH223216   6.457   0.252   0.806  0.4475  0.5084 -0.0069
 7751TIP3    H123217   6.389   0.300   0.760 -0.3704 -0.7999 -0.2247
 7751TIP3    H223218   6.480   0.180   0.747  0.7583 -0.0719  0.8031
 7752TIP3   OH223219   6.238   5.596   4.396  0.5290 -0.2060  0.0764
 7752TIP3    H123220   6.214   5.533   4.328 -1.6742 -0.2601  0.8031
 7752TIP3    H223221   6.171   5.665   4.389  1.6430  0.9921  0.6733
 7753TIP3   OH223222   5.666   4.180   0.256 -0.3299 -0.0255 -0.0813
 7753TIP3    H123223   5.691   4.229   0.178 -0.3141  0.2135  0.0702
 7753TIP3    H223224   5.572   4.196   0.266  0.0147  1.5673  1.0473
 7754TIP3   OH223225   2.478   6.738   1.360  0.1614 -0.2455 -0.4905
 7754TIP3    H123226   2.451   6.796   1.432 -0.0047 -2.2862  1.2272
 7754TIP3    H223227   2.574   6.742   1.361  0.1569 -0.1187 -0.2605
 7755TIP3   OH223228   0.576   6.314   3.755 -0.1017  0.1516  0.0808
 7755TIP3    H123229   0.487   6.324   3.788 -0.6893 -0.5011 -1.2243
 7755TIP3    H223230   0.631   6.355   3.821 -1.4561  1.5443  0.4019
 7756TIP3   OH223231   1.365   6.478   5.417  0.0876  0.5041 -0.2341
 7756TIP3    H123232   1.418   6.400   5.401 -1.3109 -0.6350  0.4052
 7756TIP3    H223233   1.339   6.471   5.509 -2.9195 -0.2024 -1.0218
 7757TIP3   OH223234   0.443   2.993   3.341 -0.4604 -0.6198 -0.1862
 7757TIP3    H123235   0.538   3.003   3.332 -0.5905  1.3645  0.1639
 7757TIP3    H223236   0.406   3.045   3.270 -1.3157 -1.2355 -0.2138
 7758TIP3   OH223237   1.525   6.293   3.709  0.4164 -0.2166  0.9879
 7758TIP3    H123238   1.520   6.373   3.657  1.3598 -1.0594 -0.4681
 7758TIP3    H223239   1.449   6.242   3.680 -0.4573  0.3243  2.2630
 7759TIP3   OH223240   6.855   3.140   3.089 -0.4494 -0.2060  0.3566
 7759TIP3    H123241   6.874   3.171   3.178  1.8984 -0.9548  0.1875
 7759TIP3    H223242   6.857   3.219   3.035  1.8002 -0.1115  0.4785
 7760TIP3   OH223243   1.163   6.192   4.222  0.3935 -0.0081  0.7570
 7760TIP3    H123244   1.153   6.132   4.149  1.6670  0.5310  0.1260
 7760TIP3    H223245   1.123   6.274   4.192  0.2119 -0.0131  0.9748
 7761TIP3   OH223246   1.789   1.286   1.379  0.1832 -0.5116 -0.7735
 7761TIP3    H123247   1.858   1.227   1.349  0.7843 -0.2752  0.0867
 7761TIP3    H223248   1.822   1.374   1.362  0.3332 -0.3840  0.0894
 7762TIP3   OH223249   6.046   3.291   5.530  0.1444 -0.2197 -0.5752
 7762TIP3    H123250   6.123   3.235   5.522  0.5451  0.5100 -2.3457
 7762TIP3    H223251   6.079   3.372   5.569  0.5356  0.4575 -2.2019
 7763TIP3   OH223252   3.277   2.353   2.676  0.8780 -0.2099  0.4145
 7763TIP3    H123253   3.257   2.359   2.770  0.4817 -1.1649  0.3931
 7763TIP3    H223254   3.194   2.331   2.635  0.8779  0.9701 -0.2654
 7764TIP3   OH223255   5.509   0.541   1.301  0.2320 -0.4211 -0.6132
 7764TIP3    H123256   5.441   0.529   1.367  0.9790  1.0390  0.4898
 7764TIP3    H223257   5.500   0.466   1.243 -2.4108 -0.2007 -0.6194
 7765TIP3   OH223258   4.539   6.490   0.619  0.5742  0.0881  0.3413
 7765TIP3    H123259   4.531   6.417   0.557  0.2279  0.5536 -0.1701
 7765TIP3    H223260   4.474   6.470   0.687 -1.4203  1.1939 -1.1263
 7766TIP3   OH223261   4.994   6.043   4.082 -0.2522  0.0687  0.0194
 7766TIP3    H123262   4.923   5.981   4.098 -0.1441  0.1463  0.8369
 7766TIP3    H223263   5.025   6.021   3.994 -1.0372 -0.2074 -0.1962
 7767TIP3   OH223264   3.039   4.453   0.696  0.7479  0.6394 -0.1211
 7767TIP3    H123265   2.969   4.388   0.693  1.9303 -0.6444 -1.5471
 7767TIP3    H223266   3.104   4.416   0.756  0.5486  1.4921  0.6460
 7768TIP3   OH223267   2.323   5.559   4.431  0.3634  0.1991  0.5205
 7768TIP3    H123268   2.244   5.574   4.482  0.0829  2.8858 -0.5297
 7768TIP3    H223269   2.394   5.563   4.496 -0.1009  1.9613  0.9809
 7769TIP3   OH223270   6.809   1.061   5.290 -0.7343  0.3818  0.0914
 7769TIP3    H123271   6.837   1.008   5.365  0.3481  0.8761  0.0487
 7769TIP3    H223272   6.715   1.076   5.306 -0.9802 -1.1865  0.3020
 7770TIP3   OH223273   2.685   2.175   2.829  0.1520  0.8523 -0.4223
 7770TIP3    H123274   2.768   2.222   2.828  0.2063  0.7505 -0.6682
 7770TIP3    H223275   2.620   2.243   2.845  0.1483  1.1522 -1.5827
 7771TIP3   OH223276   1.876   1.426   3.325  0.5216 -0.0800  0.0676
 7771TIP3    H123277   1.892   1.483   3.401  1.0468  1.0833 -0.8816
 7771TIP3    H223278   1.959   1.381   3.311  0.2666 -0.6907  0.4913
 7772TIP3   OH223279   1.900   0.050   1.251  0.0877 -0.2792 -0.2324
 7772TIP3    H123280   1.945  -0.014   1.306  0.8005 -0.2796 -0.8065
 7772TIP3    H223281   1.866  -0.001   1.178  0.4618 -0.0431 -0.5750
 7773TIP3   OH223282   7.119   6.596   4.584 -0.1542 -0.3204  0.1791
 7773TIP3    H123283   7.078   6.510   4.577 -0.2174 -0.3029  0.3195
 7773TIP3    H223284   7.125   6.628   4.494  0.2496 -0.6495  0.0867
 7774TIP3   OH223285   6.806   0.466   1.441 -0.1229  0.4152 -0.1328
 7774TIP3    H123286   6.737   0.505   1.494  0.9002  1.1812  0.6664
 7774TIP3    H223287   6.855   0.411   1.502  0.3345  0.3459 -0.5545
 7775TIP3   OH223288   3.827   1.547   5.519 -0.2598 -0.3328 -0.3877
 7775TIP3    H123289   3.753   1.492   5.491 -0.5823  0.1694 -0.5363
 7775TIP3    H223290   3.826   1.621   5.458  0.5963 -0.5022 -0.6213
 7776TIP3   OH223291   5.673   4.524   0.237  0.3375  0.2179 -0.3039
 7776TIP3    H123292   5.656   4.472   0.158  0.1790 -1.1502  0.5951
 7776TIP3    H223293   5.718   4.602   0.205  1.4727 -0.9244 -1.6054
 7777TIP3   OH223294   6.192   0.344   3.885  0.2166  0.2633  0.3192
 7777TIP3    H123295   6.188   0.419   3.826 -0.6469 -0.3228 -0.3905
 7777TIP3    H223296   6.133   0.279   3.846  0.0549 -0.3510  1.5271
 7778TIP3   OH223297   3.255   3.666   1.974 -0.3834  0.2969 -1.1337
 7778TIP3    H123298   3.164   3.693   1.983  0.4066  2.5842  1.8762
 7778TIP3    H223299   3.305   3.746   1.991  2.1762 -1.2911 -0.6969
 7779TIP3   OH223300   4.701   5.511   3.089 -0.0112 -0.4390 -0.0323
 7779TIP3    H123301   4.703   5.574   3.160  1.5625 -0.6938  0.1900
 7779TIP3    H223302   4.612   5.518   3.053  0.3343  2.5509 -0.6084
 7780TIP3   OH223303   6.880   2.548   1.915 -0.3485  0.6465 -0.1232
 7780TIP3    H123304   6.817   2.496   1.965 -0.6808 -0.4410 -1.6045
 7780TIP3    H223305   6.965   2.512   1.938 -0.4826  0.3109 -0.1495
 7781TIP3   OH223306   3.392   5.432   4.394  0.1001 -0.3918 -0.2670
 7781TIP3    H123307   3.381   5.368   4.324  0.6893 -1.8677  0.9243
 7781TIP3    H223308   3.484   5.458   4.389 -0.0016 -0.0508 -0.3999
 7782TIP3   OH223309   1.875   1.081   0.267 -0.2442  0.2508  0.3010
 7782TIP3    H123310   1.820   1.158   0.255  1.8142  1.4181 -2.9874
 7782TIP3    H223311   1.868   1.033   0.184  1.3047 -1.1748  0.9323
 7783TIP3   OH223312   6.843   6.572   1.043 -0.2619 -0.4044 -0.0833
 7783TIP3    H123313   6.879   6.620   0.968  1.2915  0.8671  1.4024
 7783TIP3    H223314   6.748   6.583   1.035 -0.1014  0.1963 -1.5115
 7784TIP3   OH223315   1.780   4.038   1.276  0.4314  0.1069  0.4319
 7784TIP3    H123316   1.722   4.081   1.213  0.3058 -0.1289  0.3854
 7784TIP3    H223317   1.868   4.048   1.238  0.1957 -1.4747 -0.6307
 7785TIP3   OH223318   6.491   6.746   4.807  0.5057  0.0135  0.1525
 7785TIP3    H123319   6.550   6.671   4.807  2.0358  1.0732  2.5705
 7785TIP3    H223320   6.409   6.713   4.845  0.5160 -0.8066 -0.5094
 7786TIP3   OH223321   2.602   5.908   1.956 -0.6408 -0.2125 -0.8274
 7786TIP3    H123322   2.601   6.000   1.930  0.3771 -0.1242 -0.5918
 7786TIP3    H223323   2.516   5.894   1.997 -0.1793  1.0768  0.6731
 7787TIP3   OH223324   4.874   0.574   3.701 -0.0192  0.2977  0.0868
 7787TIP3    H123325   4.820   0.549   3.776 -1.4336 -0.0736 -1.0028
 7787TIP3    H223326   4.904   0.492   3.664 -0.0050  0.4409 -0.2242
 7788TIP3   OH223327   5.562   4.337   3.164 -0.5265 -0.3976  0.2057
 7788TIP3    H123328   5.565   4.412   3.223 -0.8023  0.2341 -0.5691
 7788TIP3    H223329   5.650   4.332   3.127 -0.9979  0.7187 -1.1538
 7789TIP3   OH223330   0.883   2.584   0.050 -0.0778 -0.1560 -0.4671
 7789TIP3    H123331   0.954   2.621   0.102  0.6808 -1.4339 -0.5556
 7789TIP3    H223332   0.863   2.652  -0.015  2.3012 -0.4446 -1.6002
 7790TIP3   OH223333   1.400   3.435   4.543 -0.0972 -0.1011 -0.0245
 7790TIP3    H123334   1.478   3.431   4.598 -1.2538  1.9760  1.9531
 7790TIP3    H223335   1.328   3.408   4.601 -1.2627  1.3737 -0.7114
 7791TIP3   OH223336   6.238   0.466   1.069  0.2821  0.0681 -0.0988
 7791TIP3    H123337   6.328   0.497   1.061  0.6729 -1.0918 -0.4458
 7791TIP3    H223338   6.231   0.439   1.161  0.1854  0.4411  0.0058
 7792TIP3   OH223339   1.217   6.289   4.462 -0.7660 -0.0307  0.1667
 7792TIP3    H123340   1.286   6.350   4.435 -2.3730  1.9163  0.2415
 7792TIP3    H223341   1.195   6.242   4.381 -0.4859  0.5462 -0.2578
 7793TIP3   OH223342   4.583   0.707   0.286  0.6571  0.0630  0.0155
 7793TIP3    H123343   4.539   0.627   0.258  0.1401  0.0238  0.9039
 7793TIP3    H223344   4.523   0.778   0.262  1.0558  0.1801 -0.6532
 7794TIP3   OH223345   6.045   0.579   4.642  0.5801  0.3702  0.4051
 7794TIP3    H123346   6.057   0.486   4.626  1.1377  0.6173 -0.6773
 7794TIP3    H223347   6.124   0.621   4.607 -1.3701  1.6231 -2.9592
 7795TIP3   OH223348   3.403   2.721   1.275 -0.0843  0.2699  0.0662
 7795TIP3    H123349   3.368   2.632   1.286 -1.5501  0.5449 -1.8154
 7795TIP3    H223350   3.466   2.713   1.203 -0.9882  0.9064 -0.8159
 7796TIP3   OH223351   4.951   0.909   1.517  0.1199 -0.2761  0.1430
 7796TIP3    H123352   4.926   0.901   1.609 -1.6732 -2.1274 -0.4099
 7796TIP3    H223353   4.999   0.828   1.498 -0.0338 -0.1833 -0.6777
 7797TIP3   OH223354   3.729   3.650   5.470  0.1155  0.1581  0.0205
 7797TIP3    H123355   3.680   3.685   5.395 -1.3779 -1.6019  0.1113
 7797TIP3    H223356   3.663   3.631   5.536  1.0893 -0.8981  0.7376
 7798TIP3   OH223357   0.127   1.442   2.579  0.6269 -0.2640  0.1531
 7798TIP3    H123358   0.158   1.352   2.571  2.9275  0.5323 -0.5462
 7798TIP3    H223359   0.200   1.496   2.548 -1.3785  1.7886 -1.4015
 7799TIP3   OH223360   1.111   1.177   4.414  0.3362 -0.0162  0.1523
 7799TIP3    H123361   1.178   1.109   4.420 -1.4993 -2.1337 -1.5190
 7799TIP3    H223362   1.128   1.221   4.330 -0.1131 -0.3102 -0.0987
 7800TIP3   OH223363   4.927   0.590   0.962 -0.2005 -0.2917 -0.3675
 7800TIP3    H123364   4.961   0.610   1.049 -3.0674  1.2225  0.5322
 7800TIP3    H223365   4.918   0.675   0.919 -0.9297 -0.8111 -1.2882
 7801TIP3   OH223366   5.721   6.782   0.420  0.6546 -0.2320  0.4624
 7801TIP3    H123367   5.741   6.771   0.327  0.6946  1.1050  0.2964
 7801TIP3    H223368   5.627   6.762   0.426 -0.1394  2.7442 -0.4824
 7802TIP3   OH223369   1.485   0.539   5.138 -0.0705  0.2200 -0.0549
 7802TIP3    H123370   1.459   0.455   5.175 -0.4464 -1.0029 -2.8737
 7802TIP3    H223371   1.581   0.536   5.138  0.0936  1.3416  2.9242
 7803TIP3   OH223372   4.248   6.639   1.512  0.0523 -0.3029 -0.1758
 7803TIP3    H123373   4.208   6.614   1.429 -0.6603 -0.2048  0.1297
 7803TIP3    H223374   4.174   6.654   1.571  0.5204  0.5766  0.2038
 7804TIP3   OH223375   4.123   3.719   4.059 -0.0427  0.2933 -0.3616
 7804TIP3    H123376   4.114   3.624   4.066  0.8949  0.1655 -0.7694
 7804TIP3    H223377   4.172   3.744   4.137  2.2419  0.0444 -1.6168
 7805TIP3   OH223378   2.604   0.530   4.126  0.1074  0.4262 -0.0859
 7805TIP3    H123379   2.586   0.622   4.105 -0.8263 -0.2798 -2.7487
 7805TIP3    H223380   2.658   0.499   4.053  0.2220 -1.2208  0.6551
 7806TIP3   OH223381   7.080   6.687   5.024  0.0763  0.1108  1.4444
 7806TIP3    H123382   7.103   6.695   4.931 -0.0923 -0.4660  1.3523
 7806TIP3    H223383   7.151   6.733   5.070 -1.1106  2.6592  0.9204
 7807TIP3   OH223384   6.536   5.032   4.343  0.5525  0.4511  0.2848
 7807TIP3    H123385   6.562   4.978   4.418  3.1697  0.4948 -0.4790
 7807TIP3    H223386   6.531   5.121   4.378  2.9111  0.6631  0.3071
 7808TIP3   OH223387   6.983   3.266   3.303  0.4861  0.0160 -0.4862
 7808TIP3    H123388   7.021   3.282   3.217  1.1424  0.2189 -0.1664
 7808TIP3    H223389   6.962   3.353   3.336 -0.8175 -0.1275 -0.9007
 7809TIP3   OH223390   0.288   0.020   1.579  0.1431 -0.3464 -0.0989
 7809TIP3    H123391   0.193   0.027   1.584  0.1453 -0.8113  0.8264
 7809TIP3    H223392   0.317   0.108   1.554 -0.4122  0.4254  1.7754
 7810TIP3   OH223393   0.037   1.691   4.156 -0.9249  0.0329 -0.1624
 7810TIP3    H123394   0.066   1.725   4.071  1.9363 -0.4687  0.5079
 7810TIP3    H223395   0.113   1.702   4.213 -1.7395 -2.3789  1.5311
 7811TIP3   OH223396   5.614   4.916   4.660  0.1149 -0.0324 -0.1604
 7811TIP3    H123397   5.594   4.832   4.618  0.7501 -0.1246 -0.2941
 7811TIP3    H223398   5.629   4.894   4.752 -1.3468  0.1800  0.1466
 7812TIP3   OH223399   6.687   2.272   0.421  0.0938  0.5407 -0.1041
 7812TIP3    H123400   6.609   2.218   0.420  0.2529  0.2653  0.9027
 7812TIP3    H223401   6.750   2.226   0.366 -0.7097  1.2118 -1.6581
 7813TIP3   OH223402   3.630   2.741   1.780 -0.8558  0.9254  0.5790
 7813TIP3    H123403   3.570   2.668   1.794  1.8693 -1.6120 -0.0827
 7813TIP3    H223404   3.681   2.745   1.861 -0.5538  1.7251  0.3581
 7814TIP3   OH223405   5.932   6.660   0.984  0.2775 -0.2202  0.4996
 7814TIP3    H123406   5.962   6.630   0.899  1.0301 -2.2227  1.4121
 7814TIP3    H223407   5.848   6.703   0.966  1.0578  0.6205 -1.3909
 7815TIP3   OH223408   3.770   4.411   0.907 -0.6680  0.0312  0.0847
 7815TIP3    H123409   3.846   4.378   0.955 -1.0104 -2.1441 -0.7480
 7815TIP3    H223410   3.697   4.397   0.967 -1.0648 -2.4943 -0.8591
 7816TIP3   OH223411   1.031   6.822   1.330 -0.0842  0.3787  0.1245
 7816TIP3    H123412   0.963   6.840   1.265  2.2635 -0.1844 -2.6850
 7816TIP3    H223413   1.052   6.730   1.318  1.4204  0.6265  0.6492
 7817TIP3   OH223414   1.184   2.685   1.491  0.1403  0.0375 -0.0346
 7817TIP3    H123415   1.091   2.692   1.515 -0.0947 -0.8288 -0.6275
 7817TIP3    H223416   1.224   2.639   1.564  0.1080  0.4189  0.2263
 7818TIP3   OH223417   2.545   4.563   5.245  0.2248 -0.4333  0.1507
 7818TIP3    H123418   2.557   4.650   5.206  0.7857 -0.6106 -0.0824
 7818TIP3    H223419   2.451   4.558   5.263 -0.4189 -0.9821 -2.7502
 7819TIP3   OH223420   1.773   4.918   4.737  0.2355  0.2766 -0.5639
 7819TIP3    H123421   1.754   4.977   4.664 -2.1215 -0.9399 -1.0344
 7819TIP3    H223422   1.822   4.846   4.697 -0.5797 -0.1245 -0.8565
 7820TIP3   OH223423   5.877   4.267   3.905  0.6233  0.3668 -0.2227
 7820TIP3    H123424   5.825   4.205   3.855  0.9352 -0.7000  0.7322
 7820TIP3    H223425   5.960   4.222   3.921  0.0457  0.0391  2.4206
 7821TIP3   OH223426   1.217   4.803   2.951 -0.6946 -0.4026  0.2470
 7821TIP3    H123427   1.161   4.726   2.945 -1.9148  0.4864 -0.1598
 7821TIP3    H223428   1.306   4.768   2.945 -1.1203 -1.9793  2.0869
 7822TIP3   OH223429   6.260   0.943   4.588  0.0591  0.1256 -0.0592
 7822TIP3    H123430   6.226   0.915   4.503 -0.1495 -0.7319  0.2953
 7822TIP3    H223431   6.335   0.998   4.567 -0.7943  1.0226 -0.8291
 7823TIP3   OH223432   1.533   6.494   1.187  0.0713 -0.6636  0.1626
 7823TIP3    H123433   1.495   6.461   1.106 -1.0989 -1.3837  0.9808
 7823TIP3    H223434   1.627   6.474   1.179 -0.0633 -0.9459 -0.8939
 7824TIP3   OH223435   4.613   6.290   4.269 -0.0056 -0.1100 -0.1439
 7824TIP3    H123436   4.550   6.351   4.309 -0.5595 -0.0860 -1.0269
 7824TIP3    H223437   4.580   6.276   4.180  0.2849 -1.4612 -0.0639
 7825TIP3   OH223438   0.204   2.122   5.458  0.7577 -0.0219  0.0481
 7825TIP3    H123439   0.218   2.108   5.552  1.6651  1.1113  0.1001
 7825TIP3    H223440   0.292   2.124   5.421  0.4112 -0.4047 -0.8410
 7826TIP3   OH223441   0.189   2.415   3.432 -0.1261  0.5251 -0.1685
 7826TIP3    H123442   0.191   2.439   3.524  0.5520  1.2575 -0.3639
 7826TIP3    H223443   0.260   2.466   3.392  1.1070 -1.5084 -0.6941
 7827TIP3   OH223444   6.976   4.776   0.400  0.7348  0.1339 -0.1168
 7827TIP3    H123445   7.038   4.777   0.327  0.3339 -0.0509 -0.4635
 7827TIP3    H223446   6.941   4.687   0.401  1.3055 -0.0967  0.7934
 7828TIP3   OH223447   1.697   6.736   2.402 -0.1033 -0.1681 -0.0458
 7828TIP3    H123448   1.712   6.788   2.481  1.4339  2.1643 -1.7026
 7828TIP3    H223449   1.619   6.685   2.420 -0.6194  1.3509  2.4577
 7829TIP3   OH223450   5.383   2.014   0.486 -0.1595 -0.7779 -0.1174
 7829TIP3    H123451   5.322   2.023   0.413 -1.4301 -1.3580  0.8265
 7829TIP3    H223452   5.344   2.066   0.557  1.9674  1.2753 -0.3329
 7830TIP3   OH223453   4.357   1.472   5.053  0.0663 -0.2823 -0.8624
 7830TIP3    H123454   4.298   1.485   4.979 -0.1371  1.2514 -0.4539
 7830TIP3    H223455   4.419   1.544   5.048  1.0165 -1.0495 -0.4291
 7831TIP3   OH223456   2.139   5.278   5.770 -0.3069  0.4299  0.5269
 7831TIP3    H123457   2.203   5.286   5.841 -0.6055  0.0942  0.8443
 7831TIP3    H223458   2.058   5.312   5.807 -1.1093 -2.0060  1.2450
 7832TIP3   OH223459   6.022   4.300   2.528  0.2356  0.2453 -0.1071
 7832TIP3    H123460   6.000   4.213   2.562  0.2097  0.5951  0.7792
 7832TIP3    H223461   5.997   4.296   2.435 -0.0482 -0.5920 -0.0041
 7833TIP3   OH223462   6.639   2.696   2.191  0.3221 -0.4305  0.4987
 7833TIP3    H123463   6.648   2.614   2.143  0.0746 -0.0384 -0.2358
 7833TIP3    H223464   6.729   2.724   2.207  0.4657 -1.7920  2.4707
 7834TIP3   OH223465   0.867   1.154   4.034 -0.7145 -0.2172  0.4927
 7834TIP3    H123466   0.958   1.167   4.062 -0.6616  1.9179 -0.4668
 7834TIP3    H223467   0.874   1.104   3.953 -0.3628  0.2531  0.2306
 7835TIP3   OH223468   0.068   2.942   4.781  0.2666  0.4794  0.0261
 7835TIP3    H123469   0.110   2.971   4.700 -0.5927  0.4223 -0.4623
 7835TIP3    H223470   0.006   2.874   4.752  0.7430 -0.3318  0.8807
 7836TIP3   OH223471   3.353   6.349   3.736 -0.1109 -0.3020  0.2473
 7836TIP3    H123472   3.316   6.431   3.770 -0.6166 -0.8463  1.0608
 7836TIP3    H223473   3.443   6.370   3.715  0.2376  0.0800  1.9567
 7837TIP3   OH223474   0.885   3.865   1.197  0.4444 -0.2472 -0.6175
 7837TIP3    H123475   0.870   3.940   1.255 -0.4748 -0.9369  0.0627
 7837TIP3    H223476   0.976   3.874   1.169  0.6727  0.5228  0.3239
 7838TIP3   OH223477   5.129   2.106   0.421  0.1247 -0.0256  0.0121
 7838TIP3    H123478   5.095   2.132   0.335  2.5280 -0.1954 -1.0693
 7838TIP3    H223479   5.129   2.186   0.472 -0.6547  0.2345 -0.3739
 7839TIP3   OH223480   0.968   5.060   1.361 -0.1258  0.2004 -0.3370
 7839TIP3    H123481   1.062   5.071   1.344  0.5776 -2.3142  1.4061
 7839TIP3    H223482   0.943   4.983   1.309 -1.0644  0.4145 -0.2190
 7840TIP3   OH223483   3.383   5.898   5.180 -0.4676 -0.0401 -0.0196
 7840TIP3    H123484   3.399   5.895   5.086  0.0403 -0.1760  0.0661
 7840TIP3    H223485   3.467   5.924   5.218 -0.6476 -0.0569  0.3998
 7841TIP3   OH223486   4.604   5.431   2.375 -0.1742 -0.0399  0.1595
 7841TIP3    H123487   4.559   5.497   2.323 -1.7362 -0.4045  0.9567
 7841TIP3    H223488   4.559   5.349   2.353 -0.3900 -0.3126  1.4848
 7842TIP3   OH223489   1.244   1.690   3.357 -0.1263 -0.2527 -0.2963
 7842TIP3    H123490   1.239   1.726   3.446 -1.5444 -1.5477  0.1797
 7842TIP3    H223491   1.314   1.625   3.361  2.7663  2.5502 -1.2731
 7843TIP3   OH223492   4.079   6.629   4.782 -0.4316 -0.2201  0.2935
 7843TIP3    H123493   4.013   6.591   4.840  1.0816  0.7509  2.8244
 7843TIP3    H223494   4.114   6.555   4.733 -2.4967 -0.9151 -0.2331
 7844TIP3   OH223495   5.271   6.309   2.344 -0.6767  0.0943  0.0943
 7844TIP3    H123496   5.239   6.257   2.271  0.1876 -1.1201  0.5473
 7844TIP3    H223497   5.245   6.261   2.422 -0.0297  0.4399  0.5342
 7845TIP3   OH223498   2.341   0.836   1.494  0.2218  0.2670 -0.6772
 7845TIP3    H123499   2.372   0.919   1.459 -0.4077 -0.2312 -2.4870
 7845TIP3    H223500   2.332   0.852   1.588 -0.8752  2.5804 -1.1160
 7846TIP3   OH223501   3.212   0.293   5.046 -0.4371  0.1838 -0.2278
 7846TIP3    H123502   3.261   0.309   4.965 -0.5827  0.9777 -0.1693
 7846TIP3    H223503   3.279   0.271   5.111 -0.2927 -0.1379 -0.4825
 7847TIP3   OH223504   1.837   4.265   3.191 -0.1075  0.3290 -0.3206
 7847TIP3    H123505   1.782   4.223   3.258  0.4839 -0.1448 -0.1226
 7847TIP3    H223506   1.778   4.274   3.115 -0.1398 -1.3513 -0.5534
 7848TIP3   OH223507   4.212   5.847   2.975  0.5476 -0.0650  0.4147
 7848TIP3    H123508   4.132   5.900   2.980 -1.2602 -2.6204  0.5624
 7848TIP3    H223509   4.249   5.851   3.063  0.5935  1.1233  0.3546
 7849TIP3   OH223510   6.936   6.497   5.369  0.0521 -0.4926  0.6026
 7849TIP3    H123511   6.956   6.408   5.397 -1.6424 -1.2280 -0.3234
 7849TIP3    H223512   6.903   6.487   5.279 -1.0791  0.9385  0.8176
 7850TIP3   OH223513   2.902   0.469   5.619 -0.3013 -0.2424 -0.2271
 7850TIP3    H123514   2.920   0.389   5.669  0.3377 -0.8325 -1.3443
 7850TIP3    H223515   2.910   0.540   5.682 -1.5808 -1.1119  0.9484
 7851TIP3   OH223516   1.113   4.051   0.182 -0.2909  0.1749 -0.0920
 7851TIP3    H123517   1.122   3.976   0.242  0.5303  0.3333  0.0022
 7851TIP3    H223518   1.054   4.111   0.227 -0.1127  0.0498  0.3150
 7852TIP3   OH223519   6.416   4.536   4.259  0.3402 -0.2590  0.4366
 7852TIP3    H123520   6.498   4.551   4.305  0.8598  0.6804 -0.7467
 7852TIP3    H223521   6.351   4.525   4.329  1.6102 -2.1307  1.3997
 7853TIP3   OH223522   6.843   4.821   3.449  0.3337  0.0264 -0.0954
 7853TIP3    H123523   6.860   4.736   3.491 -0.8144 -0.1501  0.0634
 7853TIP3    H223524   6.835   4.800   3.355 -1.0511 -0.2423  0.0650
 7854TIP3   OH223525   3.752   0.222   0.692 -0.3833 -0.3647  0.0156
 7854TIP3    H123526   3.661   0.191   0.692 -1.0484  1.2292  2.5555
 7854TIP3    H223527   3.763   0.262   0.779  3.3131 -2.0401  0.5221
 7855TIP3   OH223528   1.329   6.568  -0.012  0.0811  0.3928  0.1134
 7855TIP3    H123529   1.282   6.503   0.040  0.6429  1.9931  2.8110
 7855TIP3    H223530   1.272   6.645  -0.010  0.6355  0.8349 -0.7185
 7856TIP3   OH223531   7.060   4.627   4.709 -0.0712  0.2393  0.0004
 7856TIP3    H123532   7.060   4.565   4.637  0.6034 -0.3704  0.5185
 7856TIP3    H223533   7.080   4.711   4.668 -1.2122  0.1820 -0.7364
 7857TIP3   OH223534   6.919   2.962   3.303  0.2198 -0.3153  0.3492
 7857TIP3    H123535   6.841   2.912   3.326  1.1088 -1.6312  0.5747
 7857TIP3    H223536   6.927   2.953   3.208 -0.1852  0.2629  0.2545
 7858TIP3   OH223537   0.520   4.822   1.624 -0.5100 -0.1446  0.0231
 7858TIP3    H123538   0.562   4.738   1.645 -2.2882 -1.1571 -0.3234
 7858TIP3    H223539   0.575   4.859   1.554  0.0553 -1.2114 -0.1197
 7859TIP3   OH223540   3.159   2.517   2.063  0.0258  0.4690 -0.2651
 7859TIP3    H123541   3.083   2.576   2.063 -0.2355  0.1906  1.7148
 7859TIP3    H223542   3.201   2.532   2.147  0.8416 -1.0702 -0.3629
 7860TIP3   OH223543   0.036   4.166   2.974 -0.3177  0.3327  0.1555
 7860TIP3    H123544   0.008   4.144   2.885 -0.5971  0.9299  0.0927
 7860TIP3    H223545   0.014   4.089   3.026  2.8302 -1.4590 -0.8487
 7861TIP3   OH223546   3.830   4.099   5.076 -0.1406  0.1905 -0.4298
 7861TIP3    H123547   3.925   4.102   5.076 -0.1720  1.6799  0.1396
 7861TIP3    H223548   3.808   4.061   5.162 -0.0653 -2.2880 -1.4154
 7862TIP3   OH223549   6.880   0.133   4.775 -0.0281  0.1627  0.1456
 7862TIP3    H123550   6.868   0.038   4.772 -3.0957  0.4667 -1.0211
 7862TIP3    H223551   6.889   0.159   4.683 -0.9423  1.1199  0.3001
 7863TIP3   OH223552   4.724   0.924   5.368 -0.5089  0.0917  0.9267
 7863TIP3    H123553   4.681   0.872   5.300  0.3904 -0.7497  0.9747
 7863TIP3    H223554   4.808   0.879   5.382 -0.7049  0.2159  2.6355
 7864TIP3   OH223555   4.064   2.725   1.927 -0.2134 -0.5988 -0.1782
 7864TIP3    H123556   4.117   2.703   1.851  0.1969 -1.9702  0.4720
 7864TIP3    H223557   4.126   2.730   1.999 -0.4106  1.9189 -0.0768
 7865TIP3   OH223558   0.559   1.390   0.894  0.1871  0.2888  0.0964
 7865TIP3    H123559   0.522   1.341   0.968  1.2410  0.2978  0.6667
 7865TIP3    H223560   0.543   1.482   0.916  0.0043  0.2689  0.0425
 7866TIP3   OH223561   5.889   4.411   4.720  0.4129  0.5954 -0.5686
 7866TIP3    H123562   5.944   4.371   4.787 -0.1164  1.1188  0.2068
 7866TIP3    H223563   5.891   4.505   4.740 -0.5361  0.6565 -0.6725
 7867TIP3   OH223564   1.772   6.043   3.799  0.1180  0.5234  0.3691
 7867TIP3    H123565   1.699   6.007   3.748 -0.6281  0.2098  1.5918
 7867TIP3    H223566   1.765   6.138   3.788 -0.4071  0.4897  0.3583
 7868TIP3   OH223567   3.404   1.991   0.965  0.4950 -0.1718  0.0553
 7868TIP3    H123568   3.398   1.914   0.908 -1.1928  1.4880 -2.1725
 7868TIP3    H223569   3.341   1.972   1.036  0.3100 -0.9459 -0.3011
 7869TIP3   OH223570   1.069   1.925   5.213  0.3544  0.3414 -0.4321
 7869TIP3    H123571   1.041   2.016   5.220 -2.0404 -0.4510  1.7589
 7869TIP3    H223572   1.005   1.884   5.155 -0.0769 -0.4221  0.5480
 7870TIP3   OH223573   1.079   5.712   2.568 -0.4769 -0.2594  0.0218
 7870TIP3    H123574   1.065   5.756   2.484 -0.7155 -1.3514 -0.5374
 7870TIP3    H223575   1.014   5.751   2.626 -3.2983 -2.3505 -1.4413
 7871TIP3   OH223576   6.658   0.507   0.072 -0.0979 -0.2753  0.9124
 7871TIP3    H123577   6.632   0.436   0.130 -1.1779 -1.0893 -0.4849
 7871TIP3    H223578   6.590   0.509   0.004 -0.7323  2.8140  1.4705
 7872TIP3   OH223579  -0.003   5.250   1.593  0.3845 -0.8836  0.0005
 7872TIP3    H123580   0.087   5.220   1.577  0.2131 -1.3931 -0.0453
 7872TIP3    H223581  -0.042   5.257   1.506 -0.4493 -3.3450  0.0816
 7873TIP3   OH223582   5.678   1.269   2.637 -0.3382  0.3698 -0.6608
 7873TIP3    H123583   5.614   1.201   2.653 -0.5098  0.6281 -0.2571
 7873TIP3    H223584   5.682   1.319   2.718 -0.6869  1.2359 -1.1657
 7874TIP3   OH223585   0.962   3.101   2.017  0.6353 -0.0155  0.0582
 7874TIP3    H123586   0.893   3.067   2.073  0.1743  2.4266  1.1120
 7874TIP3    H223587   1.041   3.098   2.072  0.7232  0.0162 -0.0652
 7875TIP3   OH223588   6.630   4.988   0.250  0.0044 -0.0155 -0.3271
 7875TIP3    H123589   6.725   4.995   0.257  0.1392 -0.9612 -0.9515
 7875TIP3    H223590   6.615   4.901   0.213 -1.1950 -0.6095  1.4484
 7876TIP3   OH223591   5.332   5.897   2.551  0.7085  0.0961  0.3259
 7876TIP3    H123592   5.303   5.933   2.635 -0.2303 -1.4349  0.6964
 7876TIP3    H223593   5.335   5.802   2.565 -0.1404 -0.2534 -1.5729
 7877TIP3   OH223594   1.066   4.021   2.464  0.1243 -0.4402  0.3355
 7877TIP3    H123595   1.039   3.956   2.528 -0.4710  1.0089  1.6187
 7877TIP3    H223596   1.020   3.996   2.384 -2.4189 -0.0013  1.5586
 7878TIP3   OH223597   6.451   6.398   2.047 -0.8434 -0.2868 -0.4896
 7878TIP3    H123598   6.464   6.308   2.017 -1.7949 -1.3140  1.9441
 7878TIP3    H223599   6.457   6.393   2.142 -0.0451  2.4120 -0.3151
 7879TIP3   OH223600   2.572   4.366   0.602  0.3202  0.0225 -0.1962
 7879TIP3    H123601   2.659   4.329   0.617  1.2595  1.5224 -1.6847
 7879TIP3    H223602   2.568   4.442   0.659 -0.9559 -1.2708  1.5708
 7880TIP3   OH223603   5.228   3.255   1.287  0.8930 -0.4941 -0.2412
 7880TIP3    H123604   5.283   3.303   1.225  0.6349 -1.3038 -1.1039
 7880TIP3    H223605   5.280   3.178   1.310  0.1531 -1.2434 -1.0297
 7881TIP3   OH223606   0.223   5.772   0.153 -0.3232  0.2734  0.6632
 7881TIP3    H123607   0.241   5.744   0.243  2.2065 -1.3075 -0.2392
 7881TIP3    H223608   0.134   5.742   0.136 -0.6385  0.0898  2.4257
 7882TIP3   OH223609   4.776   3.218   0.837  0.2656  0.3378 -0.0918
 7882TIP3    H123610   4.860   3.257   0.812  0.2026  1.7841  1.7951
 7882TIP3    H223611   4.716   3.292   0.843 -0.3491 -0.2587  1.6518
 7883TIP3   OH223612   0.068   5.805   1.815  0.2549  0.5031 -0.1457
 7883TIP3    H123613  -0.006   5.862   1.833  0.2469 -0.1013  2.0476
 7883TIP3    H223614   0.099   5.832   1.728 -1.9262  1.3809 -0.7060
 7884TIP3   OH223615   2.254   3.658   0.501  0.4739 -0.3507  0.5018
 7884TIP3    H123616   2.286   3.689   0.586 -0.6508 -0.1872  0.8871
 7884TIP3    H223617   2.268   3.564   0.503 -0.9766 -0.5834  1.5496
 7885TIP3   OH223618   1.071   5.654   1.778 -0.2166 -0.2365 -0.0287
 7885TIP3    H123619   1.097   5.740   1.746  1.0798 -0.8646 -0.7558
 7885TIP3    H223620   1.008   5.672   1.847  0.4609  1.3050  0.2255
 7886TIP3   OH223621   3.586   0.799   3.616  0.1283  0.2143 -0.6285
 7886TIP3    H123622   3.680   0.786   3.598  0.3317  1.2049 -0.3173
 7886TIP3    H223623   3.573   0.893   3.610 -0.7630  0.1269 -0.2071
 7887TIP3   OH223624   2.241   4.401   1.603 -0.1461  0.3113 -0.1993
 7887TIP3    H123625   2.218   4.311   1.625 -0.4799  0.8833  2.1569
 7887TIP3    H223626   2.331   4.411   1.634  0.1211  0.6214 -1.0489
 7888TIP3   OH223627   2.854   5.490   3.791  0.0503 -0.0536  0.3230
 7888TIP3    H123628   2.833   5.506   3.883 -1.2911 -0.5803  0.1394
 7888TIP3    H223629   2.927   5.548   3.772  0.6381 -0.2573  1.8371
 7889TIP3   OH223630   2.301   3.495   1.458 -0.3725 -0.7541 -0.2410
 7889TIP3    H123631   2.332   3.449   1.536 -2.3828  0.5244  1.4128
 7889TIP3    H223632   2.346   3.579   1.459  0.3116 -1.0965 -1.0311
 7890TIP3   OH223633   5.646   2.112   5.797 -0.7027 -0.4149 -0.1061
 7890TIP3    H123634   5.624   2.134   5.888 -0.0171 -1.5900  0.3700
 7890TIP3    H223635   5.684   2.024   5.802  0.3385 -0.0776 -1.3875
 7891TIP3   OH223636   5.190   5.926   1.339  0.2255  0.4552  0.1149
 7891TIP3    H123637   5.238   5.880   1.408 -1.0185 -1.3374 -0.1517
 7891TIP3    H223638   5.237   6.009   1.328  0.4064  0.8619  3.1640
 7892TIP3   OH223639   0.816   0.189   2.734 -0.1666 -0.0976  0.5372
 7892TIP3    H123640   0.770   0.111   2.766 -0.6338 -0.4949 -1.0215
 7892TIP3    H223641   0.863   0.222   2.811 -2.6318  0.0464  2.0976
 7893TIP3   OH223642   2.431   1.602   3.619 -0.7614  0.1223  0.1484
 7893TIP3    H123643   2.345   1.631   3.650 -0.6403  1.5398 -0.7788
 7893TIP3    H223644   2.444   1.648   3.537  0.9612  0.0457  0.3457
 7894TIP3   OH223645   1.151   3.410   3.726  0.2600  0.0385 -0.5957
 7894TIP3    H123646   1.056   3.408   3.716  0.2948  1.0499 -1.2723
 7894TIP3    H223647   1.172   3.503   3.738  0.8889 -0.4099  2.6714
 7895TIP3   OH223648   6.599   1.559   3.846  0.3157 -0.3266 -0.1972
 7895TIP3    H123649   6.680   1.609   3.851  0.2818 -0.3877  2.3485
 7895TIP3    H223650   6.592   1.515   3.931 -2.0211 -0.9243 -0.6049
 7896TIP3   OH223651   4.369   2.013   5.078 -0.1045 -0.1776  0.0082
 7896TIP3    H123652   4.341   2.068   5.152 -1.4922  0.3782 -0.8802
 7896TIP3    H223653   4.347   2.065   5.000 -2.4542 -2.3153 -0.9247
 7897TIP3   OH223654   3.540   4.368   2.746 -0.1807 -0.7589 -0.1773
 7897TIP3    H123655   3.517   4.383   2.838 -0.9541 -0.4287 -0.4247
 7897TIP3    H223656   3.529   4.453   2.704 -0.1271 -0.9829 -0.6474
 7898TIP3   OH223657   6.076   6.817   2.798 -0.7265  0.0910 -0.5292
 7898TIP3    H123658   6.132   6.760   2.745  0.5186  0.9736 -0.2102
 7898TIP3    H223659   5.998   6.764   2.816 -0.3823 -0.8654 -1.7086
 7899TIP3   OH223660   0.894   6.209   4.387  0.2606  0.3417 -0.2087
 7899TIP3    H123661   0.935   6.262   4.319  2.1791  1.4280  1.6819
 7899TIP3    H223662   0.824   6.264   4.422 -0.8878 -0.3111 -1.3786
 7900TIP3   OH223663   4.138   4.892   5.545 -0.0836  0.1680  0.3036
 7900TIP3    H123664   4.087   4.897   5.626  1.6066 -1.1778  1.5325
 7900TIP3    H223665   4.083   4.844   5.484 -0.7910 -0.1269  1.1548
 7901TIP3   OH223666   0.571   2.812   5.508 -0.3284  0.2559  0.1325
 7901TIP3    H123667   0.541   2.896   5.543 -0.3399 -0.5671  2.2400
 7901TIP3    H223668   0.637   2.782   5.570  1.5272 -0.1799 -1.9239
 7902TIP3   OH223669   6.175   0.391   2.097 -0.1906  0.3640  0.3150
 7902TIP3    H123670   6.086   0.425   2.086 -0.1938  0.4489  0.6034
 7902TIP3    H223671   6.184   0.327   2.026 -0.3930  0.5342  0.1325
 7903TIP3   OH223672   4.682   1.889   3.091 -0.2323  0.2852  0.6266
 7903TIP3    H123673   4.777   1.900   3.091 -0.3724  1.8156  1.8443
 7903TIP3    H223674   4.650   1.952   3.026 -0.4259 -0.4002  0.0369
 7904TIP3   OH223675   0.995   5.765   2.285  0.5255 -0.0575 -0.1839
 7904TIP3    H123676   1.074   5.819   2.278  0.8871 -0.6444 -0.6450
 7904TIP3    H223677   0.925   5.828   2.304  1.2527  0.3658  1.2455
 7905TIP3   OH223678   5.658   3.465   0.251 -0.3881  0.0894  0.3894
 7905TIP3    H123679   5.622   3.431   0.169 -0.4541  0.4866  0.2540
 7905TIP3    H223680   5.644   3.559   0.246 -0.5099  0.0983  0.9173
 7906TIP3   OH223681   1.230   4.516   2.386 -0.0083 -0.0084 -0.8007
 7906TIP3    H123682   1.256   4.454   2.454  0.2747  0.7745 -0.1729
 7906TIP3    H223683   1.279   4.596   2.407 -2.2652  1.2615 -0.0650
 7907TIP3   OH223684   3.713   3.448   4.579  0.3119  0.0157  0.6521
 7907TIP3    H123685   3.640   3.478   4.525  0.9222 -0.1866 -0.2922
 7907TIP3    H223686   3.710   3.353   4.574  2.0989  0.0012 -1.4240
 7908TIP3   OH223687   5.007   4.430   2.032 -1.0340 -0.6216 -0.2688
 7908TIP3    H123688   5.009   4.526   2.033  1.5391 -0.5697  1.9737
 7908TIP3    H223689   5.059   4.406   1.955 -3.0084 -0.3349 -1.7778
 7909TIP3   OH223690   3.184   4.931   2.596  0.1931  0.3775 -0.1155
 7909TIP3    H123691   3.221   4.925   2.684  0.4958 -0.8797 -0.3038
 7909TIP3    H223692   3.259   4.926   2.538 -0.1224 -0.6649 -0.4682
 7910TIP3   OH223693   2.340   4.377   3.967  0.0051  0.5775  0.0371
 7910TIP3    H123694   2.416   4.330   3.932  0.2733  1.1527 -0.1646
 7910TIP3    H223695   2.265   4.335   3.924  0.1761 -0.2406  0.5201
 7911TIP3   OH223696   6.416  -0.021   2.677 -0.6320 -0.3396  0.1942
 7911TIP3    H123697   6.358   0.055   2.668 -0.1255  0.1631  0.9868
 7911TIP3    H223698   6.493   0.002   2.624 -0.2888 -0.0987  0.7907
 7912TIP3   OH223699   5.446   4.106   3.090  0.0893  0.3847 -0.5457
 7912TIP3    H123700   5.494   4.179   3.130  0.3853 -0.4753  0.7256
 7912TIP3    H223701   5.498   4.029   3.110 -1.2792 -0.4481 -0.0130
 7913TIP3   OH223702   1.282   5.446   1.730  0.1548 -0.2580 -0.3116
 7913TIP3    H123703   1.252   5.524   1.777  2.6214 -0.7197  2.2834
 7913TIP3    H223704   1.369   5.429   1.764  0.1361 -3.5956 -1.5199
 7914TIP3   OH223705   6.034   5.690   1.930  0.1718 -0.8143  0.1149
 7914TIP3    H123706   5.977   5.696   1.853 -0.3485  0.3650  0.5605
 7914TIP3    H223707   6.029   5.777   1.970 -1.1364 -1.9276  2.5968
 7915TIP3   OH223708   4.094   1.872   3.460  0.3746  0.1736 -0.0196
 7915TIP3    H123709   4.066   1.929   3.388 -0.7279  0.2951  0.4861
 7915TIP3    H223710   4.049   1.789   3.444  0.2415  0.1536  0.4495
 7916TIP3   OH223711   3.224   1.188   0.833 -0.3726  0.0990  0.5594
 7916TIP3    H123712   3.151   1.210   0.776 -0.3250  1.4497  0.9861
 7916TIP3    H223713   3.286   1.141   0.776  0.2887  2.5718 -0.9158
 7917TIP3   OH223714   5.449   1.002   0.644 -0.6938  0.1624 -0.0988
 7917TIP3    H123715   5.357   1.022   0.627 -1.3653 -1.4989  1.2914
 7917TIP3    H223716   5.465   1.032   0.733  0.7212  2.2218 -0.9759
 7918TIP3   OH223717   3.394   5.866   2.911  0.1634  0.5450  0.2264
 7918TIP3    H123718   3.426   5.780   2.886  0.4380  1.0010 -1.1017
 7918TIP3    H223719   3.371   5.858   3.003 -0.5270 -1.1546 -0.0602
 7919TIP3   OH223720   3.474   4.747   0.038  0.0466  0.1415 -0.1146
 7919TIP3    H123721   3.539   4.760   0.107 -0.5089  2.0513  0.0963
 7919TIP3    H223722   3.502   4.806  -0.032  0.2799 -1.3402 -1.3265
 7920TIP3   OH223723   0.674   2.419   2.344 -0.1531  0.1400 -0.2669
 7920TIP3    H123724   0.729   2.342   2.361 -1.4926 -0.8750 -0.3358
 7920TIP3    H223725   0.588   2.394   2.376 -0.7865  1.3585 -0.9524
 7921TIP3   OH223726   6.637   5.284   3.786 -0.2431  0.0923  0.0273
 7921TIP3    H123727   6.693   5.357   3.757  0.3940 -0.2720  0.3137
 7921TIP3    H223728   6.693   5.207   3.779 -0.7593 -0.2991  0.1927
 7922TIP3   OH223729   6.943   4.447   1.880  0.2222 -0.2668  0.0722
 7922TIP3    H123730   6.973   4.533   1.851 -0.9227  0.0135 -0.3326
 7922TIP3    H223731   6.933   4.456   1.974 -0.6779  0.3115 -0.0659
 7923TIP3   OH223732   4.915   2.779   2.629  0.0406 -0.3229 -0.0761
 7923TIP3    H123733   4.953   2.712   2.685  0.8896  1.0064  1.0039
 7923TIP3    H223734   4.824   2.786   2.660 -0.5360 -2.0303 -1.2537
 7924TIP3   OH223735   0.110   4.056   1.693 -0.1555 -0.3898  0.2371
 7924TIP3    H123736   0.169   4.113   1.742 -0.2029 -0.9367  0.9456
 7924TIP3    H223737   0.034   4.112   1.673  0.5989  0.3295 -0.7295
 7925TIP3   OH223738   5.585   0.160   2.086  0.1811  0.5508  0.2309
 7925TIP3    H123739   5.628   0.246   2.092  0.6142  0.3601 -0.1223
 7925TIP3    H223740   5.608   0.117   2.169 -2.7731  1.9968  1.9885
 7926TIP3   OH223741   5.452   3.165   1.853 -0.6869  0.2447 -0.2363
 7926TIP3    H123742   5.489   3.207   1.775 -1.0325 -0.3162 -0.7072
 7926TIP3    H223743   5.358   3.183   1.848 -0.5713  1.2420  0.7006
 7927TIP3   OH223744   6.028   1.415   5.003  0.0376  0.3435  0.0010
 7927TIP3    H123745   6.081   1.357   5.058  0.9987 -0.1327 -1.3903
 7927TIP3    H223746   6.051   1.392   4.913 -0.5055  2.0232 -0.6154
 7928TIP3   OH223747   4.908   4.183   0.659  0.6553 -0.1929  0.2678
 7928TIP3    H123748   4.986   4.139   0.692  0.1537 -1.3685 -0.0584
 7928TIP3    H223749   4.931   4.210   0.570  0.9881  0.2943  0.4955
 7929TIP3   OH223750   4.307   2.604   4.649  0.6203  0.2437 -0.3101
 7929TIP3    H123751   4.277   2.681   4.699 -1.1690 -0.1285 -0.7504
 7929TIP3    H223752   4.287   2.625   4.558 -1.7162 -1.4510 -0.2863
 7930TIP3   OH223753   0.252   4.958   5.103  0.2878  0.3056 -0.0810
 7930TIP3    H123754   0.249   4.965   5.199  0.2573  1.3611 -0.1490
 7930TIP3    H223755   0.319   5.022   5.077  2.2640 -1.8182 -0.6061
 7931TIP3   OH223756   5.198   0.351   2.065  0.2743 -0.3949  0.6475
 7931TIP3    H123757   5.167   0.271   2.109 -0.2835 -0.2745  0.4806
 7931TIP3    H223758   5.226   0.321   1.979  1.8523 -0.7193  1.2314
 7932TIP3   OH223759   2.024   5.474   2.600 -0.1048 -0.0067 -0.1403
 7932TIP3    H123760   2.024   5.547   2.538 -0.0652  0.1660  0.0601
 7932TIP3    H223761   2.074   5.506   2.675 -0.6117 -0.0092  0.2109
 7933TIP3   OH223762   2.879   0.197   1.981  0.1536  0.5478 -0.2506
 7933TIP3    H123763   2.965   0.200   2.022 -0.2438  1.5031  0.5664
 7933TIP3    H223764   2.818   0.181   2.054 -0.3745 -0.0448 -0.8015
 7934TIP3   OH223765   2.127   3.538   4.091 -0.0440  0.5626 -0.6918
 7934TIP3    H123766   2.180   3.602   4.043  0.3651 -0.0222 -1.0389
 7934TIP3    H223767   2.174   3.455   4.080 -1.4671 -0.1497 -1.7194
 7935TIP3   OH223768   1.520   1.030   0.038  0.1365 -0.2458  0.0050
 7935TIP3    H123769   1.610   1.005   0.061 -0.0307 -0.4021  0.4988
 7935TIP3    H223770   1.470   0.949   0.045  0.1158 -0.3475 -1.1343
 7936TIP3   OH223771   5.502   1.933   1.985 -0.6971 -0.1683 -0.7693
 7936TIP3    H123772   5.518   2.025   2.003  2.6013 -0.7685  0.0047
 7936TIP3    H223773   5.419   1.914   2.028 -0.0567  1.7855  1.5135
 7937TIP3   OH223774   4.138   2.798   1.631  0.6327  0.5764  0.4324
 7937TIP3    H123775   4.050   2.775   1.602  1.4582 -0.5097 -1.3860
 7937TIP3    H223776   4.175   2.715   1.663  1.7815  0.4488 -1.0976
 7938TIP3   OH223777   3.232   3.526   0.140  0.1160 -0.3527  0.4624
 7938TIP3    H123778   3.297   3.534   0.070 -0.0379 -0.6823  0.2738
 7938TIP3    H223779   3.269   3.574   0.214 -0.9498  2.4078 -0.6792
 7939TIP3   OH223780   5.878   6.071   3.090  0.0268  0.3892  0.4730
 7939TIP3    H123781   5.926   6.067   3.173  1.3008  2.7431 -0.0512
 7939TIP3    H223782   5.824   6.150   3.097 -0.7430 -0.0242 -0.5090
 7940TIP3   OH223783   1.071   1.680   3.155 -0.1986  0.7739 -0.0587
 7940TIP3    H123784   1.142   1.694   3.218  0.7022  1.0317 -1.0937
 7940TIP3    H223785   1.054   1.586   3.158  0.3173  0.6838  0.0549
 7941TIP3   OH223786   3.051   4.805   3.372 -0.1110  0.1456  0.1274
 7941TIP3    H123787   2.964   4.844   3.372 -0.0233  0.4149  1.6847
 7941TIP3    H223788   3.087   4.826   3.459 -0.1921 -3.6682  1.2437
 7942TIP3   OH223789   3.840   2.865   3.462  0.0694  0.0370 -0.8582
 7942TIP3    H123790   3.769   2.904   3.513 -0.8279 -0.1243 -1.9449
 7942TIP3    H223791   3.879   2.939   3.415  0.7361  0.1464 -0.1661
 7943TIP3   OH223792   6.455   0.624   5.216  0.1054  0.0084  0.3950
 7943TIP3    H123793   6.404   0.608   5.137 -0.2909 -0.3794  0.7264
 7943TIP3    H223794   6.468   0.537   5.254  1.6849 -0.0033 -0.0877
 7944TIP3   OH223795   6.196   4.809   1.079  0.2070  0.5258 -0.2250
 7944TIP3    H123796   6.105   4.784   1.063  0.9922 -1.9113 -1.2632
 7944TIP3    H223797   6.247   4.755   1.019  2.4589  0.8520  1.2798
 7945TIP3   OH223798   6.017   5.902   3.881 -0.4719  0.1446 -0.1956
 7945TIP3    H123799   5.938   5.954   3.867 -0.6207 -0.1043 -0.2955
 7945TIP3    H223800   6.066   5.950   3.948 -0.7808  0.2213 -0.0198
 7946TIP3   OH223801   5.051   3.754   4.769 -0.1495  0.5585  0.2468
 7946TIP3    H123802   5.093   3.783   4.688  0.3158 -1.7318 -0.3956
 7946TIP3    H223803   5.122   3.719   4.822 -0.6859  0.5112  0.9460
 7947TIP3   OH223804   2.859   1.946   5.484  0.5546  0.0677 -0.6671
 7947TIP3    H123805   2.910   2.021   5.514 -2.1530  1.6836  0.2583
 7947TIP3    H223806   2.871   1.944   5.390 -0.9717  3.1350 -1.0617
 7948TIP3   OH223807   4.254   1.403   2.938 -0.1533 -0.5463 -0.1519
 7948TIP3    H123808   4.337   1.438   2.906 -0.7876  1.8615  0.6090
 7948TIP3    H223809   4.196   1.479   2.943 -1.7480 -1.7760  1.3760
 7949TIP3   OH223810   4.991   4.854   1.495  0.3429  0.4372 -0.2863
 7949TIP3    H123811   4.994   4.802   1.415 -0.7804  1.2820 -0.9124
 7949TIP3    H223812   5.083   4.876   1.513  0.9407 -2.2480  0.3880
 7950TIP3   OH223813   0.440   0.837   3.458 -0.1817  0.1167 -0.1553
 7950TIP3    H123814   0.362   0.893   3.463 -0.1144  0.0774  2.9739
 7950TIP3    H223815   0.425   0.768   3.523  1.8533 -0.7319 -0.5051
 7951TIP3   OH223816   3.302   5.646   5.179  0.3562 -0.4091  0.1879
 7951TIP3    H123817   3.335   5.736   5.171  1.8309 -1.0604 -2.8883
 7951TIP3    H223818   3.246   5.634   5.102  0.3481 -2.1721  0.4287
 7952TIP3   OH223819   3.675   3.684   1.427  0.0656 -0.2522  0.3518
 7952TIP3    H123820   3.692   3.602   1.380 -1.4958  0.8878 -2.4336
 7952TIP3    H223821   3.754   3.736   1.416  0.2748 -0.5792  0.3096
 7953TIP3   OH223822   3.328   5.512   4.047 -0.6761  0.4070  0.5440
 7953TIP3    H123823   3.250   5.559   4.076 -0.0295  0.8857  1.5368
 7953TIP3    H223824   3.367   5.570   3.981  0.5162  1.6567  2.2865
 7954TIP3   OH223825   0.266   4.348   3.367  0.2115  0.1505  0.4065
 7954TIP3    H123826   0.274   4.278   3.432  0.0824  1.3566  1.7695
 7954TIP3    H223827   0.337   4.408   3.387  1.3168 -0.3592 -1.7848
 7955TIP3   OH223828   4.816   4.837   0.088  0.2044  0.0499 -0.2681
 7955TIP3    H123829   4.856   4.774   0.028 -0.0138 -0.9123  0.5698
 7955TIP3    H223830   4.737   4.793   0.119  0.0886  0.7145  0.3959
 7956TIP3   OH223831   0.893   5.832   2.757 -0.1622 -0.0808  0.2543
 7956TIP3    H123832   0.882   5.927   2.757 -1.5731 -0.2088  1.2107
 7956TIP3    H223833   0.816   5.798   2.713  0.1897 -0.7991  0.1696
 7957TIP3   OH223834   5.050   0.643   1.191 -0.2852 -0.9254  0.1850
 7957TIP3    H123835   5.090   0.582   1.254 -0.9065 -0.4777  1.0323
 7957TIP3    H223836   4.967   0.669   1.232 -0.9859 -1.0709 -1.0860
 7958TIP3   OH223837   2.880   0.549   0.050  0.0675  0.2689 -0.1347
 7958TIP3    H123838   2.866   0.478   0.113 -0.7501 -1.3840 -2.0685
 7958TIP3    H223839   2.968   0.534   0.016  0.1579  0.6114 -0.0579
 7959TIP3   OH223840   1.145   6.059   2.787 -0.3562  0.6022 -0.6971
 7959TIP3    H123841   1.050   6.070   2.790 -0.5226 -0.1299 -2.3861
 7959TIP3    H223842   1.159   5.966   2.803  0.0071  0.5386 -1.3543
 7960TIP3   OH223843   4.854   3.858   1.613 -0.0402  0.5095 -0.1315
 7960TIP3    H123844   4.881   3.909   1.536  0.3174  1.0800  0.3620
 7960TIP3    H223845   4.801   3.787   1.577 -0.1769  0.9764 -0.8761
 7961TIP3   OH223846   0.740   2.032   0.901  0.6925 -0.3980 -0.5692
 7961TIP3    H123847   0.835   2.030   0.901  0.7313 -0.1414 -2.2363
 7961TIP3    H223848   0.717   2.109   0.953  1.2288 -2.1797  2.6069
 7962TIP3   OH223849   5.394   1.542   4.116  0.2948  0.4856  0.2170
 7962TIP3    H123850   5.341   1.464   4.096 -2.7499  2.4010  0.1557
 7962TIP3    H223851   5.435   1.523   4.200 -0.7227 -1.0052  0.4140
 7963TIP3   OH223852   3.161   4.410   1.750 -0.1012 -0.5091  0.0500
 7963TIP3    H123853   3.089   4.349   1.758 -0.1961 -0.4439 -0.3087
 7963TIP3    H223854   3.143   4.477   1.817 -1.2727  0.4182 -1.1432
 7964TIP3   OH223855   2.066   1.480   0.251  0.2217  0.0327 -0.6038
 7964TIP3    H123856   2.107   1.508   0.333  0.1986 -1.5776 -0.0059
 7964TIP3    H223857   2.138   1.479   0.187  0.1765  1.6057 -0.7156
 7965TIP3   OH223858   3.591   1.347   1.083 -0.4788  0.2645 -0.4229
 7965TIP3    H123859   3.506   1.383   1.107 -0.8453 -0.6304 -0.3288
 7965TIP3    H223860   3.645   1.357   1.161 -0.3925  1.1125 -0.5788
 7966TIP3   OH223861   4.083   6.198   1.365 -0.7885 -0.0450 -0.0933
 7966TIP3    H123862   4.108   6.280   1.407 -0.5717  0.8209 -1.8033
 7966TIP3    H223863   3.987   6.198   1.366 -0.7874 -0.3933  1.0157
 7967TIP3   OH223864   5.709   5.302   0.064 -0.2839  0.1335  0.0819
 7967TIP3    H123865   5.788   5.353   0.084  0.0337 -0.3191 -0.0144
 7967TIP3    H223866   5.710   5.230   0.127 -0.2889 -0.2240 -0.3215
 7968TIP3   OH223867   0.244   6.066   0.378  0.4983  0.1350 -0.2484
 7968TIP3    H123868   0.305   6.045   0.307  1.6404  0.6659  0.5370
 7968TIP3    H223869   0.296   6.119   0.439 -0.7408  0.5421  0.4891
 7969TIP3   OH223870   6.712   5.024   2.794 -0.0135 -0.0281  1.0784
 7969TIP3    H123871   6.798   5.050   2.827  0.0902 -0.2444  0.9863
 7969TIP3    H223872   6.684   5.097   2.740  1.4272 -1.0965 -1.3015
 7970TIP3   OH223873   3.830   1.198   1.225  0.8418 -0.0102  0.3802
 7970TIP3    H123874   3.919   1.176   1.253  1.0586 -0.5112 -0.6475
 7970TIP3    H223875   3.818   1.289   1.251  1.5315 -0.0401  0.8276
 7971TIP3   OH223876   6.875   1.025   2.578  0.1224 -0.1694 -0.1939
 7971TIP3    H123877   6.889   0.942   2.531 -2.0763 -0.3401 -0.6521
 7971TIP3    H223878   6.824   1.001   2.655 -0.6152  0.7689 -0.3766
 7972TIP3   OH223879   3.720   3.046   1.382  0.6073 -0.1712 -0.6498
 7972TIP3    H123880   3.704   2.961   1.423  0.8410 -0.0715 -0.3519
 7972TIP3    H223881   3.684   3.037   1.294  0.9230 -0.6856 -0.7292
 7973TIP3   OH223882   4.385   2.391   0.671 -0.0993 -0.1150 -0.6775
 7973TIP3    H123883   4.368   2.413   0.580 -1.6781  2.2407  0.1163
 7973TIP3    H223884   4.473   2.425   0.688 -1.0327  2.3524 -0.5168
 7974TIP3   OH223885   2.503   5.954   0.641  0.2294  0.2519  0.2966
 7974TIP3    H123886   2.433   6.014   0.613 -0.0589 -0.3127 -0.2089
 7974TIP3    H223887   2.583   5.992   0.605 -0.1277 -0.4400 -1.3056
 7975TIP3   OH223888   0.663   6.589   5.778  0.4675  0.2228 -0.0755
 7975TIP3    H123889   0.722   6.661   5.756 -0.4432  0.5255 -1.6444
 7975TIP3    H223890   0.703   6.512   5.737  2.0077 -0.4734  2.4728
 7976TIP3   OH223891   1.449   6.209   3.419 -0.3723 -0.0386 -0.1434
 7976TIP3    H123892   1.464   6.220   3.325 -0.7411 -3.0253 -0.6559
 7976TIP3    H223893   1.403   6.289   3.446 -0.6795  0.6869 -2.5818
 7977TIP3   OH223894   4.927   0.171   1.045 -0.3561  0.2232  0.4365
 7977TIP3    H123895   4.969   0.116   0.980 -0.0024  1.7183 -0.6654
 7977TIP3    H223896   4.995   0.188   1.111 -0.4796 -0.6500  0.7984
 7978TIP3   OH223897   0.547   4.916   1.216 -0.0367  0.0159 -0.2749
 7978TIP3    H123898   0.550   4.837   1.162 -1.1382 -0.2316 -0.0080
 7978TIP3    H223899   0.468   4.962   1.186  1.2053  1.6284 -1.2359
 7979TIP3   OH223900   6.286   6.572   0.811 -1.1059  0.5756  0.0730
 7979TIP3    H123901   6.277   6.527   0.895  0.0377  0.7425  0.3071
 7979TIP3    H223902   6.290   6.502   0.746  1.3655  0.2470  0.4987
 7980TIP3   OH223903   4.765   0.492   2.101  0.1090  0.3180  0.0392
 7980TIP3    H123904   4.854   0.511   2.131  0.1940 -0.6393  0.4379
 7980TIP3    H223905   4.709   0.525   2.171  0.0920  1.5055 -0.4996
 7981TIP3   OH223906   6.733   2.820   5.459 -0.3035 -0.2113 -0.5339
 7981TIP3    H123907   6.641   2.794   5.465 -0.8964  1.6373 -1.1807
 7981TIP3    H223908   6.737   2.878   5.384  1.2958  0.2202 -0.1516
 7982TIP3   OH223909   3.964   4.732   0.882 -0.0675 -0.3199 -0.3165
 7982TIP3    H123910   3.962   4.777   0.966 -1.3439 -0.8949 -0.0080
 7982TIP3    H223911   4.010   4.649   0.900 -0.0214 -0.2846 -0.2738
 7983TIP3   OH223912   3.035   6.616   0.794  0.1654 -0.1496 -0.0178
 7983TIP3    H123913   3.086   6.672   0.736  3.7413 -0.4377  2.5272
 7983TIP3    H223914   3.070   6.528   0.780  0.5432 -0.3453  1.8581
 7984TIP3   OH223915   4.610   4.720   5.112 -0.1817  0.4599  0.1886
 7984TIP3    H123916   4.581   4.660   5.181  0.1794  0.2143  0.1251
 7984TIP3    H223917   4.587   4.807   5.146 -0.9659  0.2754  0.1576
 7985TIP3   OH223918   5.649   0.037   1.856 -0.0770  0.4781  0.2481
 7985TIP3    H123919   5.740   0.008   1.856 -0.0384  0.5922  0.1433
 7985TIP3    H223920   5.640   0.088   1.936 -0.1295  0.2225  0.4044
 7986TIP3   OH223921   3.110   6.434   1.148 -0.1035 -0.3102 -0.0800
 7986TIP3    H123922   3.126   6.396   1.234 -0.6431 -1.6338 -0.5332
 7986TIP3    H223923   3.050   6.508   1.164 -0.1489 -0.5072  0.6770
 7987TIP3   OH223924   5.172   1.166   4.856 -0.3446 -0.4552  0.0607
 7987TIP3    H123925   5.202   1.087   4.901 -2.4659 -1.2351  0.2193
 7987TIP3    H223926   5.246   1.192   4.801  0.6403 -2.1549  0.5146
 7988TIP3   OH223927   2.436   4.004   5.088  0.2510  0.5686  0.0739
 7988TIP3    H123928   2.518   4.040   5.123  2.2989 -1.6391 -2.0645
 7988TIP3    H223929   2.436   4.031   4.996 -0.6120 -0.7586 -0.3378
 7989TIP3   OH223930   1.411   3.049   3.619 -0.5489 -0.1455  1.0848
 7989TIP3    H123931   1.483   3.091   3.572 -1.3916 -0.4612 -0.5999
 7989TIP3    H223932   1.442   2.961   3.638 -0.2136 -0.0374  1.0353
 7990TIP3   OH223933   2.977   4.774   3.101  0.7018 -0.0996 -0.0171
 7990TIP3    H123934   2.924   4.695   3.090  2.3659 -1.2751 -0.0329
 7990TIP3    H223935   3.028   4.758   3.181  2.8507 -0.1614 -1.3143
 7991TIP3   OH223936   1.188   0.232   0.902 -0.2255 -0.1182  0.2436
 7991TIP3    H123937   1.251   0.163   0.880 -0.3462  0.7905 -3.7396
 7991TIP3    H223938   1.106   0.186   0.919  0.4040 -1.0757  0.7660
 7992TIP3   OH223939   3.625   1.760   1.519  0.7261  0.2631  0.0822
 7992TIP3    H123940   3.672   1.750   1.602 -2.2421  1.0358  1.9807
 7992TIP3    H223941   3.540   1.719   1.534  0.7193 -1.3061 -3.2882
 7993TIP3   OH223942   3.310   6.062   1.723  0.9201  0.6258  0.3064
 7993TIP3    H123943   3.381   6.085   1.663 -0.0089 -0.3703 -1.2424
 7993TIP3    H223944   3.231   6.099   1.683  0.0662 -1.2627  0.1236
 7994TIP3   OH223945   4.758   5.261   3.924  0.1020  0.4213  0.5137
 7994TIP3    H123946   4.845   5.243   3.960  0.2207 -0.6801 -0.2643
 7994TIP3    H223947   4.701   5.198   3.967 -0.1021  0.3904  0.2010
 7995TIP3   OH223948   6.396   1.298   0.331 -0.4482  0.0518  0.2270
 7995TIP3    H123949   6.489   1.310   0.348 -0.1693 -1.4220 -0.1054
 7995TIP3    H223950   6.352   1.348   0.400  0.5991 -0.4715  1.3018
 7996TIP3   OH223951   6.290   5.822   2.258  0.6964 -0.1958 -0.2328
 7996TIP3    H123952   6.289   5.770   2.338 -0.8875  0.1825  0.0111
 7996TIP3    H223953   6.330   5.905   2.284 -0.8436  0.3548  0.4640
 7997TIP3   OH223954   0.468   2.325   1.067  0.0826 -0.8873 -0.1224
 7997TIP3    H123955   0.417   2.330   0.986 -0.3551 -0.4303  0.1768
 7997TIP3    H223956   0.558   2.309   1.038 -0.5838 -5.0136 -0.6209
 7998TIP3   OH223957   7.124   5.300   5.153  0.0232  0.2986  0.0324
 7998TIP3    H123958   7.183   5.254   5.213 -0.9217 -1.1556 -0.1213
 7998TIP3    H223959   7.182   5.359   5.104  1.0425  0.3455  1.2393
 7999TIP3   OH223960   0.328   0.673   5.625 -0.2984 -0.1355  0.3469
 7999TIP3    H123961   0.292   0.712   5.545 -0.8397  1.8913  1.4925
 7999TIP3    H223962   0.253   0.631   5.667 -0.6028  1.0402  1.0172
 8000TIP3   OH223963   5.002   2.414   3.011  0.5327 -0.0456  0.0639
 8000TIP3    H123964   5.013   2.349   2.941  0.1852  1.4596 -1.4672
 8000TIP3    H223965   5.092   2.444   3.029  0.5184  0.5553 -0.7743
 8001TIP3   OH223966   4.936   5.166   2.805 -0.0912 -1.0350  0.2668
 8001TIP3    H123967   4.852   5.120   2.803 -0.6896  0.0244  0.2859
 8001TIP3    H223968   4.913   5.259   2.807  1.0816 -0.7249  0.4477
 8002TIP3   OH223969   2.861   2.464   3.645  0.0186  0.4771 -0.2706
 8002TIP3    H123970   2.833   2.555   3.645 -3.0562 -0.3548  0.6765
 8002TIP3    H223971   2.826   2.428   3.726 -1.3362 -2.1964 -1.9011
 8003TIP3   OH223972   1.566   1.902   0.447  0.1220  0.4164 -0.5043
 8003TIP3    H123973   1.646   1.955   0.447  0.9976 -0.8709 -0.0517
 8003TIP3    H223974   1.548   1.887   0.354 -0.4984  1.9885 -0.6756
 8004TIP3   OH223975   6.803   6.522   2.968 -0.4793 -0.0070  0.2881
 8004TIP3    H123976   6.735   6.532   3.034 -0.8856 -0.2086 -0.0990
 8004TIP3    H223977   6.874   6.477   3.013 -0.7377 -0.1044  0.5971
 8005TIP3   OH223978   0.213   5.443   3.626 -0.3807  0.1739 -0.2968
 8005TIP3    H123979   0.217   5.353   3.657  0.3269 -0.1578 -1.2805
 8005TIP3    H223980   0.289   5.486   3.666 -0.4237  0.1968 -0.2395
 8006TIP3   OH223981   1.440   1.736   2.917  0.0051 -0.0710  0.1869
 8006TIP3    H123982   1.467   1.790   2.843  0.7262  0.5400  0.8722
 8006TIP3    H223983   1.370   1.785   2.959 -1.0041 -0.8231 -0.5639
 8007TIP3   OH223984   5.784   4.461   1.328 -0.1514 -0.0784  0.6980
 8007TIP3    H123985   5.710   4.418   1.285 -0.3656  1.6052 -0.7494
 8007TIP3    H223986   5.861   4.418   1.291 -0.3745 -0.4990  0.7140
 8008TIP3   OH223987   5.805   2.249   4.885 -1.2534 -0.5182  0.2286
 8008TIP3    H123988   5.764   2.254   4.799 -0.6764 -0.8657 -0.0742
 8008TIP3    H223989   5.786   2.334   4.926  0.3426  0.5727 -1.1291
 8009TIP3   OH223990   5.540   0.289   3.805  0.0573 -0.3591 -0.3498
 8009TIP3    H123991   5.474   0.223   3.825 -0.2874 -0.1197 -0.6820
 8009TIP3    H223992   5.593   0.295   3.884 -0.5641 -0.2740  0.0656
 8010TIP3   OH223993   4.580   4.303   1.164 -0.8384 -0.1342 -0.3599
 8010TIP3    H123994   4.574   4.208   1.175 -2.5998  0.1217  1.3877
 8010TIP3    H223995   4.516   4.324   1.097  1.2794 -0.3588 -2.6046
 8011TIP3   OH223996   5.467   2.589   5.399  0.3364  0.2661  0.3093
 8011TIP3    H123997   5.428   2.550   5.477  1.8605  0.5891  1.2884
 8011TIP3    H223998   5.476   2.682   5.420 -2.5383  1.1427 -1.7023
 8012TIP3   OH223999   1.438   4.033   5.587  0.5448  0.2867 -0.2341
 8012TIP3    H124000   1.444   4.012   5.493  0.8379 -0.2139 -0.1099
 8012TIP3    H224001   1.372   4.102   5.592  0.5732  0.3663 -0.8186
 8013TIP3   OH224002   3.797   4.753   3.601  0.4886 -0.0504 -0.6350
 8013TIP3    H124003   3.838   4.667   3.600 -0.8852 -0.7716 -2.9740
 8013TIP3    H224004   3.703   4.735   3.598  0.1750  1.4961 -1.3171
 8014TIP3   OH224005   4.728   1.343   3.444  0.2259  0.0397 -0.2779
 8014TIP3    H124006   4.812   1.353   3.399  0.9084 -0.9462  0.7221
 8014TIP3    H224007   4.679   1.423   3.422  0.7313 -0.1497 -2.2788
 8015TIP3   OH224008   6.008   3.623   3.091 -0.1533  0.0861 -0.0854
 8015TIP3    H124009   5.983   3.635   3.183  0.8864 -0.0536  0.2284
 8015TIP3    H224010   6.056   3.541   3.090 -0.3198 -0.0066 -0.7972
 8016TIP3   OH224011   2.910   4.464   5.102 -0.2176  0.3351 -0.1967
 8016TIP3    H124012   2.901   4.424   5.189  0.9876 -1.1504 -0.7147
 8016TIP3    H224013   2.962   4.543   5.117  2.0137 -1.1091  0.1926
 8017TIP3   OH224014   2.765   1.823   4.644 -0.1269 -0.1879  0.3369
 8017TIP3    H124015   2.808   1.905   4.622  0.6143 -0.4802  0.6630
 8017TIP3    H224016   2.813   1.757   4.595 -0.0501 -0.5422  0.8789
 8018TIP3   OH224017   4.161   0.475   2.105 -0.7227 -0.0971  0.8074
 8018TIP3    H124018   4.206   0.394   2.129 -0.4495 -0.1003  0.3112
 8018TIP3    H224019   4.068   0.453   2.110 -0.6474 -0.5238  0.4255
 8019TIP3   OH224020   3.981   2.174   0.029 -0.0319 -0.0175  0.4975
 8019TIP3    H124021   3.889   2.195   0.040 -0.1723 -0.7187  0.7159
 8019TIP3    H224022   4.002   2.117   0.102  0.1618 -1.1611 -0.4222
 8020TIP3   OH224023   4.625   4.157   2.353 -0.1911 -0.0075 -0.0365
 8020TIP3    H124024   4.532   4.154   2.378 -0.1166 -0.0547  0.2385
 8020TIP3    H224025   4.624   4.181   2.261 -0.4239  2.0082  0.4409
 8021TIP3   OH224026   2.022   1.763   3.119 -0.1531  0.0134 -0.1553
 8021TIP3    H124027   2.049   1.805   3.201  1.7685 -1.8595  0.2527
 8021TIP3    H224028   2.038   1.830   3.052  1.5792  0.4258  0.6118
 8022TIP3   OH224029   4.000   3.333   1.274 -0.6057 -0.1088 -0.5166
 8022TIP3    H124030   3.994   3.244   1.240  1.4547 -0.1480 -0.8720
 8022TIP3    H224031   4.024   3.386   1.198 -1.7050  0.7480 -0.2819
 8023TIP3   OH224032   0.976   3.627   5.302 -0.6308 -0.3551 -0.2769
 8023TIP3    H124033   1.039   3.564   5.267  0.7569  0.9175 -0.1711
 8023TIP3    H224034   0.969   3.604   5.395  1.8781  1.1711  0.3751
 8024TIP3   OH224035   4.499   2.166   0.215 -0.4948  0.4739 -0.1977
 8024TIP3    H124036   4.442   2.242   0.205 -0.8367  0.3381  0.6073
 8024TIP3    H224037   4.444   2.092   0.188 -1.1231  0.2093  1.6725
 8025TIP3   OH224038   2.473   1.286   2.218 -0.9885  0.2743 -0.0226
 8025TIP3    H124039   2.456   1.336   2.138 -2.6480  1.2666  0.8833
 8025TIP3    H224040   2.528   1.344   2.271 -3.9449  1.8800  1.5652
 8026TIP3   OH224041   3.076   4.126   2.426  0.2902 -0.2704  0.1809
 8026TIP3    H124042   3.114   4.074   2.356  2.0106  1.1998 -0.0463
 8026TIP3    H224043   3.033   4.062   2.483  0.2511 -1.6551 -1.3258
 8027TIP3   OH224044   6.719   4.415   5.517  0.4078 -0.3919 -0.1473
 8027TIP3    H124045   6.688   4.353   5.582  0.0584  0.7403  0.7941
 8027TIP3    H224046   6.685   4.383   5.434 -0.7112 -0.8354  0.4736
 8028TIP3   OH224047   2.743   6.647   4.827 -0.1282  0.3453  0.8024
 8028TIP3    H124048   2.835   6.638   4.799 -0.3053  1.3815 -0.1802
 8028TIP3    H224049   2.734   6.583   4.898  1.4910  0.5653  1.2668
 8029TIP3   OH224050   4.412   2.033   4.552  0.3966  0.0962  0.0118
 8029TIP3    H124051   4.397   1.964   4.487  0.5344  0.1352 -0.0602
 8029TIP3    H224052   4.487   2.003   4.602 -1.0535 -1.0391  1.6363
 8030TIP3   OH224053   7.097   2.756   4.696 -0.1316  0.7341  0.3632
 8030TIP3    H124054   7.163   2.720   4.637  0.5872  0.6111  1.2266
 8030TIP3    H224055   7.040   2.681   4.716  0.1819  0.5455  0.5656
 8031TIP3   OH224056   2.450   6.687   2.438 -0.5171 -0.0902  0.3702
 8031TIP3    H124057   2.499   6.610   2.467 -1.5712 -0.4894  1.1207
 8031TIP3    H224058   2.424   6.665   2.348 -0.3603 -0.3832  0.3919
 8032TIP3   OH224059   4.436   1.275   3.504  0.0624 -0.1682  0.2024
 8032TIP3    H124060   4.463   1.253   3.593 -0.5292 -0.9660  0.1935
 8032TIP3    H224061   4.512   1.251   3.450  0.2986  0.0102  0.4509
 8033TIP3   OH224062   4.986   3.439   0.317  0.2730 -0.0177  0.5606
 8033TIP3    H124063   4.965   3.354   0.355 -0.9342  0.6725  1.5233
 8033TIP3    H224064   4.902   3.482   0.305  0.9272  1.9234  2.2800
 8034TIP3   OH224065   0.804   4.225   3.328  0.4514 -0.4245 -0.3414
 8034TIP3    H124066   0.874   4.198   3.269  1.7442  0.2439  0.8171
 8034TIP3    H224067   0.817   4.171   3.406 -2.0014 -2.1954 -1.0502
 8035TIP3   OH224068   0.249   5.785   0.434 -0.3969  0.2090 -0.5278
 8035TIP3    H124069   0.268   5.876   0.458  0.2534 -0.0829  0.1250
 8035TIP3    H224070   0.161   5.768   0.468 -0.4659  0.5529 -0.5356
 8036TIP3   OH224071   0.279   1.983   5.211  0.2063  1.0001  0.2747
 8036TIP3    H124072   0.325   2.010   5.290 -1.4417  0.1983  1.5603
 8036TIP3    H224073   0.284   2.059   5.153 -1.2707  2.8399  2.4033
 8037TIP3   OH224074   6.290   6.365   3.396  0.3331 -0.1161 -0.2776
 8037TIP3    H124075   6.371   6.394   3.437 -0.7729  1.8786  0.6204
 8037TIP3    H224076   6.317   6.329   3.312  2.2823 -0.9528  0.6444
 8038TIP3   OH224077   2.568   6.379   0.544  0.9987 -0.2128  0.7189
 8038TIP3    H124078   2.546   6.353   0.633 -0.1925  0.6264  0.6803
 8038TIP3    H224079   2.663   6.390   0.546  0.9790 -0.1291  1.8995
 8039TIP3   OH224080   2.245   4.826   0.525 -0.1349  0.6108 -0.0895
 8039TIP3    H124081   2.223   4.737   0.497  0.7868  0.6247 -0.9041
 8039TIP3    H224082   2.192   4.883   0.469 -0.9981  0.5916  0.6756
 8040TIP3   OH224083   1.065   2.349   1.519 -0.3333  0.0345 -0.0816
 8040TIP3    H124084   0.999   2.308   1.575 -0.6190  1.6151  0.8286
 8040TIP3    H224085   1.015   2.387   1.447 -0.7507  2.5456  1.3771
 8041TIP3   OH224086   5.444   5.328   0.573 -0.1984  0.3645 -0.0048
 8041TIP3    H124087   5.525   5.342   0.524  0.2220  1.9655  1.0418
 8041TIP3    H224088   5.396   5.410   0.562 -1.2545 -0.2174  0.1643
 8042TIP3   OH224089   7.009   5.491   2.238  0.8434  0.1922 -0.0373
 8042TIP3    H124090   6.991   5.399   2.218  0.9609  0.0240  0.6271
 8042TIP3    H224091   7.068   5.519   2.168  0.3226 -0.0614 -0.5894
 8043TIP3   OH224092   1.559   2.993   4.488 -0.3044  0.5102 -0.3874
 8043TIP3    H124093   1.589   2.904   4.468 -0.8696 -0.0770  1.2164
 8043TIP3    H224094   1.539   3.031   4.402  1.1521 -0.4453 -1.1981
 8044TIP3   OH224095   7.217   2.797   3.758  0.1525  0.2012 -0.0026
 8044TIP3    H124096   7.142   2.743   3.731 -0.8729  2.2071 -1.4416
 8044TIP3    H224097   7.180   2.859   3.821  0.9968  0.1587  0.5535
 8045TIP3   OH224098   3.678   0.594   5.209  0.2517 -0.4578 -0.1607
 8045TIP3    H124099   3.765   0.555   5.202  0.6722  0.4813 -0.4549
 8045TIP3    H224100   3.652   0.611   5.119  0.0980 -0.0311 -0.0395
 8046TIP3   OH224101   3.668   0.400   5.858  0.1923  0.5228  0.2039
 8046TIP3    H124102   3.743   0.447   5.894  0.3944 -0.0890  0.5889
 8046TIP3    H224103   3.593   0.435   5.906  0.3947  0.1354  0.8166
 8047TIP3   OH224104   3.019   4.939   2.219  0.6880  0.1343 -0.2288
 8047TIP3    H124105   3.044   5.028   2.241 -0.2573  1.0694 -2.6404
 8047TIP3    H224106   2.929   4.946   2.189  0.4737 -1.7038 -0.1366
 8048TIP3   OH224107   1.909   4.903   1.309 -0.5416  0.0986  0.0316
 8048TIP3    H124108   1.899   4.934   1.398  0.6381  1.1058 -0.1766
 8048TIP3    H224109   1.822   4.915   1.270 -0.1975  3.0898 -0.0116
 8049TIP3   OH224110   5.600   6.128   4.421 -0.5418  0.3747  0.1741
 8049TIP3    H124111   5.617   6.220   4.400 -2.0330  0.2593 -1.8698
 8049TIP3    H224112   5.594   6.126   4.516 -0.0172  2.3069  0.2935
 8050TIP3   OH224113   0.505   5.703   0.088  0.0971 -0.1786  0.3038
 8050TIP3    H124114   0.426   5.754   0.107  0.1774 -0.0840  0.3850
 8050TIP3    H224115   0.531   5.730  -0.001 -1.0971 -1.6736 -0.5359
 8051TIP3   OH224116   0.852   2.039   2.089  0.5136 -0.0670 -0.7186
 8051TIP3    H124117   0.936   2.001   2.114 -0.3875  0.3710  3.8646
 8051TIP3    H224118   0.870   2.133   2.078  1.0247 -0.3425 -2.6102
 8052TIP3   OH224119   2.177   4.958   1.932 -0.2370  0.4590  0.0613
 8052TIP3    H124120   2.214   5.035   1.974 -0.4462  0.0690  0.9878
 8052TIP3    H224121   2.104   4.933   1.988  1.1758 -1.7324  1.0696
 8053TIP3   OH224122   5.907   0.377   1.297  0.7003  0.5139  0.4091
 8053TIP3    H124123   5.956   0.459   1.303  2.1021 -0.1322 -1.2732
 8053TIP3    H224124   5.942   0.334   1.219 -0.3085 -1.4917  0.9932
 8054TIP3   OH224125   1.625   4.158   4.908 -0.4909 -0.0920  0.4454
 8054TIP3    H124126   1.619   4.201   4.993 -1.3565 -0.2533  0.4795
 8054TIP3    H224127   1.539   4.116   4.896  0.2112 -1.5238  0.2575
 8055TIP3   OH224128   3.982   4.073   0.619 -0.5803  0.2777  0.1614
 8055TIP3    H124129   3.986   4.164   0.648  0.8587 -0.1116  1.3169
 8055TIP3    H224130   4.060   4.062   0.564  0.3454 -0.7148  1.5894
 8056TIP3   OH224131   4.719   1.196   0.807  0.4377 -0.3261  0.2845
 8056TIP3    H124132   4.675   1.136   0.867 -0.5791  0.8649  0.7658
 8056TIP3    H224133   4.655   1.212   0.738  0.6696  0.2575  0.2002
 8057TIP3   OH224134   4.775   3.314   1.218 -0.5587 -0.0724 -0.0643
 8057TIP3    H124135   4.834   3.344   1.286 -0.5072 -3.1415  1.3638
 8057TIP3    H224136   4.832   3.292   1.144 -0.3762  0.7737 -0.1938
 8058TIP3   OH224137   0.726   5.816   5.343  0.5904 -0.3091 -0.3019
 8058TIP3    H124138   0.691   5.905   5.350  1.4141  0.0174 -0.3367
 8058TIP3    H224139   0.663   5.770   5.287 -0.4205 -0.0577  0.5863
 8059TIP3   OH224140   0.832   3.485   1.127 -0.0155 -0.4689  0.1008
 8059TIP3    H124141   0.761   3.528   1.079  0.2930 -0.7146 -0.5962
 8059TIP3    H224142   0.910   3.499   1.073  0.5931  0.2794  1.1346
 8060TIP3   OH224143   3.083   4.587   1.525  0.1732  0.1483  0.2054
 8060TIP3    H124144   3.117   4.520   1.586 -2.3887 -0.4744  1.0702
 8060TIP3    H224145   3.151   4.594   1.458  1.4125 -1.9281  1.1180
 8061TIP3   OH224146   2.758   4.552   1.760 -0.0896 -0.3916  0.2041
 8061TIP3    H124147   2.791   4.587   1.842  0.1505  0.5721 -0.2884
 8061TIP3    H224148   2.799   4.606   1.692 -3.0306  1.2808 -0.4378
 8062TIP3   OH224149   2.244   0.493   3.953 -0.5150  0.4987 -0.6020
 8062TIP3    H124150   2.309   0.436   3.912  0.3041  0.6683  0.4233
 8062TIP3    H224151   2.268   0.581   3.925 -1.1593  0.4581 -1.3410
 8063TIP3   OH224152   1.830   5.518   1.360 -0.3560 -0.1739 -0.8866
 8063TIP3    H124153   1.734   5.523   1.367 -0.3461  1.6101 -1.5170
 8063TIP3    H224154   1.852   5.580   1.291  1.3802  0.6246  0.3073
 8064TIP3   OH224155   1.116   1.020   3.502 -0.0792 -0.0454  0.1173
 8064TIP3    H124156   1.156   0.956   3.560 -0.8350  1.3417  2.3250
 8064TIP3    H224157   1.029   1.035   3.540 -0.9145  0.3869 -1.8486
 8065TIP3   OH224158   2.476   5.587   1.208  0.4654 -0.1021 -0.4464
 8065TIP3    H124159   2.410   5.606   1.274  0.6297  1.4427 -0.6817
 8065TIP3    H224160   2.545   5.540   1.255 -0.4955 -1.1684 -0.0699
 8066TIP3   OH224161   4.868   3.412   4.926  0.0514 -0.1264 -0.7228
 8066TIP3    H124162   4.829   3.487   4.880 -0.2718  0.0441 -0.1740
 8066TIP3    H224163   4.794   3.355   4.945 -0.0021  0.3536  0.6201
 8067TIP3   OH224164   0.165   0.248   2.194 -0.0399 -0.4202  0.0584
 8067TIP3    H124165   0.170   0.153   2.192  1.6200 -0.3353 -1.5299
 8067TIP3    H224166   0.245   0.278   2.152  0.3216  1.7302  2.0709
 8068TIP3   OH224167   6.359   4.421   4.527 -0.0086  0.4759 -0.5770
 8068TIP3    H124168   6.354   4.336   4.484  0.1508  0.4398 -0.5263
 8068TIP3    H224169   6.298   4.415   4.601 -1.9672  1.2776 -2.0353
 8069TIP3   OH224170   6.688   3.720   3.028 -0.7154 -0.5761  0.2905
 8069TIP3    H124171   6.612   3.778   3.021  0.0728  0.5389  0.7053
 8069TIP3    H224172   6.702   3.689   2.939  0.0041  1.4343 -0.3638
 8070TIP3   OH224173   5.081   3.868   0.223 -0.2248 -0.5030 -0.0980
 8070TIP3    H124174   5.041   3.827   0.146  1.0339 -1.7536 -0.1286
 8070TIP3    H224175   5.020   3.849   0.294 -0.5443 -0.8619 -0.4594
 8071TIP3   OH224176   1.753   2.168   1.544 -0.3517  0.6154  0.3262
 8071TIP3    H124177   1.832   2.120   1.570 -0.1712 -0.2487 -1.6488
 8071TIP3    H224178   1.751   2.244   1.602  1.5993  0.3354  0.8325
 8072TIP3   OH224179   5.814   1.832   5.793 -0.5385 -0.1127 -0.2880
 8072TIP3    H124180   5.832   1.738   5.795  0.8563  0.1403  0.7374
 8072TIP3    H224181   5.839   1.863   5.880  0.0261  1.3716 -0.9387
 8073TIP3   OH224182   4.604   5.729   5.491 -0.3301 -0.2583  0.3460
 8073TIP3    H124183   4.558   5.774   5.421  0.7221 -0.6191 -0.6017
 8073TIP3    H224184   4.582   5.637   5.479  1.9318 -0.6715 -1.1920
 8074TIP3   OH224185   7.133   5.469   0.147 -0.0962 -0.4295  0.0867
 8074TIP3    H124186   7.128   5.562   0.167 -0.1889 -0.3210 -0.4446
 8074TIP3    H224187   7.071   5.428   0.208 -0.5170 -0.0763 -0.0975
 8075TIP3   OH224188   5.485   4.357   5.473 -0.0304  0.2707 -0.7470
 8075TIP3    H124189   5.549   4.405   5.525 -0.6690 -0.8055  1.1485
 8075TIP3    H224190   5.403   4.365   5.523 -0.1795 -2.6341 -0.3317
 8076TIP3   OH224191   1.621   6.728   4.229 -0.6876  0.0913  0.3730
 8076TIP3    H124192   1.644   6.648   4.182 -0.8960  0.1510  0.1700
 8076TIP3    H224193   1.530   6.744   4.207 -0.4090  0.8569 -0.2720
 8077TIP3   OH224194   2.141   4.199   3.856 -0.4626 -0.5363  0.6135
 8077TIP3    H124195   2.162   4.158   3.940 -0.3452 -0.3377  0.6813
 8077TIP3    H224196   2.047   4.183   3.845 -0.4045 -0.8833  0.6057
 8078TIP3   OH224197   3.713   3.170   4.070 -0.5288  0.1577  0.2669
 8078TIP3    H124198   3.704   3.246   4.127  0.2716  0.0353  0.5618
 8078TIP3    H224199   3.675   3.199   3.987 -0.7643  0.6818  0.5482
 8079TIP3   OH224200   4.046   3.574   1.124 -0.8890 -0.1499 -0.8313
 8079TIP3    H124201   3.975   3.637   1.114  0.4404  1.5393 -0.0702
 8079TIP3    H224202   4.034   3.513   1.051 -2.3156  0.8705 -1.5049
 8080TIP3   OH224203   1.594   0.366   2.132 -0.0913  0.1270 -0.5952
 8080TIP3    H124204   1.539   0.349   2.208 -0.6081 -0.8611 -1.1690
 8080TIP3    H224205   1.553   0.441   2.088 -2.0425 -1.6269 -1.9463
 8081TIP3   OH224206   3.520   6.779   5.147 -0.9575 -0.7903 -0.0742
 8081TIP3    H124207   3.604   6.738   5.126 -0.4790 -0.2313  0.6916
 8081TIP3    H224208   3.531   6.870   5.122 -0.9644 -0.4885  0.9694
 8082TIP3   OH224209   4.364   4.844   1.298  0.0494  0.3975 -0.4523
 8082TIP3    H124210   4.434   4.856   1.235  1.5298  0.9671  1.2028
 8082TIP3    H224211   4.389   4.764   1.346 -0.6640  0.3632 -0.1288
 8083TIP3   OH224212   4.354   0.868   2.501  0.6875  0.6110 -0.6938
 8083TIP3    H124213   4.443   0.882   2.469  0.7401  0.7527 -0.4841
 8083TIP3    H224214   4.302   0.854   2.421  0.8670  0.6894 -0.8253
 8084TIP3   OH224215   1.702   1.603   0.923 -0.0452 -0.5390  0.2585
 8084TIP3    H124216   1.665   1.691   0.928  1.4244  0.0493  2.3874
 8084TIP3    H224217   1.796   1.616   0.936  0.4264 -2.3049 -1.0285
 8085TIP3   OH224218   7.076   5.339   3.681  0.3645 -0.9232  0.3367
 8085TIP3    H124219   7.131   5.311   3.755 -1.5237 -0.1923  2.1217
 8085TIP3    H224220   7.061   5.259   3.632  3.6176 -1.0346 -0.7527
 8086TIP3   OH224221   5.178   4.714   4.868 -0.1388  0.0662 -0.0153
 8086TIP3    H124222   5.157   4.741   4.779  1.2563  2.5264  0.3142
 8086TIP3    H224223   5.099   4.734   4.918 -1.7577 -3.3302 -0.9256
 8087TIP3   OH224224   1.425   4.553   3.199  0.3568 -0.3679 -0.2912
 8087TIP3    H124225   1.338   4.594   3.201 -0.0565 -1.2216 -0.1775
 8087TIP3    H224226   1.416   4.474   3.254  1.8209  0.6838  1.5947
 8088TIP3   OH224227   3.885   4.147   4.200 -0.2540  0.1959 -0.3473
 8088TIP3    H124228   3.820   4.184   4.260  0.5346  0.7220  0.2120
 8088TIP3    H224229   3.943   4.221   4.180  1.6524 -0.8007  1.1733
 8089TIP3   OH224230   6.964   6.002   5.309  0.0535  0.3858 -0.1809
 8089TIP3    H124231   6.883   6.015   5.260  0.4518 -0.7299 -1.2030
 8089TIP3    H224232   7.033   6.009   5.243  0.6564 -0.4558  0.3382
 8090TIP3   OH224233   2.502   4.520   0.811 -0.3135  0.2241 -0.6996
 8090TIP3    H124234   2.472   4.610   0.826 -0.6040  0.0182 -0.0084
 8090TIP3    H224235   2.556   4.500   0.887 -0.9915 -0.4992 -0.3985
 8091TIP3   OH224236   6.295   3.115   5.061  0.0774 -0.2872 -0.1223
 8091TIP3    H124237   6.339   3.047   5.111 -0.3766  0.4282  1.2855
 8091TIP3    H224238   6.356   3.136   4.990  1.7602  0.2996  1.4486
 8092TIP3   OH224239   3.136   1.598   2.429  0.4310 -0.4144  0.1137
 8092TIP3    H124240   3.066   1.635   2.376 -0.1653 -2.2624 -0.4478
 8092TIP3    H224241   3.145   1.508   2.398  1.9574 -0.7047  1.2812
 8093TIP3   OH224242   3.392   2.922   3.832 -0.2484 -0.2946 -0.0600
 8093TIP3    H124243   3.326   2.854   3.844 -1.5687  1.1956  1.8530
 8093TIP3    H224244   3.363   2.973   3.757 -1.2205  0.2192  0.6417
 8094TIP3   OH224245   1.431   6.671   5.020  0.2451  0.4970 -0.3153
 8094TIP3    H124246   1.348   6.712   5.046  0.7663  1.7182 -0.5275
 8094TIP3    H224247   1.406   6.609   4.951 -0.6329  0.0073  0.4104
 8095TIP3   OH224248   3.142   6.073   5.177 -0.3040  0.1098 -0.6416
 8095TIP3    H124249   3.088   6.025   5.114  0.5614  1.6316 -2.6670
 8095TIP3    H224250   3.232   6.050   5.154  0.0235  0.0845  0.5988
 8096TIP3   OH224251   6.233   3.592   0.061  0.0870  0.7134  0.0658
 8096TIP3    H124252   6.191   3.511   0.087  0.2703  0.4844 -0.3525
 8096TIP3    H224253   6.164   3.643   0.018  0.0107  0.7159  0.1926
 8097TIP3   OH224254   2.211   3.047   5.685 -0.1341  0.9063 -1.1428
 8097TIP3    H124255   2.168   3.041   5.600  0.1472 -0.0825 -1.2252
 8097TIP3    H224256   2.304   3.059   5.665 -0.2409  2.1454 -0.9658
 8098TIP3   OH224257   2.214   6.768   2.839 -0.9857  0.2271 -0.5372
 8098TIP3    H124258   2.296   6.778   2.791 -0.5106 -1.5550 -0.1635
 8098TIP3    H224259   2.231   6.808   2.924 -0.4898 -0.1868 -0.4411
 8099TIP3   OH224260   6.575   4.102   4.241  0.0208  0.4790 -0.0154
 8099TIP3    H124261   6.660   4.073   4.209 -0.7104 -1.7640 -0.0836
 8099TIP3    H224262   6.587   4.110   4.336  0.2315 -0.1370  0.0130
 8100TIP3   OH224263   1.864   4.099   2.435 -0.5401 -0.6430 -0.7336
 8100TIP3    H124264   1.783   4.058   2.469  0.9225 -2.5581  0.6796
 8100TIP3    H224265   1.928   4.028   2.435  1.0977  0.7712 -2.0655
 8101TIP3   OH224266   0.586   0.341   4.059 -0.7148  0.3355 -0.2082
 8101TIP3    H124267   0.512   0.309   4.007 -0.6777  0.2377 -0.2004
 8101TIP3    H224268   0.653   0.363   3.995 -0.7186  0.3427 -0.2096
 8102TIP3   OH224269   2.438   5.182   4.728  0.5684 -0.1419  0.3597
 8102TIP3    H124270   2.439   5.138   4.644  0.9737 -0.1922  0.3919
 8102TIP3    H224271   2.350   5.221   4.733  0.1788 -0.9935  0.3636
 8103TIP3   OH224272   2.861   1.316   2.288 -0.2208 -0.1002 -0.6117
 8103TIP3    H124273   2.956   1.306   2.291 -0.2361  0.0278  0.5485
 8103TIP3    H224274   2.827   1.236   2.330 -0.6798 -0.7865 -2.2046
 8104TIP3   OH224275   2.314   4.084   2.756  0.2562  0.2687 -0.2985
 8104TIP3    H124276   2.228   4.091   2.798 -0.3574  1.2440 -1.6484
 8104TIP3    H224277   2.295   4.058   2.666  1.4010  0.1822 -0.5336
 8105TIP3   OH224278   1.127   3.242   4.075  0.2051  0.4231  0.3197
 8105TIP3    H124279   1.180   3.207   4.146  0.0766 -0.3791  0.0360
 8105TIP3    H224280   1.078   3.166   4.042  0.5159  0.7021 -0.8389
 8106TIP3   OH224281   3.353   4.557   2.398 -0.6193  0.1093 -0.4811
 8106TIP3    H124282   3.304   4.549   2.480  0.5656 -0.4097  0.2006
 8106TIP3    H224283   3.334   4.646   2.368  0.0639  0.8439  1.1216
 8107TIP3   OH224284   1.119   4.601   5.489  0.0618 -0.3914 -0.1717
 8107TIP3    H124285   1.200   4.622   5.534 -1.0938  0.8632  1.4620
 8107TIP3    H224286   1.093   4.516   5.523 -0.5795  0.3568  1.3258
 8108TIP3   OH224287   2.518   5.968   3.088  0.6317  0.0669 -0.2323
 8108TIP3    H124288   2.522   5.905   3.016  1.1066  0.2348 -0.3504
 8108TIP3    H224289   2.592   5.945   3.144  0.4534  0.1421  0.0379
 8109TIP3   OH224290   3.957   1.612   1.844  0.4706 -0.5125  0.2308
 8109TIP3    H124291   3.917   1.591   1.928 -1.1984  0.3272 -0.2931
 8109TIP3    H224292   4.047   1.637   1.865  0.0900 -0.3538  1.7551
 8110TIP3   OH224293   0.368   4.224   0.111 -0.0748  0.4364 -0.1207
 8110TIP3    H124294   0.421   4.146   0.094 -1.9827 -1.0220  0.2776
 8110TIP3    H224295   0.427   4.284   0.156  1.3610 -0.9148 -0.1348
 8111TIP3   OH224296   5.134   5.997   4.727 -0.6615 -0.3210 -0.1215
 8111TIP3    H124297   5.200   6.065   4.741 -0.5554 -0.4194 -0.1342
 8111TIP3    H224298   5.057   6.027   4.775 -1.2958  0.7947 -1.7811
 8112TIP3   OH224299   7.058   5.984   4.906  0.2808 -0.5323  0.1216
 8112TIP3    H124300   7.114   5.995   4.983  0.9189 -0.3518 -0.3678
 8112TIP3    H224301   7.103   6.030   4.836 -1.3243  1.1624  0.1140
 8113TIP3   OH224302   6.879   2.281   1.597 -0.3163  0.0907 -0.6083
 8113TIP3    H124303   6.827   2.349   1.555 -3.8628 -0.2773  2.5592
 8113TIP3    H224304   6.927   2.326   1.666  0.7222 -0.1040 -1.1824
 8114TIP3   OH224305   0.079   1.809   5.289  0.4640  0.6615  0.8803
 8114TIP3    H124306   0.110   1.719   5.276  0.3687  0.1572  3.5493
 8114TIP3    H224307   0.155   1.864   5.273  0.8963 -0.0120  0.5969
 8115TIP3   OH224308   1.167   6.381   0.139 -0.0266  0.1881  0.1869
 8115TIP3    H124309   1.080   6.395   0.102 -0.1703  0.4431  0.6072
 8115TIP3    H224310   1.152   6.377   0.234  0.1013 -2.0842  0.1545
 8116TIP3   OH224311   6.727   3.057   2.874 -0.2224 -0.0582  0.3571
 8116TIP3    H124312   6.638   3.087   2.886  0.2518  0.9271  1.5952
 8116TIP3    H224313   6.766   3.059   2.961  1.6710  1.7594 -0.4279
 8117TIP3   OH224314   5.281   6.707   3.410  0.4484  0.1129 -0.6244
 8117TIP3    H124315   5.335   6.629   3.423 -1.4632 -1.0326  1.0026
 8117TIP3    H224316   5.295   6.730   3.318  1.6258 -1.7094 -0.9688
 8118TIP3   OH224317   4.288   3.429   0.586 -0.1984 -0.6806  0.4011
 8118TIP3    H124318   4.349   3.374   0.537 -1.8950  0.3546 -3.2175
 8118TIP3    H224319   4.334   3.512   0.598 -0.8635  0.3258 -2.8777
 8119TIP3   OH224320   1.504   2.525   1.273 -0.5956 -0.8805 -0.2418
 8119TIP3    H124321   1.477   2.433   1.280 -1.2006 -0.7522 -0.8198
 8119TIP3    H224322   1.426   2.571   1.242 -0.9025  0.1739  1.9116
 8120TIP3   OH224323   4.927   0.758   5.267 -0.3914  0.1018  0.0303
 8120TIP3    H124324   5.004   0.747   5.322 -0.0161  0.2702 -0.4638
 8120TIP3    H224325   4.950   0.718   5.184 -1.2258 -0.8269  0.2184
 8121TIP3   OH224326   1.269   5.805   2.896  0.4935  0.2375 -0.1676
 8121TIP3    H124327   1.336   5.810   2.828 -1.7845 -2.3612 -2.8843
 8121TIP3    H224328   1.236   5.715   2.890 -2.3125  0.9942  1.9197
 8122TIP3   OH224329   0.993   6.446   2.392  0.3584 -0.3609 -0.6419
 8122TIP3    H124330   1.057   6.411   2.454 -0.8145  0.0672  0.8866
 8122TIP3    H224331   0.948   6.368   2.358 -0.0202 -0.5392  0.2371
 8123TIP3   OH224332   5.689   6.511   5.797 -0.5047  0.0961 -0.4244
 8123TIP3    H124333   5.618   6.457   5.762 -0.5526 -0.4718  0.5079
 8123TIP3    H224334   5.712   6.570   5.725 -0.1791 -1.4340 -1.6151
 8124TIP3   OH224335   5.512   0.741   3.907  0.1350 -0.1038 -0.0681
 8124TIP3    H124336   5.452   0.684   3.859 -0.1786  1.3193 -1.4460
 8124TIP3    H224337   5.471   0.752   3.992 -1.3817  0.5113 -0.8412
 8125TIP3   OH224338   5.094   4.780   2.122  0.5345 -0.5563 -0.2323
 8125TIP3    H124339   5.074   4.859   2.072 -1.0673 -1.2314 -0.7478
 8125TIP3    H224340   5.149   4.727   2.064  0.6301 -0.3136 -0.3611
 8126TIP3   OH224341   3.912   0.241   4.081 -0.4851  0.4026 -0.1310
 8126TIP3    H124342   3.881   0.196   4.159 -1.0780  3.2827  1.4633
 8126TIP3    H224343   3.847   0.220   4.014 -0.2597 -1.6892  0.2502
 8127TIP3   OH224344   6.122   0.693   0.448  0.1099  0.4826  0.0722
 8127TIP3    H124345   6.036   0.702   0.408  0.4698  0.4868 -0.7268
 8127TIP3    H224346   6.175   0.648   0.382  1.2725  2.2578 -0.3072
 8128TIP3   OH224347   0.871   1.778   3.771  0.2502  0.2802  0.1461
 8128TIP3    H124348   0.885   1.706   3.709 -0.9188 -0.2717  0.4934
 8128TIP3    H224349   0.810   1.742   3.835 -1.3646  1.9821 -0.3561
 8129TIP3   OH224350   0.076   5.644   1.311 -0.4748  0.2007  0.4627
 8129TIP3    H124351   0.086   5.551   1.287  1.6781 -0.0429  1.9825
 8129TIP3    H224352   0.052   5.643   1.403 -1.0313  1.1746  0.3431
 8130TIP3   OH224353   0.079   5.684   4.796  0.0227  0.5421  0.3522
 8130TIP3    H124354  -0.008   5.705   4.762  0.7770  0.5046 -1.7778
 8130TIP3    H224355   0.131   5.664   4.718  1.6847 -0.4503  1.6421
 8131TIP3   OH224356   4.264   6.218   5.017  0.6124  0.8261  0.3436
 8131TIP3    H124357   4.335   6.228   4.953 -0.3416 -0.0458 -0.8954
 8131TIP3    H224358   4.257   6.124   5.031 -0.7121  0.8528 -0.0506
 8132TIP3   OH224359   0.137   0.733   3.580 -0.0154  0.2237 -0.2502
 8132TIP3    H124360   0.123   0.805   3.641  0.3686  0.5559 -0.5527
 8132TIP3    H224361   0.125   0.771   3.493 -1.9072 -0.5484 -0.3594
 8133TIP3   OH224362   3.555   0.279   1.295 -0.2780  0.1993  1.0448
 8133TIP3    H124363   3.527   0.320   1.377  0.6024  0.0269  1.4486
 8133TIP3    H224364   3.522   0.190   1.299  0.3294 -0.0110  1.5289
 8134TIP3   OH224365   6.771   5.551   5.113  0.6685  0.5564 -0.3023
 8134TIP3    H124366   6.791   5.529   5.022  2.2871  2.1904 -0.3886
 8134TIP3    H224367   6.829   5.494   5.165  0.2364  0.1120 -0.2983
 8135TIP3   OH224368   6.447   6.710   1.602  0.1736  0.1159  0.1601
 8135TIP3    H124369   6.454   6.757   1.685  0.7380  1.7419 -0.7782
 8135TIP3    H224370   6.425   6.776   1.537  2.0970 -0.6581 -1.4069
 8136TIP3   OH224371   7.152   3.969   3.684  0.3209  0.3357 -0.0504
 8136TIP3    H124372   7.063   3.935   3.695 -0.3685  1.4313 -1.8450
 8136TIP3    H224373   7.169   3.963   3.590  0.2283  4.5485 -0.4980
 8137TIP3   OH224374   7.166   5.782   1.098  0.2232 -0.1836  0.1754
 8137TIP3    H124375   7.200   5.736   1.175 -1.5757 -0.5744  0.7749
 8137TIP3    H224376   7.224   5.755   1.027  0.8391 -1.2402  1.0445
 8138TIP3   OH224377   2.670   1.195   0.704  0.0830 -0.3882  0.1085
 8138TIP3    H124378   2.638   1.136   0.636  1.0016  0.8828 -1.4988
 8138TIP3    H224379   2.640   1.282   0.677 -0.9177  0.0067  2.2178
 8139TIP3   OH224380   0.508   1.006   3.805  0.3572 -0.0852 -0.0013
 8139TIP3    H124381   0.564   0.963   3.869  0.3526  0.1911  0.1882
 8139TIP3    H224382   0.479   0.935   3.747  1.6468 -0.1116 -0.6618
 8140TIP3   OH224383   6.901   0.065   2.539  0.1648 -0.0880 -0.2286
 8140TIP3    H124384   6.981   0.108   2.569  0.0959 -0.4848  0.5432
 8140TIP3    H224385   6.843   0.066   2.615 -0.6721  0.4421 -0.8603
 8141TIP3   OH224386   3.882   4.742   0.304 -0.0887 -0.4590 -0.1324
 8141TIP3    H124387   3.924   4.667   0.346  0.8769 -0.4105 -0.9704
 8141TIP3    H224388   3.949   4.778   0.246 -0.5623  0.9962  0.1704
 8142TIP3   OH224389   4.254   5.197   0.082  0.6250 -0.2933 -0.3121
 8142TIP3    H124390   4.332   5.215   0.133 -0.2106 -0.6278  1.1370
 8142TIP3    H224391   4.198   5.145   0.140  0.2833 -2.0717 -2.1063
 8143TIP3   OH224392   6.474   2.594   1.695  0.3594 -0.1445 -0.4140
 8143TIP3    H124393   6.533   2.667   1.717  0.5605 -0.3913 -0.1284
 8143TIP3    H224394   6.390   2.636   1.676  1.1025  0.4136 -2.8001
 8144TIP3   OH224395   5.998   3.922   1.133  0.6534 -0.0439 -0.8395
 8144TIP3    H124396   6.020   3.856   1.067  0.4616  0.4298 -1.3820
 8144TIP3    H224397   6.079   3.971   1.146  0.4669  0.4301 -1.3864
 8145TIP3   OH224398   4.141   4.590   1.293  0.4092 -0.0524 -0.2229
 8145TIP3    H124399   4.090   4.574   1.372 -0.2488 -0.7019 -0.7702
 8145TIP3    H224400   4.227   4.551   1.311 -0.2716 -1.7248 -0.4563
 8146TIP3   OH224401   4.904   4.575   0.279  0.0137 -0.5477 -0.1774
 8146TIP3    H124402   4.910   4.574   0.183  0.1988 -0.0005 -0.1723
 8146TIP3    H224403   4.971   4.638   0.306 -0.5382 -0.1544  0.2782
 8147TIP3   OH224404   3.065   1.394   1.063  0.0985  0.4269 -0.0829
 8147TIP3    H124405   3.123   1.415   0.990  0.1530  0.7710  0.0548
 8147TIP3    H224406   3.125   1.378   1.137  0.0495 -0.0529 -0.1479
 8148TIP3   OH224407   4.238   4.706   2.110  0.1071 -0.2505 -0.3630
 8148TIP3    H124408   4.235   4.682   2.203  0.9418 -1.2906 -0.5731
 8148TIP3    H224409   4.332   4.714   2.091  0.0117 -1.1702 -1.3576
 8149TIP3   OH224410   3.033   1.050   1.071  0.1587 -0.4025  0.1731
 8149TIP3    H124411   3.116   1.098   1.075  0.7066 -1.2519 -0.6647
 8149TIP3    H224412   2.979   1.091   1.138  1.1078  0.4416  0.4524
 8150TIP3   OH224413   4.866   6.405   1.248  0.2111  0.1277  0.3163
 8150TIP3    H124414   4.944   6.352   1.229  0.0680 -0.0339  0.1732
 8150TIP3    H224415   4.845   6.447   1.165 -1.1773 -1.5904 -0.2799
 8151TIP3   OH224416   1.589   6.312   5.379 -0.0322  0.3888 -0.1984
 8151TIP3    H124417   1.648   6.385   5.360  1.3757 -0.9058 -1.1370
 8151TIP3    H224418   1.648   6.242   5.408 -1.3103 -0.4521  0.4496
 8152TIP3   OH224419   6.172   1.957   2.286 -0.6080  0.1869 -0.2340
 8152TIP3    H124420   6.163   2.023   2.217 -1.1052 -0.4137 -0.7640
 8152TIP3    H224421   6.081   1.934   2.309 -0.4582  0.8032  1.0479
 8153TIP3   OH224422   3.633   3.231   0.746 -0.0775 -0.1035 -0.0124
 8153TIP3    H124423   3.693   3.233   0.672 -0.6857  5.1589 -0.7145
 8153TIP3    H224424   3.546   3.231   0.706 -0.4740 -0.9802  0.8275
 8154TIP3   OH224425   4.438   4.530   1.311 -0.6509  0.4240  0.2340
 8154TIP3    H124426   4.492   4.452   1.325  0.4162  0.8279 -1.2715
 8154TIP3    H224427   4.399   4.548   1.396 -0.0152 -1.0874  0.8880
 8155TIP3   OH224428   1.964   4.099   4.344  0.5771 -0.5196  0.8254
 8155TIP3    H124429   1.938   4.034   4.410  1.6013  0.8662  2.7041
 8155TIP3    H224430   1.992   4.175   4.395  1.5449  0.6003 -1.2420
 8156TIP3   OH224431   4.121   0.784   5.901  0.1992  0.0519 -0.5322
 8156TIP3    H124432   4.086   0.821   5.820 -0.6768 -0.0255 -0.1976
 8156TIP3    H224433   4.145   0.694   5.878  2.1775  0.7085 -1.3040
 8157TIP3   OH224434   4.525   2.287   4.483 -0.4045  0.4905  0.0047
 8157TIP3    H124435   4.492   2.208   4.526 -1.1541  0.1100 -1.2276
 8157TIP3    H224436   4.465   2.302   4.410  1.2846  0.6327 -1.4304
 8158TIP3   OH224437   5.240   0.625   5.686  0.4955 -0.1961  0.0908
 8158TIP3    H124438   5.292   0.631   5.766  0.9036  0.3197 -0.2034
 8158TIP3    H224439   5.303   0.641   5.615 -0.3930  2.6883 -0.1832
 8159TIP3   OH224440   3.056   6.564   5.024 -0.3233  0.2199 -0.0827
 8159TIP3    H124441   3.024   6.593   4.939 -0.4111 -1.3487 -0.6204
 8159TIP3    H224442   3.100   6.641   5.061  2.3544  0.2013 -2.8141
 8160TIP3   OH224443   6.030   5.809   0.352  0.4188 -0.5599  0.0540
 8160TIP3    H124444   6.055   5.746   0.419 -0.4577 -1.0601 -0.0750
 8160TIP3    H224445   6.070   5.775   0.271  1.2409 -0.1057  0.2580
 8161TIP3   OH224446   1.716   4.678   5.702 -0.1128 -0.4280  0.4904
 8161TIP3    H124447   1.624   4.683   5.676  0.5159  1.2202 -1.6719
 8161TIP3    H224448   1.760   4.633   5.630  1.3171  2.1915 -0.4446
 8162TIP3   OH224449   5.056   0.494   4.079 -0.1658 -0.2636 -0.1990
 8162TIP3    H124450   5.090   0.419   4.128  3.4669 -0.4974 -2.6840
 8162TIP3    H224451   5.082   0.570   4.131  0.2703 -0.6077  0.0973
 8163TIP3   OH224452   4.222   3.346   2.897 -0.4256  0.0913  0.3192
 8163TIP3    H124453   4.248   3.267   2.851  0.5364  0.8545 -0.4847
 8163TIP3    H224454   4.181   3.401   2.831  0.1875  0.8416  0.5469
 8164TIP3   OH224455   1.032   3.783   1.577  0.1238 -0.8031  0.1884
 8164TIP3    H124456   0.948   3.758   1.614  1.0495 -2.5336  1.2573
 8164TIP3    H224457   1.045   3.723   1.504  0.9914 -1.4685  0.8580
 8165TIP3   OH224458   0.801   6.044   5.744 -0.2836 -0.1055 -0.2820
 8165TIP3    H124459   0.865   5.979   5.774  0.5786  0.8966  0.0717
 8165TIP3    H224460   0.795   6.107   5.815  0.5206  1.4001 -1.5063
 8166TIP3   OH224461   5.973   1.086   4.990 -0.2566 -0.1454 -0.2440
 8166TIP3    H124462   6.016   1.042   4.917 -1.8834 -1.8244 -0.2831
 8166TIP3    H224463   6.045   1.113   5.047  0.9179 -1.4651 -1.0251
 8167TIP3   OH224464   0.219   6.790   4.775  0.3972  0.1437  0.6453
 8167TIP3    H124465   0.221   6.717   4.838  0.7925  0.5408  1.1013
 8167TIP3    H224466   0.267   6.757   4.699 -0.0486 -0.3258  0.5648
 8168TIP3   OH224467   1.607   3.831   1.876 -1.0313  0.1679  0.2815
 8168TIP3    H124468   1.581   3.873   1.958  0.7824  1.0533  0.4563
 8168TIP3    H224469   1.560   3.880   1.808  0.4155  2.0463  0.5445
 8169TIP3   OH224470   6.270   2.591   5.541  0.3652 -0.1274 -0.5647
 8169TIP3    H124471   6.275   2.497   5.556  0.5167 -0.0227  0.0854
 8169TIP3    H224472   6.201   2.602   5.476 -0.2917 -0.6191  0.0425
 8170TIP3   OH224473   2.008   3.289   4.757  0.1027  0.5218 -0.3921
 8170TIP3    H124474   2.031   3.375   4.792 -1.6408  0.5907  0.7382
 8170TIP3    H224475   1.912   3.291   4.750  0.0229 -1.3173 -0.3531
 8171TIP3   OH224476   2.817   3.562   1.010  0.3194  0.0315  0.0531
 8171TIP3    H124477   2.838   3.524   1.096  1.0515 -0.3133 -0.2722
 8171TIP3    H224478   2.895   3.611   0.986  0.0397  0.2907 -0.3368
 8172TIP3   OH224479   1.813   1.848   0.729  0.6298  0.1103  0.4168
 8172TIP3    H124480   1.889   1.802   0.692 -0.1776 -1.0490  0.1366
 8172TIP3    H224481   1.790   1.913   0.663 -0.8371 -1.9791 -1.2675
 8173TIP3   OH224482   5.746   1.522   0.926 -0.0992 -0.1273 -0.6215
 8173TIP3    H124483   5.777   1.455   0.987  0.7220  0.6408 -0.1657
 8173TIP3    H224484   5.720   1.595   0.982 -1.0705 -0.0759 -1.1062
 8174TIP3   OH224485   5.756   1.511   2.065  0.1468  0.4963 -0.1880
 8174TIP3    H124486   5.665   1.484   2.077 -0.2497  1.9330  0.1746
 8174TIP3    H224487   5.753   1.607   2.060  1.7869  0.6992  1.3912
 8175TIP3   OH224488   6.986   6.252   3.869 -0.2177 -0.3352  0.3679
 8175TIP3    H124489   7.030   6.328   3.831 -0.0841  0.0335  1.2395
 8175TIP3    H224490   6.894   6.276   3.872 -0.2423 -0.4062  0.1845
 8176TIP3   OH224491   4.558   5.046   1.131  0.1364  0.4667 -0.3378
 8176TIP3    H124492   4.574   5.137   1.105  1.0639  0.8721  1.4598
 8176TIP3    H224493   4.540   5.051   1.225 -0.4042 -1.1539 -0.3307
 8177TIP3   OH224494   4.210   4.626   0.779  0.5698 -0.1998 -0.0179
 8177TIP3    H124495   4.302   4.600   0.785  0.9290  1.2858  1.4001
 8177TIP3    H224496   4.199   4.692   0.847 -0.9218  1.4932 -1.8075
 8178TIP3   OH224497   3.140   0.746   3.750  0.0257 -0.0720  0.2170
 8178TIP3    H124498   3.081   0.772   3.820  0.0869 -1.0180  0.6360
 8178TIP3    H224499   3.213   0.702   3.795 -0.1846 -1.1601 -0.4571
 8179TIP3   OH224500   2.687   3.279   0.212 -0.6820  0.1382 -0.8556
 8179TIP3    H124501   2.654   3.276   0.122 -1.0896  1.4963 -0.7767
 8179TIP3    H224502   2.685   3.372   0.235 -1.3392 -0.2622  0.8349
 8180TIP3   OH224503   4.182   6.056   4.745 -0.3690 -0.2981 -0.6073
 8180TIP3    H124504   4.205   5.989   4.681 -0.8894 -1.3915  0.3308
 8180TIP3    H224505   4.260   6.063   4.800  1.0853  2.4156 -2.7270
 8181TIP3   OH224506   3.952   0.950   1.444  0.3115 -0.0970 -0.7765
 8181TIP3    H124507   3.906   1.029   1.471 -0.7414 -1.4807  1.8378
 8181TIP3    H224508   4.029   0.946   1.502  0.2579 -1.0475 -0.7595
 8182TIP3   OH224509   0.341   6.197   5.882 -0.0403  0.0200 -0.8702
 8182TIP3    H124510   0.428   6.232   5.901 -0.5904  0.2733  1.4332
 8182TIP3    H224511   0.352   6.150   5.799  2.0457  0.8655 -1.1308
 8183TIP3   OH224512   4.379   3.952   1.462 -0.3231 -0.6787  0.5283
 8183TIP3    H124513   4.435   3.957   1.540 -0.1151  0.0665  0.3404
 8183TIP3    H224514   4.431   3.903   1.398  0.0623 -0.1214  0.4062
 8184TIP3   OH224515   4.599   0.778   4.051  0.4100  0.1162  0.2525
 8184TIP3    H124516   4.602   0.843   4.121  0.0901 -0.5410  0.8969
 8184TIP3    H224517   4.590   0.829   3.971 -0.9725  0.8384  0.8320
 8185TIP3   OH224518   5.109   6.510   3.543 -0.6385  0.0271  0.2123
 8185TIP3    H124519   5.092   6.453   3.618  0.9623  0.5472  0.9992
 8185TIP3    H224520   5.158   6.583   3.578  0.1291  0.3022 -1.3379
 8186TIP3   OH224521   3.038   4.985   4.381  0.1727  0.0250  0.2735
 8186TIP3    H124522   3.072   4.980   4.470 -0.5534  1.4457  0.6731
 8186TIP3    H224523   2.943   4.978   4.392 -0.0855  2.1541 -0.1362
 8187TIP3   OH224524   6.642   6.790   3.542  0.1404  0.0234 -0.0818
 8187TIP3    H124525   6.663   6.726   3.610 -1.1704 -0.0917  0.2424
 8187TIP3    H224526   6.578   6.746   3.486  0.6080  0.4023 -0.9332
 8188TIP3   OH224527   1.835   2.042   4.784 -0.4601  0.4770 -0.3823
 8188TIP3    H124528   1.915   2.046   4.731 -0.4169  0.1813 -0.3420
 8188TIP3    H224529   1.839   2.120   4.840  0.5460 -0.2875  0.6693
 8189TIP3   OH224530   2.053   3.745   2.078  0.0074  0.0338 -0.2277
 8189TIP3    H124531   2.068   3.804   2.152  1.4672  0.4818 -0.8510
 8189TIP3    H224532   2.135   3.696   2.068 -0.4862 -0.6872 -0.9740
 8190TIP3   OH224533   0.567   4.054   0.305 -0.2661  0.2026  0.4018
 8190TIP3    H124534   0.506   4.053   0.378 -0.1653 -0.8416  0.4905
 8190TIP3    H224535   0.579   3.961   0.283  1.7748  0.3475  0.7911
 8191TIP3   OH224536   3.607   2.576   5.312  0.3974 -0.3282 -0.7272
 8191TIP3    H124537   3.685   2.566   5.258  0.6903  1.8179 -0.7723
 8191TIP3    H224538   3.554   2.640   5.265  0.3770  1.1295  1.1992
 8192TIP3   OH224539   0.610   2.347   5.330  0.1233  0.1452 -0.5971
 8192TIP3    H124540   0.682   2.287   5.311 -1.2600 -2.0499  0.6954
 8192TIP3    H224541   0.651   2.434   5.331  2.7874 -1.0244  0.2649
 8193TIP3   OH224542   0.472   1.419   5.019 -0.3165 -0.4445  0.3017
 8193TIP3    H124543   0.486   1.410   5.113 -0.6830  1.9016  0.6371
 8193TIP3    H224544   0.527   1.493   4.993 -0.8599 -0.5145 -1.1546
 8194TIP3   OH224545   1.712   1.347   2.122 -0.0999  0.2507  0.3485
 8194TIP3    H124546   1.645   1.287   2.089 -0.8960  0.9446  0.6676
 8194TIP3    H224547   1.784   1.339   2.059 -0.8668  0.2162 -0.5578
 8195TIP3   OH224548   5.551   2.502   1.269 -0.5036 -0.2970 -0.0447
 8195TIP3    H124549   5.508   2.580   1.303  1.2653  1.3154 -1.3244
 8195TIP3    H224550   5.485   2.433   1.278 -2.3277  1.4297  0.6325
 8196TIP3   OH224551   4.381   2.105   5.382 -0.4182  0.0997 -0.2306
 8196TIP3    H124552   4.300   2.084   5.430  0.2888  0.4328  1.1787
 8196TIP3    H224553   4.427   2.021   5.376  1.2455  0.5673  3.1789
 8197TIP3   OH224554   3.490   5.048   3.992 -0.2233 -0.1781 -0.3514
 8197TIP3    H124555   3.560   5.109   3.968 -0.0804 -0.4904 -0.7393
 8197TIP3    H224556   3.415   5.075   3.939 -0.8499  1.0303  1.0517
 8198TIP3   OH224557   2.794   5.758   5.299 -0.2452  0.2279  0.0831
 8198TIP3    H124558   2.705   5.759   5.265 -0.6670 -1.2071  1.0531
 8198TIP3    H224559   2.788   5.800   5.385 -0.4747 -1.9039  1.1585
 8199TIP3   OH224560   3.927   2.163   4.876  0.0521 -0.3548 -0.3355
 8199TIP3    H124561   3.965   2.186   4.961  1.4983  1.6659 -1.4142
 8199TIP3    H224562   3.866   2.235   4.857  0.0650 -0.5545 -1.1672
 8200TIP3   OH224563   0.223   4.303   3.888 -0.0584 -0.0373  0.0259
 8200TIP3    H124564   0.204   4.210   3.897 -1.0721 -0.0460 -1.8338
 8200TIP3    H224565   0.303   4.307   3.836  0.0824  0.1524  0.2486
 8201TIP3   OH224566   2.117   3.803   4.246 -0.0181 -0.3161  0.0879
 8201TIP3    H124567   2.083   3.872   4.188  0.7569  0.4647  0.5479
 8201TIP3    H224568   2.106   3.723   4.195 -1.1574  0.0956 -0.3714
 8202TIP3   OH224569   4.973   3.676   0.681 -0.0787  0.0201 -0.1506
 8202TIP3    H124570   5.034   3.602   0.682  0.0302  0.1025  0.9450
 8202TIP3    H224571   4.890   3.638   0.712 -0.8230 -0.2593 -2.3327
 8203TIP3   OH224572   7.010   3.174   3.745 -0.4513 -0.2430 -0.3474
 8203TIP3    H124573   6.931   3.166   3.691 -0.1530  0.1811 -0.8549
 8203TIP3    H224574   7.082   3.154   3.685 -0.0392  1.1863 -0.3722
 8204TIP3   OH224575   5.538   4.514   3.381 -0.7009  0.4466 -0.4788
 8204TIP3    H124576   5.445   4.538   3.378 -0.6495  0.5713 -1.1746
 8204TIP3    H224577   5.580   4.588   3.426 -0.8337  0.7542 -0.8497
 8205TIP3   OH224578   5.650   2.129   3.842  0.1146 -0.4061  0.4950
 8205TIP3    H124579   5.601   2.124   3.924  1.3985  0.2481  1.3231
 8205TIP3    H224580   5.738   2.156   3.868  0.4953 -0.0136 -1.1190
 8206TIP3   OH224581   5.589   5.803   2.797  0.4381 -0.2820  0.3350
 8206TIP3    H124582   5.564   5.827   2.886  0.8636 -0.6626  0.5582
 8206TIP3    H224583   5.510   5.761   2.761  1.0505 -2.5428  1.4265
 8207TIP3   OH224584   6.298   4.224   0.429  0.4021  0.2303 -0.4571
 8207TIP3    H124585   6.296   4.147   0.373  2.3503 -0.1689 -0.0384
 8207TIP3    H224586   6.294   4.298   0.369  0.4951 -0.1897 -0.9778
 8208TIP3   OH224587   3.263   6.107   2.014 -0.2049 -0.2621  0.3247
 8208TIP3    H124588   3.292   6.084   1.926 -1.1007 -1.3486  0.2864
 8208TIP3    H224589   3.338   6.149   2.054  0.1766  0.3790 -1.0010
 8209TIP3   OH224590   6.051   2.707   2.223  0.6870 -0.1334  0.8738
 8209TIP3    H124591   6.001   2.775   2.178  1.5188  0.6583  1.1236
 8209TIP3    H224592   5.993   2.630   2.223 -0.6414  0.8374  1.4096
 8210TIP3   OH224593   0.568   3.647   5.466 -0.3162 -0.2780 -0.0168
 8210TIP3    H124594   0.611   3.651   5.381  1.5549  0.5500  0.9143
 8210TIP3    H224595   0.514   3.727   5.470  1.4496  0.9492  0.4658
 8211TIP3   OH224596   4.245   5.742   5.421  0.2155 -0.5895 -0.1188
 8211TIP3    H124597   4.236   5.746   5.326  0.6922  1.8797 -0.1016
 8211TIP3    H224598   4.216   5.653   5.443 -0.3543 -1.0695 -2.4992
 8212TIP3   OH224599   2.916   1.169   3.776 -0.7622 -0.4278 -0.3354
 8212TIP3    H124600   2.882   1.227   3.844 -0.3139 -0.6804  0.1076
 8212TIP3    H224601   2.968   1.226   3.720 -2.5851  0.1408 -1.5245
 8213TIP3   OH224602   4.791   6.314   5.089 -0.1853 -0.3803  0.0089
 8213TIP3    H124603   4.726   6.276   5.029 -1.6463  0.3276  1.0747
 8213TIP3    H224604   4.739   6.367   5.150  1.2974 -0.5794  1.5268
 8214TIP3   OH224605   6.337   4.637   0.894 -0.1067  0.3998  0.1974
 8214TIP3    H124606   6.313   4.629   0.802  0.2858  3.4727 -0.2761
 8214TIP3    H224607   6.431   4.616   0.896 -0.0587  0.5726 -0.1590
 8215TIP3   OH224608   0.059   0.336   3.218 -0.3860  0.2415 -0.4012
 8215TIP3    H124609   0.098   0.407   3.166  1.0046 -0.1515  0.0817
 8215TIP3    H224610   0.052   0.372   3.306 -0.5678  0.0932 -0.3543
 8216TIP3   OH224611   5.823   4.509   3.997  0.2991  0.4116  0.1848
 8216TIP3    H124612   5.806   4.423   3.958  0.0176 -0.5554  2.3017
 8216TIP3    H224613   5.744   4.530   4.045  0.9006  1.1987  0.8673
 8217TIP3   OH224614   1.610   6.281   1.587 -0.2328 -0.0154 -0.9291
 8217TIP3    H124615   1.686   6.280   1.530 -1.2794 -0.7441 -2.3666
 8217TIP3    H224616   1.555   6.352   1.554 -1.0451 -0.7142 -1.0957
 8218TIP3   OH224617   0.163   3.146   3.690  0.1300 -0.1565  0.0355
 8218TIP3    H124618   0.132   3.106   3.772 -0.1295  1.1453  0.5965
 8218TIP3    H224619   0.106   3.109   3.623 -1.0194  0.3239  0.7284
 8219TIP3   OH224620   5.324   3.735   0.271 -0.0384 -0.5261  0.0264
 8219TIP3    H124621   5.246   3.790   0.267  0.5244  0.2877  0.1320
 8219TIP3    H224622   5.298   3.660   0.324 -1.3380 -1.2313 -1.5331
 8220TIP3   OH224623   5.790   6.063   3.915 -0.7659  0.1041 -0.2825
 8220TIP3    H124624   5.741   6.086   3.994  0.8456 -0.9109  1.1186
 8220TIP3    H224625   5.826   6.146   3.884 -1.0328  0.4686  0.3569
 8221TIP3   OH224626   0.259   4.045   5.173  0.5227 -1.0856 -0.0691
 8221TIP3    H124627   0.319   4.116   5.197 -0.4697  0.5841 -2.1482
 8221TIP3    H224628   0.311   3.986   5.118  0.8485 -0.8452 -0.0193
 8222TIP3   OH224629   5.782   3.948   4.738 -0.1121 -0.3625  0.0958
 8222TIP3    H124630   5.716   4.012   4.711 -1.3970 -1.9965 -0.8359
 8222TIP3    H224631   5.731   3.873   4.769  1.3414 -0.8579  1.4310
 8223TIP3   OH224632   1.334   2.407   1.486  0.0033  0.5312  0.2489
 8223TIP3    H124633   1.240   2.393   1.480  0.2103 -0.5372 -0.6758
 8223TIP3    H224634   1.349   2.434   1.577 -1.0210 -0.6473  0.7817
 8224TIP3   OH224635   2.626   4.990   1.546 -0.4083 -0.3005  0.2688
 8224TIP3    H124636   2.565   5.056   1.513 -0.2608 -1.4932 -2.6728
 8224TIP3    H224637   2.702   4.997   1.488  0.1981 -2.0789  0.7925
 8225TIP3   OH224638   7.051   2.006   5.660  0.1118  0.3187  0.6003
 8225TIP3    H124639   7.077   1.936   5.719 -1.4781 -0.8152  0.0211
 8225TIP3    H224640   7.067   1.971   5.572 -0.7136  0.6436  0.3032
 8226TIP3   OH224641   2.547   3.813   0.256  0.1303  0.5133  0.0894
 8226TIP3    H124642   2.487   3.883   0.284  1.4053  1.9874 -0.6757
 8226TIP3    H224643   2.607   3.803   0.330 -1.1364 -1.1378  0.9570
 8227TIP3   OH224644   3.890   4.263   1.091  0.2788 -0.0253 -0.1497
 8227TIP3    H124645   3.885   4.282   1.185  1.0064 -4.1126  0.8918
 8227TIP3    H224646   3.807   4.219   1.071  0.4615  0.1055 -1.2713
 8228TIP3   OH224647   6.899   4.977   5.310 -0.3477 -0.2854 -0.1990
 8228TIP3    H124648   6.985   4.964   5.270 -0.5754  0.4297 -0.9577
 8228TIP3    H224649   6.898   4.919   5.385  0.7215 -0.4590 -0.3080
 8229TIP3   OH224650   5.757   4.779   5.859 -0.5945  0.1699 -0.1733
 8229TIP3    H124651   5.750   4.834   5.937 -0.6814  0.7220 -0.5675
 8229TIP3    H224652   5.668   4.774   5.825 -0.7857 -1.0646  0.4227
 8230TIP3   OH224653   0.065   4.340   1.722 -0.3627  0.4498 -0.1229
 8230TIP3    H124654  -0.012   4.381   1.683 -1.8408 -1.4508  0.6832
 8230TIP3    H224655   0.131   4.341   1.652 -1.5066  1.0074 -1.2261
 8231TIP3   OH224656   3.085   2.594   1.124  0.0766  0.3043  0.2876
 8231TIP3    H124657   3.020   2.523   1.122  0.4444 -0.0308 -1.3165
 8231TIP3    H224658   3.148   2.567   1.190  0.5562 -1.2095 -0.7431
 8232TIP3   OH224659   6.365   5.241   3.713 -0.4908  0.5096  0.3090
 8232TIP3    H124660   6.451   5.281   3.712 -0.9998  1.6424 -0.6192
 8232TIP3    H224661   6.368   5.179   3.786  1.0658  0.5801  0.3375
 8233TIP3   OH224662  -0.003   2.286   5.425 -0.6659 -0.4616 -0.1415
 8233TIP3    H124663  -0.058   2.237   5.364  0.0097  3.0005 -4.0472
 8233TIP3    H224664   0.075   2.231   5.437 -2.0935 -2.5372  0.0204
 8234TIP3   OH224665   4.842   2.131   2.135  0.4080  0.1737 -0.3653
 8234TIP3    H124666   4.792   2.058   2.098  0.8846 -0.9370  1.0770
 8234TIP3    H224667   4.805   2.209   2.093 -2.1580 -0.6170  0.2384
 8235TIP3   OH224668   5.265   4.559   4.183  0.2077 -0.2999 -0.4345
 8235TIP3    H124669   5.266   4.567   4.279  1.6288 -0.0422 -0.4420
 8235TIP3    H224670   5.176   4.581   4.158  0.2951  1.6112  0.6955
 8236TIP3   OH224671   6.605   1.706   3.353  0.3633  0.1153 -0.8863
 8236TIP3    H124672   6.684   1.693   3.300  0.1651 -1.0041 -0.9329
 8236TIP3    H224673   6.637   1.718   3.442  0.5923 -0.3935 -0.8960
 8237TIP3   OH224674   2.909   0.449   1.093 -0.4027 -0.0826  0.1462
 8237TIP3    H124675   2.896   0.508   1.018  1.1805 -1.3157 -1.1850
 8237TIP3    H224676   3.002   0.457   1.114 -0.8054  0.1788  1.9759
 8238TIP3   OH224677   1.426   3.224   0.611  0.6287  0.3219 -0.1079
 8238TIP3    H124678   1.378   3.155   0.656  0.5207 -0.4095 -1.2967
 8238TIP3    H224679   1.506   3.181   0.580 -0.1957  0.2437 -2.3121
 8239TIP3   OH224680   5.261   3.539   4.134  0.8293 -0.3174 -0.6168
 8239TIP3    H124681   5.171   3.518   4.159  0.6997 -0.3755 -1.1161
 8239TIP3    H224682   5.258   3.550   4.039  1.1793  0.5432 -0.5418
 8240TIP3   OH224683   1.456   6.481   3.519 -0.7052 -0.1476 -0.0388
 8240TIP3    H124684   1.361   6.484   3.503 -0.5768 -0.5129 -0.9058
 8240TIP3    H224685   1.495   6.503   3.435  0.0049  2.3134  0.8403
 8241TIP3   OH224686   7.150   5.756   0.184 -0.0131  0.1978 -0.1453
 8241TIP3    H124687   7.127   5.799   0.266 -0.5743 -0.1729 -0.1050
 8241TIP3    H224688   7.077   5.774   0.125 -0.8942 -1.7469  0.2705
 8242TIP3   OH224689   4.443   1.137   0.267 -0.3589  0.3135 -0.0635
 8242TIP3    H124690   4.497   1.114   0.191  2.0943 -0.6059  1.7867
 8242TIP3    H224691   4.442   1.233   0.268  0.3084  0.3408 -0.7667
 8243TIP3   OH224692   3.417   4.634   3.736 -0.0231 -0.0025  0.4894
 8243TIP3    H124693   3.448   4.685   3.661  1.5822 -0.6163  0.6874
 8243TIP3    H224694   3.495   4.622   3.791 -0.5575 -1.7774  0.9387
 8244TIP3   OH224695   4.394   5.162   2.531 -0.7141  0.0079 -0.4653
 8244TIP3    H124696   4.448   5.217   2.588 -3.6881  1.8436  0.8128
 8244TIP3    H224697   4.373   5.086   2.585 -3.4954  1.7252  1.1061
 8245TIP3   OH224698   4.224   1.028   4.544 -0.7269  0.4445  0.1966
 8245TIP3    H124699   4.148   1.019   4.602 -1.1558  2.1919 -0.0382
 8245TIP3    H224700   4.187   1.036   4.457 -0.0721 -2.5090 -0.4885
 8246TIP3   OH224701   1.219   4.996   0.927 -0.1651  0.9403 -0.0403
 8246TIP3    H124702   1.213   5.039   0.841  0.5434  1.2429  0.0549
 8246TIP3    H224703   1.128   4.986   0.954 -0.5308 -1.0490 -1.7394
 8247TIP3   OH224704   5.063   2.753   5.042  0.5718 -0.2814 -0.0618
 8247TIP3    H124705   5.132   2.715   5.096 -0.4851  1.1888  2.5270
 8247TIP3    H224706   5.103   2.828   5.001  1.1835 -0.9566 -0.7264
 8248TIP3   OH224707   6.470   3.454   3.767 -0.0139 -0.1481  0.1034
 8248TIP3    H124708   6.550   3.403   3.753 -1.1671 -2.2716  0.8094
 8248TIP3    H224709   6.485   3.498   3.851 -0.3687 -2.2882  1.3614
 8249TIP3   OH224710   0.501   5.853   5.866  0.2536 -0.7559  0.1330
 8249TIP3    H124711   0.505   5.920   5.798 -0.9545 -1.8032 -1.0323
 8249TIP3    H224712   0.589   5.816   5.870  0.8914  0.7214  0.6633
 8250TIP3   OH224713   5.084   2.924   2.006 -0.8115 -0.2146 -0.0784
 8250TIP3    H124714   5.094   2.913   1.912  1.1073  3.1111 -0.4139
 8250TIP3    H224715   5.150   2.866   2.045  1.2620  1.3744 -1.0638
 8251TIP3   OH224716   4.718   1.705   4.509  0.2531 -0.1349 -0.2784
 8251TIP3    H124717   4.764   1.630   4.471  2.6602  0.5785  1.0260
 8251TIP3    H224718   4.757   1.717   4.595 -2.2817  0.7194  0.8681
 8252TIP3   OH224719   2.843   4.363   3.504  0.2915  0.0302 -0.5652
 8252TIP3    H124720   2.855   4.320   3.419 -1.5335  0.8259 -1.2925
 8252TIP3    H224721   2.778   4.310   3.549  0.7358  0.0077  0.0642
 8253TIP3   OH224722   5.110   5.529   2.559 -0.1544  0.2526  0.2072
 8253TIP3    H124723   5.131   5.448   2.606  0.3671  1.3193  1.8995
 8253TIP3    H224724   5.023   5.513   2.522 -0.9344 -0.3928  2.2083
 8254TIP3   OH224725   2.205   5.392   5.534  0.1669 -0.7650  0.4894
 8254TIP3    H124726   2.182   5.368   5.624 -1.2505  1.1577  0.6897
 8254TIP3    H224727   2.136   5.452   5.507  2.0074  0.8266 -0.9381
 8255TIP3   OH224728   2.829   2.388   3.960  0.0851 -0.3363  0.3691
 8255TIP3    H124729   2.911   2.341   3.942 -0.9775 -2.5584  1.0085
 8255TIP3    H224730   2.808   2.364   4.050 -2.0411 -1.0809 -0.2733
 8256TIP3   OH224731   4.700   3.575   3.976 -0.1814  0.2564 -0.0071
 8256TIP3    H124732   4.710   3.480   3.983 -1.4308  0.1801  0.9529
 8256TIP3    H224733   4.676   3.589   3.884  1.2079 -0.2153 -0.4714
 8257TIP3   OH224734   0.092   5.465   1.741  0.1514  0.4166 -0.0299
 8257TIP3    H124735   0.097   5.454   1.836  0.3596  0.8596  0.0168
 8257TIP3    H224736   0.052   5.385   1.709 -1.8811  1.0947  0.6412
 8258TIP3   OH224737   1.294   6.155   2.228  0.4274  0.4977  0.2953
 8258TIP3    H124738   1.369   6.128   2.175  0.8809  0.8768  0.7356
 8258TIP3    H224739   1.230   6.186   2.164  0.9302  0.8636 -0.0394
 8259TIP3   OH224740   1.288   2.740   1.246 -0.2664 -0.4064 -0.0940
 8259TIP3    H124741   1.218   2.782   1.196  0.2924 -0.6424 -1.0986
 8259TIP3    H224742   1.244   2.702   1.322 -0.9678  0.9184  0.1962
 8260TIP3   OH224743   0.983   2.896   0.418 -0.3385  0.0619 -0.1900
 8260TIP3    H124744   0.907   2.845   0.388 -1.5946  0.4655  2.0945
 8260TIP3    H224745   1.027   2.923   0.337 -1.3286 -2.0684 -1.5446
 8261TIP3   OH224746   4.764   3.698   2.075  0.0376 -1.0344 -0.0749
 8261TIP3    H124747   4.718   3.758   2.016 -0.2657 -0.8656  0.3262
 8261TIP3    H224748   4.724   3.613   2.060 -1.0060 -0.7414  0.8642
 8262TIP3   OH224749   4.315   3.984   2.842 -0.2378 -0.5881 -0.1764
 8262TIP3    H124750   4.233   3.988   2.793  1.3644  0.2143 -3.0300
 8262TIP3    H224751   4.382   3.967   2.775  1.9558 -1.1485  2.0186
 8263TIP3   OH224752   1.272   2.225   5.692 -0.1714  0.1547 -0.2282
 8263TIP3    H124753   1.268   2.136   5.726 -1.6829  0.5231  0.6159
 8263TIP3    H224754   1.322   2.217   5.610  1.7765 -1.0569  1.0081
 8264TIP3   OH224755   5.084   4.209   0.040 -0.1517  0.2743  0.2919
 8264TIP3    H124756   5.025   4.202   0.115  1.4832 -0.2010  1.6014
 8264TIP3    H224757   5.031   4.247  -0.030 -2.1975 -0.8684  1.1515
 8265TIP3   OH224758   5.381   5.001   1.996  0.2765  0.2146 -0.1761
 8265TIP3    H124759   5.398   4.926   2.054 -0.7736 -1.1865 -1.6092
 8265TIP3    H224760   5.290   4.990   1.969 -0.0659  2.3193 -0.0322
 8266TIP3   OH224761   1.607   2.265   1.785 -0.2695  0.1462  0.6378
 8266TIP3    H124762   1.610   2.172   1.808  1.6058  0.2250  0.8725
 8266TIP3    H224763   1.590   2.309   1.868  1.7536  0.1491  1.0932
 8267TIP3   OH224764   0.816   4.884   1.182 -0.2886  0.6129 -0.2499
 8267TIP3    H124765   0.721   4.898   1.185 -0.1891  1.3995 -0.5778
 8267TIP3    H224766   0.847   4.942   1.112  0.1603 -1.2971 -1.7294
 8268TIP3   OH224767   0.675   4.142   4.407  0.7166 -0.0964  0.1994
 8268TIP3    H124768   0.660   4.094   4.488 -0.1349  0.0778  0.1582
 8268TIP3    H224769   0.766   4.124   4.385  1.3736  0.9314  1.8861
 8269TIP3   OH224770   3.182   0.568   4.572 -0.2060  0.5782  0.3725
 8269TIP3    H124771   3.218   0.599   4.655  1.9962 -1.2538  0.2074
 8269TIP3    H224772   3.259   0.550   4.518 -1.4683 -1.1888 -0.9543
 8270TIP3   OH224773   5.885   6.582   2.972  0.1652  0.2101 -0.2260
 8270TIP3    H124774   5.801   6.547   2.942  0.1549 -0.2933  0.3663
 8270TIP3    H224775   5.862   6.656   3.027  0.0175 -0.8293  1.1603
 8271TIP3   OH224776   2.588   3.979   3.002 -0.5942 -0.0230  0.2994
 8271TIP3    H124777   2.600   4.074   3.008  0.3806  0.1091 -2.2640
 8271TIP3    H224778   2.494   3.968   2.984 -0.7220  0.4544  0.6538
 8272TIP3   OH224779   5.986   0.123   3.956  0.1343  0.0572  0.0602
 8272TIP3    H124780   6.056   0.087   4.011 -0.0742  0.3634  0.5388
 8272TIP3    H224781   5.967   0.208   3.995  0.0689  0.3394 -0.5726
 8273TIP3   OH224782   4.571   2.804   1.330 -0.1827  0.0161 -0.1056
 8273TIP3    H124783   4.607   2.891   1.314  0.2046 -0.1015  0.1257
 8273TIP3    H224784   4.494   2.820   1.385 -0.3184  0.2420 -0.3573
 8274TIP3   OH224785   1.689   3.637   3.707  0.3809  0.6276  0.0324
 8274TIP3    H124786   1.766   3.617   3.655  1.3108 -0.3759  1.7081
 8274TIP3    H224787   1.707   3.722   3.746  1.0055  0.0509  1.0297
 8275TIP3   OH224788   2.982   6.172   5.700  0.2322 -0.4891  0.1364
 8275TIP3    H124789   2.920   6.106   5.728 -0.3206  0.2593  0.7242
 8275TIP3    H224790   3.044   6.125   5.644 -2.1515 -0.8483 -2.3920
 8276TIP3   OH224791   0.326   3.812   1.225 -0.1628 -0.2579  0.3895
 8276TIP3    H124792   0.295   3.722   1.233 -2.9937  0.5463 -0.2644
 8276TIP3    H224793   0.390   3.822   1.296 -2.0104 -1.9468  2.4410
 8277TIP3   OH224794   3.154   2.577   4.069  0.1314 -0.3676 -0.4384
 8277TIP3    H124795   3.235   2.593   4.020 -0.7767  2.0672 -1.3025
 8277TIP3    H224796   3.084   2.607   4.011 -1.1734  0.3302  1.3918
 8278TIP3   OH224797   1.169   4.075   5.086 -0.3342 -0.4058  0.3804
 8278TIP3    H124798   1.120   4.054   5.165  1.7248  0.0644  1.8552
 8278TIP3    H224799   1.105   4.118   5.029 -2.7685 -3.6940  0.3059
 8279TIP3   OH224800   4.815   6.186   0.538  0.2606  0.0773  1.0418
 8279TIP3    H124801   4.830   6.246   0.612 -0.9236 -1.0041  2.2134
 8279TIP3    H224802   4.720   6.179   0.532  0.3077  0.6658 -1.0790
 8280TIP3   OH224803   2.289   3.470   2.246  0.0412 -0.2524 -0.7259
 8280TIP3    H124804   2.280   3.379   2.275 -1.5223 -0.5089 -1.8818
 8280TIP3    H224805   2.278   3.466   2.151  1.5286  0.9682 -0.9897
 8281TIP3   OH224806   0.535   3.385   0.133  0.4510 -0.5182  0.3876
 8281TIP3    H124807   0.619   3.352   0.165  1.0164  0.1239 -0.4089
 8281TIP3    H224808   0.548   3.401   0.040 -1.1371 -2.2401 -0.2038
 8282TIP3   OH224809   0.198   2.847   1.691  0.6372  0.1616  0.0819
 8282TIP3    H124810   0.183   2.941   1.686 -1.2106 -0.0041  1.5535
 8282TIP3    H224811   0.277   2.838   1.745  0.3264  0.8548  0.6580
 8283TIP3   OH224812   0.769   2.891   4.512 -0.3465 -0.3334 -0.5772
 8283TIP3    H124813   0.760   2.889   4.607  0.1198  0.1841 -0.5199
 8283TIP3    H224814   0.733   2.976   4.487 -0.8835 -0.6517 -0.9130
 8284TIP3   OH224815   7.068   2.644   1.539  0.1512  0.0272  0.1886
 8284TIP3    H124816   7.109   2.583   1.601 -0.3517 -0.4024  0.1042
 8284TIP3    H224817   7.018   2.704   1.595 -1.4133 -1.1818  0.1599
 8285TIP3   OH224818   0.077   6.485   1.275  0.2291  0.1828 -0.0204
 8285TIP3    H124819   0.017   6.463   1.204 -0.4462 -0.4027  0.7142
 8285TIP3    H224820   0.123   6.403   1.294 -1.1931 -0.2829  1.6947
 8286TIP3   OH224821   2.596   2.344   3.178 -0.6484  0.0359 -0.3750
 8286TIP3    H124822   2.648   2.311   3.252  0.5636  1.1209 -0.7055
 8286TIP3    H224823   2.530   2.276   3.163 -0.6619 -0.4049  1.4222
 8287TIP3   OH224824   6.322   2.293   5.570  0.0314  0.5012 -0.2835
 8287TIP3    H124825   6.255   2.243   5.523  0.5386  0.2023 -0.7003
 8287TIP3    H224826   6.394   2.300   5.508  1.3446 -1.2382  0.9460
 8288TIP3   OH224827   6.617   2.222   2.527  0.0999  0.5723  0.4877
 8288TIP3    H124828   6.663   2.296   2.566  0.8330 -0.1169  0.9708
 8288TIP3    H224829   6.685   2.174   2.479 -0.2828 -0.0165  0.5246
 8289TIP3   OH224830   3.676   5.958   1.574 -0.4049 -0.3583  0.1209
 8289TIP3    H124831   3.694   6.011   1.652  1.7460 -0.4141 -0.2824
 8289TIP3    H224832   3.723   6.002   1.503 -1.0651 -1.1611 -0.8528
 8290TIP3   OH224833   3.109   5.640   4.721  0.6758  0.4646 -0.3430
 8290TIP3    H124834   3.132   5.617   4.811 -1.4096  1.7408  0.5908
 8290TIP3    H224835   3.149   5.725   4.707  1.6870 -0.0965 -0.9395
 8291TIP3   OH224836   2.806   0.246   2.266  0.1300 -0.7252 -0.3215
 8291TIP3    H124837   2.837   0.316   2.323 -0.4602 -0.9593  0.3062
 8291TIP3    H224838   2.721   0.276   2.235 -0.1215 -1.1500 -0.0573
 8292TIP3   OH224839   5.918   1.458   2.776  0.7630  0.1471  0.4435
 8292TIP3    H124840   5.852   1.483   2.712  0.7794 -0.5933  0.1177
 8292TIP3    H224841   5.956   1.540   2.806  2.2763  0.4941 -2.1126
 8293TIP3   OH224842   4.104   6.714   1.914  0.1816 -0.2917 -0.3586
 8293TIP3    H124843   4.112   6.620   1.901  0.3840 -0.0074 -2.6150
 8293TIP3    H224844   4.028   6.739   1.862  2.1065  1.2377 -2.6600
 8294TIP3   OH224845   3.854   2.260   3.782 -0.0879 -0.2043  0.1617
 8294TIP3    H124846   3.802   2.229   3.856  1.1049 -0.1716  1.0313
 8294TIP3    H224847   3.901   2.182   3.752 -0.1068 -0.0849 -0.1835
 8295TIP3   OH224848   4.500   4.237   0.840  0.2596  0.3014 -0.3394
 8295TIP3    H124849   4.424   4.230   0.783  0.0728  0.1368 -0.0735
 8295TIP3    H224850   4.491   4.324   0.880 -0.6868 -0.3543  0.9400
 8296TIP3   OH224851   0.859   0.615   1.420  0.3102 -0.4913 -0.2715
 8296TIP3    H124852   0.885   0.700   1.384 -0.6313 -0.9536 -2.1730
 8296TIP3    H224853   0.868   0.625   1.514  2.1481  1.0620 -0.5613
 8297TIP3   OH224854   6.265   2.119   2.054  0.2109 -0.2356  0.1492
 8297TIP3    H124855   6.200   2.185   2.029 -1.1487 -1.3405  0.6582
 8297TIP3    H224856   6.274   2.064   1.976  0.6785  0.0060  0.0268
 8298TIP3   OH224857   3.231   0.578   4.157 -0.3194  0.4609 -0.3059
 8298TIP3    H124858   3.158   0.561   4.216 -0.5766  0.4966 -0.6121
 8298TIP3    H224859   3.248   0.494   4.115  0.7276  0.1010  0.7722
 8299TIP3   OH224860   6.679   2.630   0.745  0.1646  0.4830 -0.0355
 8299TIP3    H124861   6.686   2.604   0.653  1.2939 -0.9990  0.4429
 8299TIP3    H224862   6.667   2.725   0.741 -0.3289  0.3963 -1.7227
 8300TIP3   OH224863   5.600   0.053   4.017 -0.0931  0.6943 -0.2756
 8300TIP3    H124864   5.510   0.057   3.984 -0.2334  1.6891  0.1704
 8300TIP3    H224865   5.612   0.137   4.061  0.7417  0.1902  0.4822
 8301TIP3   OH224866   7.124   3.368   3.931 -0.1948 -0.1656 -0.1049
 8301TIP3    H124867   7.205   3.335   3.971  0.0126 -0.0218 -0.3995
 8301TIP3    H224868   7.095   3.295   3.875 -0.6951 -0.5136  0.5976
 8302TIP3   OH224869   0.961   4.557   4.967  0.1538 -0.1792  0.2812
 8302TIP3    H124870   0.953   4.638   4.917  0.8713 -0.1482  0.2093
 8302TIP3    H224871   1.055   4.539   4.969 -0.0725 -1.5941 -0.6233
 8303TIP3   OH224872   5.413   6.505   2.665 -0.5791  0.0717  0.1614
 8303TIP3    H124873   5.480   6.482   2.601  0.6306  0.7500  1.1420
 8303TIP3    H224874   5.332   6.508   2.615  0.4323  1.2522 -1.5019
 8304TIP3   OH224875   3.152   3.796   4.046 -0.2657 -0.5509  0.3550
 8304TIP3    H124876   3.216   3.748   4.098  0.4703  1.2475  1.1777
 8304TIP3    H224877   3.113   3.729   3.989  1.1512 -1.9870  0.9841
 8305TIP3   OH224878   6.340   5.146   4.765 -0.4852  0.2012  0.2308
 8305TIP3    H124879   6.306   5.236   4.757 -0.8771  0.1764  1.4310
 8305TIP3    H224880   6.389   5.132   4.684 -2.2046  0.7288 -0.9703
 8306TIP3   OH224881   3.307   4.138   3.499 -0.1962  0.8782 -0.3242
 8306TIP3    H124882   3.359   4.081   3.556 -1.4578  1.6089  1.6599
 8306TIP3    H224883   3.344   4.124   3.412  1.2016 -1.0144  0.4888
 8307TIP3   OH224884   1.578   6.214   3.999  0.2307  0.0695 -0.2966
 8307TIP3    H124885   1.562   6.210   3.905 -1.9479  0.9183 -0.0244
 8307TIP3    H224886   1.630   6.293   4.011 -1.3672  1.2156 -0.6224
 8308TIP3   OH224887   3.620   1.979   1.960 -0.2126 -0.1196 -0.4971
 8308TIP3    H124888   3.697   1.936   1.922  1.0201  0.0523  1.6637
 8308TIP3    H224889   3.616   1.947   2.050 -2.0574  0.7140 -0.2417
 8309TIP3   OH224890   3.754   3.223   1.626 -0.3911  0.4972 -0.4386
 8309TIP3    H124891   3.727   3.176   1.546  1.0976 -0.6205 -0.3398
 8309TIP3    H224892   3.847   3.202   1.635 -0.7733 -0.4016  2.2442
 8310TIP3   OH224893   2.595   1.273   5.549 -0.3126 -0.1149 -0.2791
 8310TIP3    H124894   2.662   1.275   5.481 -1.6731 -1.3915 -1.7157
 8310TIP3    H224895   2.514   1.297   5.504 -1.3583 -1.5958  0.7359
 8311TIP3   OH224896   6.471   5.219   5.072 -0.2307  0.2721  0.1478
 8311TIP3    H124897   6.455   5.312   5.087  0.1583  0.1670  1.2792
 8311TIP3    H224898   6.401   5.174   5.118 -0.3013 -0.0071 -0.2236
 8312TIP3   OH224899   6.911   1.428   0.728 -0.7819  0.0604  0.0997
 8312TIP3    H124900   6.923   1.515   0.767 -0.6949 -1.2309  3.1665
 8312TIP3    H224901   6.832   1.437   0.675 -0.8060  1.9875  0.3590
 8313TIP3   OH224902   7.158   2.445   4.047  0.0281  1.1364 -0.5667
 8313TIP3    H124903   7.221   2.504   4.007  0.2173  0.2760 -1.5664
 8313TIP3    H224904   7.084   2.442   3.987  0.6751 -0.8305 -1.3576
 8314TIP3   OH224905   4.601   6.350   5.658  0.2492  0.7490  0.8861
 8314TIP3    H124906   4.673   6.359   5.596 -0.1072 -0.1154  0.3246
 8314TIP3    H224907   4.530   6.313   5.607  0.2729 -0.9639  2.0013
 8315TIP3   OH224908   3.821   4.897   2.398  0.3099  0.2132 -0.2092
 8315TIP3    H124909   3.858   4.854   2.475  1.5601 -0.8700 -1.3487
 8315TIP3    H224910   3.882   4.969   2.380  0.6143 -0.1626 -0.7442
 8316TIP3   OH224911   4.287   5.251   0.456  0.7774  0.3792 -0.2847
 8316TIP3    H124912   4.365   5.203   0.486  0.5507 -0.5654 -1.1314
 8316TIP3    H224913   4.264   5.208   0.373 -1.6586 -0.5022  0.7835
 8317TIP3   OH224914   0.415   1.830   4.799  0.4920 -0.1405 -0.1503
 8317TIP3    H124915   0.400   1.839   4.893  0.7608 -0.2451 -0.0968
 8317TIP3    H224916   0.400   1.737   4.782  0.9794 -0.2267 -0.1137
 8318TIP3   OH224917   1.714   6.602   4.858 -0.1842 -0.0653  0.1399
 8318TIP3    H124918   1.737   6.540   4.928  0.6127 -1.6273 -1.4170
 8318TIP3    H224919   1.632   6.569   4.823  0.4348 -0.4959 -0.9479
 8319TIP3   OH224920   5.106   1.482   3.517 -0.2514  0.1040 -0.1784
 8319TIP3    H124921   5.143   1.543   3.453 -0.5239 -0.2469 -0.6820
 8319TIP3    H224922   5.101   1.532   3.598  0.4082  0.4557 -0.3474
 8320TIP3   OH224923   3.127   2.335   2.936  0.2128 -0.0365  1.1131
 8320TIP3    H124924   3.170   2.420   2.944 -0.1402  0.1544  1.0261
 8320TIP3    H224925   3.060   2.336   3.005  0.4651 -0.4042  1.3701
 8321TIP3   OH224926   4.182   0.974   3.972 -0.3082  0.5298  0.2728
 8321TIP3    H124927   4.207   0.905   4.034  3.1462  1.3180 -0.0312
 8321TIP3    H224928   4.127   1.034   4.023 -0.4886 -0.6401  1.5140
 8322TIP3   OH224929   2.109   5.355   1.901 -0.2551  0.2654 -0.1265
 8322TIP3    H124930   2.127   5.264   1.924 -0.9642 -0.5427 -2.4937
 8322TIP3    H224931   2.014   5.357   1.885 -0.3891  1.6345  0.7016
 8323TIP3   OH224932   5.894   4.373   1.886  0.1389 -1.0353  0.2952
 8323TIP3    H124933   5.969   4.314   1.893  1.2601  0.0933 -1.4882
 8323TIP3    H224934   5.931   4.455   1.854 -1.7812 -0.2508 -0.0572
 8324TIP3   OH224935   1.739   4.385   1.490  0.7703 -0.0086 -0.3513
 8324TIP3    H124936   1.654   4.425   1.475  0.8449 -0.1782 -1.2518
 8324TIP3    H224937   1.802   4.455   1.475  0.7983  0.1054  0.2700
 8325TIP3   OH224938   6.286   0.160   5.817  0.1763 -0.1856 -0.4721
 8325TIP3    H124939   6.246   0.220   5.880 -1.0118 -1.4168 -0.0129
 8325TIP3    H224940   6.213   0.129   5.764  1.0249  0.0474 -1.8281
 8326TIP3   OH224941   5.444   5.079   4.544 -0.0589  0.2436 -0.4485
 8326TIP3    H124942   5.485   5.030   4.615 -1.3183 -1.4004 -0.8046
 8326TIP3    H224943   5.442   5.170   4.575  1.8133  0.0166  0.4720
 8327TIP3   OH224944   0.740   3.198   2.492 -0.4062 -0.3537  0.7323
 8327TIP3    H124945   0.784   3.228   2.572  1.4032 -2.2163  0.4966
 8327TIP3    H224946   0.655   3.243   2.495  0.4284  1.3049  2.5742
 8328TIP3   OH224947   6.952   3.328   0.657 -0.2680 -0.8019  0.0510
 8328TIP3    H124948   6.918   3.358   0.742 -0.7112  0.1826 -0.4653
 8328TIP3    H224949   6.957   3.407   0.603  0.4828 -1.3393 -0.6928
 8329TIP3   OH224950   3.506   4.002   3.623 -0.2550  0.0404  0.0263
 8329TIP3    H124951   3.572   3.958   3.569  0.0901  1.6609 -0.9517
 8329TIP3    H224952   3.555   4.039   3.696 -0.0401  1.2432 -0.6997
 8330TIP3   OH224953   4.361   5.283   1.061 -0.5195 -0.5127  0.0286
 8330TIP3    H124954   4.340   5.319   1.148 -0.7963 -1.0774  0.1994
 8330TIP3    H224955   4.287   5.225   1.041  1.1099 -3.0284  0.9059
 8331TIP3   OH224956   4.849   4.172   0.199  0.1327 -0.6921  0.0528
 8331TIP3    H124957   4.782   4.161   0.131 -0.1994  0.2740  0.2143
 8331TIP3    H224958   4.834   4.100   0.260 -1.3439  0.0129  0.5651
 8332TIP3   OH224959   1.555   1.871   3.225 -0.6548 -0.4722 -0.1555
 8332TIP3    H124960   1.542   1.940   3.160 -2.0916  0.6575  1.2387
 8332TIP3    H224961   1.650   1.864   3.234 -0.4605  1.5658 -0.1343
 8333TIP3   OH224962   0.773   6.726   0.149 -0.1543  0.2355  0.4617
 8333TIP3    H124963   0.789   6.729   0.054  0.1509  0.6230  0.5235
 8333TIP3    H224964   0.781   6.817   0.177 -0.4311  0.1456  0.8309
 8334TIP3   OH224965   0.654   2.250   0.036 -0.2196  0.3059  0.7970
 8334TIP3    H124966   0.625   2.171  -0.011 -0.5933  0.9947 -0.1658
 8334TIP3    H224967   0.717   2.291  -0.023 -1.7430  1.9373  0.2365
 8335TIP3   OH224968   0.310   4.910   2.417  0.6072  0.1550 -0.6128
 8335TIP3    H124969   0.384   4.931   2.474 -0.1739  0.4178  0.3285
 8335TIP3    H224970   0.263   4.993   2.406 -0.0678 -0.2010 -0.4381
 8336TIP3   OH224971   1.443   2.183   5.464  0.3520  0.3877 -0.1214
 8336TIP3    H124972   1.514   2.193   5.528  1.7380 -0.8642 -1.3789
 8336TIP3    H224973   1.473   2.231   5.387 -1.9403  3.1331  0.5230
 8337TIP3   OH224974   6.673   2.347   5.751  0.1225 -0.7870 -0.1859
 8337TIP3    H124975   6.717   2.266   5.727  0.9044 -0.2630 -0.5912
 8337TIP3    H224976   6.708   2.412   5.690  0.2364  0.0524  0.7442
 8338TIP3   OH224977   1.626   0.092   1.398  0.4737 -0.0637  0.1742
 8338TIP3    H124978   1.682   0.047   1.334 -0.0449 -2.4443  1.2593
 8338TIP3    H224979   1.567   0.145   1.346  1.1362 -0.6454 -1.2199
 8339TIP3   OH224980   6.109   5.368   5.788 -0.0748 -0.3033  0.1060
 8339TIP3    H124981   6.170   5.315   5.737  0.7742  0.9031 -0.1846
 8339TIP3    H224982   6.086   5.313   5.863  0.9922 -0.9679 -0.0329
 8340TIP3   OH224983   5.107   2.046   5.451 -0.2423  0.6935  0.2158
 8340TIP3    H124984   5.198   2.050   5.482 -0.4164  0.2851  0.8041
 8340TIP3    H224985   5.107   2.098   5.370  1.2835 -1.9434 -1.6605
 8341TIP3   OH224986   6.065   3.896   4.049 -0.0507 -0.3507  0.0315
 8341TIP3    H124987   6.154   3.932   4.053  0.4593 -1.5502 -0.0863
 8341TIP3    H224988   6.020   3.934   4.124  1.3204 -1.6180  1.5789
 8342TIP3   OH224989   5.193   0.933   3.827 -0.4422  0.0442 -0.0291
 8342TIP3    H124990   5.143   0.932   3.909 -0.3681  0.2546  0.0179
 8342TIP3    H224991   5.178   0.846   3.790  0.6881 -0.5746  0.9056
 8343TIP3   OH224992   2.735   3.557   0.670  0.1007 -0.2202 -0.5800
 8343TIP3    H124993   2.705   3.623   0.732 -1.2331 -0.5825 -0.8032
 8343TIP3    H224994   2.781   3.492   0.724 -0.9245 -0.4640  0.0307
 8344TIP3   OH224995   0.611   6.113   0.783  0.0912 -0.0353 -0.4007
 8344TIP3    H124996   0.650   6.165   0.853 -0.9548 -1.3226  1.2099
 8344TIP3    H224997   0.523   6.150   0.771 -0.3897 -0.9338  0.2466
 8345TIP3   OH224998   4.279   3.852   4.253  0.6615  0.4416 -0.2841
 8345TIP3    H124999   4.191   3.885   4.275  0.0654 -0.4444 -1.2672
 8345TIP3    H225000   4.300   3.793   4.325  0.5081  0.7585  0.0255
 8346TIP3   OH225001   0.505   2.151   2.668 -0.2000 -0.9712 -0.7370
 8346TIP3    H125002   0.441   2.088   2.635 -0.5090 -0.9802 -0.1328
 8346TIP3    H225003   0.482   2.164   2.759 -0.6445  0.6328 -1.0384
 8347TIP3   OH225004   1.728   4.696   1.653  0.1780 -0.1200 -0.1231
 8347TIP3    H125005   1.655   4.639   1.680 -1.1710  1.0451 -1.1332
 8347TIP3    H225006   1.805   4.641   1.659 -0.7602 -1.3679  1.1474
 8348TIP3   OH225007   5.050   6.134   5.824  0.3171  0.0868  0.3057
 8348TIP3    H125008   5.068   6.208   5.882  0.2870  0.8671 -0.6600
 8348TIP3    H225009   5.038   6.174   5.738 -3.1460 -0.6424  0.3047
 8349TIP3   OH225010   6.200   0.668   4.926 -0.1383  0.0998 -0.1156
 8349TIP3    H125011   6.124   0.676   4.868  1.6813  0.6172 -2.5948
 8349TIP3    H225012   6.220   0.575   4.927  0.2473  0.1604 -0.9804
 8350TIP3   OH225013   4.516   4.909   4.837 -0.0689  0.3809 -0.1531
 8350TIP3    H125014   4.457   4.919   4.911 -0.6053  1.4890 -0.7054
 8350TIP3    H225015   4.602   4.935   4.871 -0.3970  1.3357 -0.0295
 8351TIP3   OH225016   6.150   6.023   4.594  0.1927 -1.1310  0.4790
 8351TIP3    H125017   6.095   6.047   4.519  0.2622  0.0992  0.8035
 8351TIP3    H225018   6.233   5.995   4.555  0.1541 -0.7096  0.0840
 8352TIP3   OH225019   5.626   0.310   4.097 -0.2866 -0.1687 -0.3283
 8352TIP3    H125020   5.562   0.375   4.127 -1.4922 -1.4887  0.0546
 8352TIP3    H225021   5.698   0.317   4.160  0.2935  1.7794 -1.1306
 8353TIP3   OH225022   5.085   6.104   0.993  0.1240  0.1165 -0.3647
 8353TIP3    H125023   5.139   6.043   1.043  0.5409  0.9239  0.1937
 8353TIP3    H225024   5.047   6.162   1.059 -1.7393 -0.6423 -0.6927
 8354TIP3   OH225025   6.902   1.104   0.330 -0.1301  0.2288 -0.0287
 8354TIP3    H125026   6.982   1.103   0.278  0.1234  2.2306  0.2650
 8354TIP3    H225027   6.924   1.155   0.407 -1.1993 -0.6913  0.9243
 8355TIP3   OH225028   5.675   1.055   3.378  0.4949 -0.0459 -0.2603
 8355TIP3    H125029   5.609   0.986   3.366  0.5828 -0.5692  1.8487
 8355TIP3    H225030   5.650   1.123   3.316 -1.2950 -0.7795 -0.4109
 8356TIP3   OH225031   4.708   6.294   3.124  0.6515  0.3279  0.7516
 8356TIP3    H125032   4.670   6.319   3.208 -0.0302 -0.3343  0.6477
 8356TIP3    H225033   4.633   6.274   3.068  1.1196  0.0635  0.1995
 8357TIP3   OH225034   2.833   5.756   0.367  0.0599  0.2230  0.0279
 8357TIP3    H125035   2.849   5.688   0.301 -2.7731 -1.3027  0.7194
 8357TIP3    H225036   2.868   5.719   0.448 -2.0344 -0.8155  0.5303
 8358TIP3   OH225037   1.783   2.461   2.628 -0.3815  0.1594 -0.0142
 8358TIP3    H125038   1.843   2.532   2.605  1.5629 -1.8072 -1.3824
 8358TIP3    H225039   1.728   2.450   2.550  0.8873 -1.2787 -0.7670
 8359TIP3   OH225040   4.645   4.878   5.453 -0.4062  0.4230 -0.0818
 8359TIP3    H125041   4.550   4.891   5.459 -0.6783 -1.4861  0.5488
 8359TIP3    H225042   4.666   4.821   5.527  1.1745  0.4864 -0.4532
 8360TIP3   OH225043   4.943   0.264   4.671  0.7897  0.0558 -0.1026
 8360TIP3    H125044   4.878   0.309   4.724 -1.1409 -0.3939 -1.9732
 8360TIP3    H225045   5.020   0.259   4.728 -0.2081  2.1151  1.5796
 8361TIP3   OH225046   6.533   1.047   4.598  0.0353 -0.7986 -0.1373
 8361TIP3    H125047   6.557   1.055   4.506 -1.0265 -2.8461 -0.6484
 8361TIP3    H225048   6.575   0.967   4.627  1.8976  0.7541  1.7521
 8362TIP3   OH225049   2.791   4.208   2.292 -0.2807  0.1904  0.0799
 8362TIP3    H125050   2.723   4.151   2.326 -0.1518 -0.1898 -0.2921
 8362TIP3    H225051   2.873   4.161   2.307 -0.2698 -0.2763 -1.3108
 8363TIP3   OH225052   2.284   3.841   5.585 -0.5382  0.0423 -0.3494
 8363TIP3    H125053   2.345   3.784   5.631  0.1810  0.0437 -1.2745
 8363TIP3    H225054   2.327   3.861   5.502 -1.2837  0.9940 -0.5313
 8364TIP3   OH225055   6.777   3.035   5.251 -0.0045  0.3786  0.1122
 8364TIP3    H125056   6.869   3.059   5.237 -0.1664  1.7933  1.2240
 8364TIP3    H225057   6.729   3.117   5.236 -0.9594 -0.0471  0.7633
 8365TIP3   OH225058   5.034   0.477   5.338  0.2526 -0.1764 -0.1024
 8365TIP3    H125059   4.991   0.493   5.254  2.6480 -0.3692 -1.4655
 8365TIP3    H225060   5.018   0.385   5.356 -0.1161 -0.1855 -0.4679
 8366TIP3   OH225061   3.692   5.673   3.884 -0.9623 -0.3396  0.3701
 8366TIP3    H125062   3.679   5.629   3.968  1.2592 -0.3562  0.7736
 8366TIP3    H225063   3.733   5.607   3.828 -0.1343  0.3917  0.0865
 8367TIP3   OH225064   3.339   5.124   1.721 -0.1651  0.2325 -0.2024
 8367TIP3    H125065   3.307   5.148   1.634  0.3998  0.5308 -0.3316
 8367TIP3    H225066   3.416   5.068   1.704 -1.4137 -1.6792  0.0828
 8368TIP3   OH225067   7.093   2.440   3.462  0.0917  0.3438  0.1799
 8368TIP3    H125068   7.187   2.433   3.473  0.2350  1.8869  0.2096
 8368TIP3    H225069   7.077   2.534   3.449 -1.4385  0.1216  0.2117
 8369TIP3   OH225070   0.182   2.919   3.360  0.8048 -0.1877  0.0167
 8369TIP3    H125071   0.141   2.909   3.274  0.3285 -1.0821  0.3426
 8369TIP3    H225072   0.275   2.933   3.340  0.5818  0.4004 -0.6658
 8370TIP3   OH225073   0.158   1.697   2.092 -0.6699 -0.0620 -0.3296
 8370TIP3    H125074   0.236   1.711   2.039 -0.9105 -1.7792 -1.2251
 8370TIP3    H225075   0.087   1.688   2.028 -1.2004 -0.8213  0.3458
 8371TIP3   OH225076   2.732   0.096   2.832 -1.1379  0.5505  0.1117
 8371TIP3    H125077   2.775   0.167   2.785  0.0262  0.3436  0.8270
 8371TIP3    H225078   2.673   0.139   2.894 -1.4309  0.8531 -0.3739
 8372TIP3   OH225079   5.697   0.658   5.258 -0.5743  0.2756  0.2580
 8372TIP3    H125080   5.769   0.689   5.203  1.0469 -2.5768  0.5423
 8372TIP3    H225081   5.696   0.717   5.334  1.0809  0.7266 -0.0430
 8373TIP3   OH225082   0.309   1.402   0.712  0.2898  0.0049  0.3822
 8373TIP3    H125083   0.393   1.442   0.735  0.0749  0.4243  0.4478
 8373TIP3    H225084   0.302   1.326   0.771  0.9166 -0.4201 -0.0661
 8374TIP3   OH225085   1.287   2.761   5.729  0.5220  0.0416  0.2165
 8374TIP3    H125086   1.329   2.788   5.647  1.1311  0.4771  0.6639
 8374TIP3    H225087   1.204   2.722   5.702  1.5828 -1.6429 -0.7606
 8375TIP3   OH225088   6.814   4.082   3.492 -0.3384 -0.1404 -0.3520
 8375TIP3    H125089   6.848   4.000   3.458  0.4710 -0.3923  0.9668
 8375TIP3    H225090   6.721   4.081   3.470 -0.2170 -1.1334 -0.8648
 8376TIP3   OH225091   4.032   3.212   5.226  0.1976 -0.9377  0.2192
 8376TIP3    H125092   4.018   3.133   5.173  0.7994 -0.4137 -0.7306
 8376TIP3    H225093   4.097   3.186   5.292 -0.2155 -1.4578  0.4332
 8377TIP3   OH225094   5.734   4.148   3.686 -0.2052  0.6558 -0.2081
 8377TIP3    H125095   5.774   4.073   3.641  1.2862  0.5985  1.1330
 8377TIP3    H225096   5.791   4.221   3.665  0.7313  0.5519  1.8380
 8378TIP3   OH225097   3.920   2.941   1.836 -0.0420  0.3561  0.0734
 8378TIP3    H125098   3.838   2.894   1.823 -0.7919  1.1652  1.5796
 8378TIP3    H225099   3.979   2.877   1.875 -1.0344  0.5420  2.0489
 8379TIP3   OH225100   4.343   0.480   3.080  0.1760 -0.0502  0.1065
 8379TIP3    H125101   4.326   0.551   3.018  1.9880 -0.3527 -0.8114
 8379TIP3    H225102   4.284   0.410   3.053  0.0019  0.3014 -0.4526
 8380TIP3   OH225103   2.122   3.170   0.419  0.0482  0.1860 -0.1205
 8380TIP3    H125104   2.187   3.169   0.489 -0.2649  0.3579  0.1739
 8380TIP3    H225105   2.174   3.172   0.338  0.4090  0.0120  0.1046
 8381TIP3   OH225106   1.954   1.658   0.502  0.2757 -0.3871  0.6464
 8381TIP3    H125107   2.045   1.636   0.481  0.0269 -1.4202  0.5701
 8381TIP3    H225108   1.931   1.599   0.575 -0.4076 -0.3273  0.4891
 8382TIP3   OH225109   0.581   5.041   3.733 -0.3715  0.4421  0.7932
 8382TIP3    H125110   0.666   5.037   3.777 -0.0326 -0.9674  0.0395
 8382TIP3    H225111   0.518   5.042   3.805  0.1859 -1.5359  1.3723
 8383TIP3   OH225112   1.591   5.078   5.332  0.2814 -0.6669 -0.1776
 8383TIP3    H125113   1.557   5.164   5.307 -1.1580 -0.2555  2.7379
 8383TIP3    H225114   1.515   5.032   5.367  1.1887 -2.8767 -0.9402
 8384TIP3   OH225115   1.585   6.457   2.372 -0.0117  0.4371  0.4895
 8384TIP3    H125116   1.661   6.476   2.318 -1.1419 -1.8227 -2.1215
 8384TIP3    H225117   1.598   6.366   2.401 -1.3920  0.2309  0.5350
 8385TIP3   OH225118   6.217   3.488   4.851 -0.0416 -0.3317 -0.1082
 8385TIP3    H125119   6.275   3.412   4.853 -0.2283 -0.5090 -1.0565
 8385TIP3    H225120   6.154   3.473   4.920  1.8959  0.5663  1.9912
 8386TIP3   OH225121   5.985   4.637   0.824  0.1267  0.3580 -0.1345
 8386TIP3    H125122   5.936   4.689   0.888 -0.5105 -0.0268 -0.3047
 8386TIP3    H225123   5.946   4.550   0.828  2.7786 -0.8973  1.9673
 8387TIP3   OH225124   0.205   4.054   5.509 -0.0420  0.2600 -0.6239
 8387TIP3    H125125   0.271   4.109   5.467  0.7171 -0.6026 -0.5955
 8387TIP3    H225126   0.168   4.109   5.578  2.9461 -0.2284  1.5363
 8388TIP3   OH225127   3.910   6.237   3.566 -0.2959  0.1094  0.0931
 8388TIP3    H125128   3.893   6.204   3.654  1.0882  0.7961  0.6549
 8388TIP3    H225129   4.006   6.235   3.558 -0.4118 -3.0858 -2.6372
 8389TIP3   OH225130   0.140   3.654   5.473 -0.4725  0.1799 -0.0853
 8389TIP3    H125131   0.097   3.703   5.543 -1.6719  0.5063 -1.0337
 8389TIP3    H225132   0.148   3.717   5.401  1.7540  0.1825  0.0903
 8390TIP3   OH225133   4.537   0.367   5.670 -0.5312 -0.0184 -0.0028
 8390TIP3    H125134   4.601   0.327   5.612 -0.5325 -0.9404  0.6027
 8390TIP3    H225135   4.556   0.461   5.667  3.2495 -0.4317  2.8356
 8391TIP3   OH225136   6.631   5.627   5.818  0.1760 -0.4088  0.1756
 8391TIP3    H125137   6.540   5.613   5.845 -0.0559 -0.3322 -0.5497
 8391TIP3    H225138   6.675   5.659   5.898  0.1533 -2.7710  1.1951
 8392TIP3   OH225139   0.787   0.269   4.652  0.3836  0.1712 -0.1276
 8392TIP3    H125140   0.779   0.364   4.651 -0.5941  0.1393  1.4795
 8392TIP3    H225141   0.720   0.237   4.592  1.1039  0.4750 -1.1328
 8393TIP3   OH225142   2.255  -0.009   3.060 -0.1077  0.5852 -0.0142
 8393TIP3    H125143   2.243  -0.011   3.155 -0.6672  1.6580 -0.0478
 8393TIP3    H225144   2.249   0.084   3.037 -0.6892  0.2765 -1.1907
 8394TIP3   OH225145   4.761   5.232   5.604  0.1659  0.0574 -0.1102
 8394TIP3    H125146   4.732   5.144   5.628  2.3765 -1.2874 -2.0542
 8394TIP3    H225147   4.852   5.236   5.632  0.8216  0.8121 -2.1838
 8395TIP3   OH225148   5.451   2.335   2.839 -0.1679  0.3405 -0.0642
 8395TIP3    H125149   5.477   2.308   2.751  1.5917 -2.8113  1.2530
 8395TIP3    H225150   5.360   2.307   2.847 -0.0775 -0.1424 -0.6185
 8396TIP3   OH225151   3.862   3.798   2.571  0.2519 -0.4162  0.5964
 8396TIP3    H125152   3.925   3.729   2.594 -0.7214 -1.2175  0.9236
 8396TIP3    H225153   3.828   3.772   2.486 -0.0564 -0.2879  0.6799
 8397TIP3   OH225154   4.008   3.067   1.612 -0.2341  0.8576  0.0813
 8397TIP3    H125155   3.964   3.025   1.687 -2.6252 -2.7652 -2.9609
 8397TIP3    H225156   4.087   3.015   1.600 -1.2391 -0.4309 -1.3805
 8398TIP3   OH225157   2.374   3.860   0.661  0.0215  0.0560  0.7127
 8398TIP3    H125158   2.296   3.849   0.714 -0.2435  2.0596  0.8278
 8398TIP3    H225159   2.388   3.955   0.658  3.2109 -0.2483  1.8270
 8399TIP3   OH225160   2.380   3.884   1.279 -0.3571  1.0058  0.0974
 8399TIP3    H125161   2.471   3.906   1.262 -0.2316  0.7234  0.4047
 8399TIP3    H225162   2.336   3.969   1.286 -0.0281  1.1511  0.4366
 8400TIP3   OH225163   0.442   1.401   0.234 -0.0434  0.3228  0.1771
 8400TIP3    H125164   0.518   1.445   0.272 -0.4557 -0.3779  1.9509
 8400TIP3    H225165   0.443   1.426   0.142  1.8064  1.0549  0.3459
 8401TIP3   OH225166   7.159   6.220   1.388 -0.1698  0.8926  0.0242
 8401TIP3    H125167   7.180   6.144   1.332 -0.1651  0.6614  0.3385
 8401TIP3    H225168   7.244   6.259   1.409 -0.2412  1.8325 -1.2980
 8402TIP3   OH225169   1.754   5.792   5.472 -0.2146  0.0602  0.1236
 8402TIP3    H125170   1.845   5.807   5.500  0.3352 -1.4946 -0.6880
 8402TIP3    H225171   1.733   5.867   5.416  0.1507  1.0167  1.2273
 8403TIP3   OH225172   0.450   2.124   0.677  0.0217 -0.8306 -0.1240
 8403TIP3    H125173   0.405   2.158   0.755 -1.1297 -0.2355 -1.0019
 8403TIP3    H225174   0.396   2.155   0.604  0.8034 -1.7919 -1.1334
 8404TIP3   OH225175   0.252   1.172   4.412 -0.2825  0.0241 -0.0124
 8404TIP3    H125176   0.197   1.097   4.436  0.0639 -0.7861 -1.6390
 8404TIP3    H225177   0.223   1.196   4.324  0.9889  0.4998 -0.3214
 8405TIP3   OH225178   6.622   1.747   3.622  0.3602 -0.1769 -0.0329
 8405TIP3    H125179   6.663   1.826   3.657 -1.1482  1.2281 -1.3278
 8405TIP3    H225180   6.612   1.690   3.699  1.5728  0.8020  0.9052
 8406TIP3   OH225181   2.627   1.266   3.606 -0.1069 -0.1818  0.2023
 8406TIP3    H125182   2.608   1.252   3.513 -0.4160 -1.9426  0.4995
 8406TIP3    H225183   2.711   1.311   3.606  0.0375 -0.4065 -0.9183
 8407TIP3   OH225184   3.995   3.363   0.984 -0.0091  0.1186 -0.2768
 8407TIP3    H125185   4.050   3.285   0.982 -0.8741 -0.4836 -1.1745
 8407TIP3    H225186   3.906   3.330   1.000 -0.3439  0.9443 -0.3666
 8408TIP3   OH225187   5.102   6.572   1.424 -0.5975 -0.1959 -0.2123
 8408TIP3    H125188   5.011   6.557   1.399 -0.6155  0.1222 -0.3430
 8408TIP3    H225189   5.100   6.652   1.475 -0.8173 -1.7259  2.3530
 8409TIP3   OH225190   4.810   3.346   4.638 -0.3486  0.3817 -0.0205
 8409TIP3    H125191   4.719   3.375   4.636 -0.5388 -0.2265 -1.5960
 8409TIP3    H225192   4.822   3.311   4.726 -2.6224 -2.4135 -0.6613
 8410TIP3   OH225193   0.993   5.140   2.004 -0.0966 -0.2252 -0.4404
 8410TIP3    H125194   0.898   5.131   2.002 -0.0469 -1.9860  1.6090
 8410TIP3    H225195   1.023   5.086   1.930 -0.6675  0.9094 -1.5344
 8411TIP3   OH225196   0.758   2.538   2.118 -0.0446 -0.1918  0.0397
 8411TIP3    H125197   0.763   2.632   2.137 -0.0188 -0.3076  0.6230
 8411TIP3    H225198   0.715   2.501   2.195  1.9200 -0.9575  0.8493
 8412TIP3   OH225199   5.866   4.684   3.307 -0.2938  0.5289  0.3059
 8412TIP3    H125200   5.884   4.603   3.355  1.4922  0.1612 -0.8535
 8412TIP3    H225201   5.869   4.752   3.373 -0.4081 -0.2118  1.0950
 8413TIP3   OH225202   3.055   2.129   3.575  0.2200 -0.5180 -0.1760
 8413TIP3    H125203   3.025   2.187   3.505  0.1662 -0.2535  0.0642
 8413TIP3    H225204   3.131   2.173   3.613  0.1915 -0.6128 -0.0051
 8414TIP3   OH225205   6.105   1.116   4.334  0.0990  0.4421 -0.3656
 8414TIP3    H125206   6.195   1.146   4.347  0.0316  1.7024 -2.3643
 8414TIP3    H225207   6.108   1.022   4.349  1.4682  0.6446  0.8446
 8415TIP3   OH225208   2.370   6.303   2.761 -0.7160  0.6137 -0.3128
 8415TIP3    H125209   2.288   6.303   2.811 -0.6874 -2.2289 -0.1510
 8415TIP3    H225210   2.387   6.211   2.742  2.7553  1.0532  0.1280
 8416TIP3   OH225211   0.666   1.612   4.977  0.2268 -0.4107 -0.4023
 8416TIP3    H125212   0.748   1.589   5.021  0.7887  1.5606 -0.3060
 8416TIP3    H225213   0.648   1.702   5.006 -1.6117 -0.5496 -0.9663
 8417TIP3   OH225214   4.822   0.882   1.767  0.5152 -0.1813  0.0904
 8417TIP3    H125215   4.776   0.966   1.763  1.5700  0.3908 -0.2178
 8417TIP3    H225216   4.758   0.819   1.734 -0.9363  0.1779  2.0126
 8418TIP3   OH225217   2.504   5.643   2.615  0.1255  0.2947  0.9064
 8418TIP3    H125218   2.453   5.563   2.628  0.7116  0.0438  1.7598
 8418TIP3    H225219   2.592   5.612   2.595  0.1311  0.7293  0.2182
 8419TIP3   OH225220   1.049   6.227   1.413  0.0551 -0.3038  0.0751
 8419TIP3    H125221   1.099   6.236   1.331  0.3532  0.8441  0.3566
 8419TIP3    H225222   0.964   6.267   1.394  0.2477  0.2803  0.4175
 8420TIP3   OH225223   5.980   5.949   1.967 -0.0316  0.0750  0.1202
 8420TIP3    H125224   6.002   5.999   2.046  0.5345 -1.4572  0.9619
 8420TIP3    H225225   5.885   5.940   1.970 -0.1391  1.0309 -0.0208
 8421TIP3   OH225226   3.253   1.113   0.311 -0.1305 -0.1991 -0.6368
 8421TIP3    H125227   3.174   1.105   0.258 -0.9025  0.3515  0.3724
 8421TIP3    H225228   3.272   1.207   0.311 -1.5137  0.1830  1.8749
 8422TIP3   OH225229   6.134   0.815   4.363 -0.0668  0.1895  0.1000
 8422TIP3    H125230   6.063   0.752   4.376 -1.5416  1.0444 -2.9033
 8422TIP3    H225231   6.178   0.785   4.284  1.2112  1.2311  0.3806
 8423TIP3   OH225232   3.596   4.218   4.051 -0.1685  0.0067  0.3715
 8423TIP3    H125233   3.666   4.153   4.044 -1.1523 -0.9148 -2.3848
 8423TIP3    H225234   3.542   4.203   3.974 -2.5409  1.7235  1.5765
 8424TIP3   OH225235   3.725   0.479   3.333  0.0474  0.5251 -0.1862
 8424TIP3    H125236   3.711   0.567   3.297 -0.8187  0.5983  0.3014
 8424TIP3    H225237   3.819   0.464   3.323  0.3440  1.8294  0.4269
 8425TIP3   OH225238   6.680   4.930   5.092  0.0868 -0.2981  0.1731
 8425TIP3    H125239   6.749   4.945   5.157 -0.7271  0.8551  0.8319
 8425TIP3    H225240   6.631   5.013   5.090  0.6782  0.0931 -2.6860
 8426TIP3   OH225241   0.977   3.041   1.462 -0.0980 -0.2321  0.8661
 8426TIP3    H125242   0.973   3.124   1.414  0.3291 -0.3192  0.6820
 8426TIP3    H225243   0.899   2.993   1.434 -0.2814  0.0529  0.8797
 8427TIP3   OH225244   0.198   6.248   4.633 -1.0244  0.3774  0.1109
 8427TIP3    H125245   0.170   6.326   4.681 -2.0668 -0.4804  0.9389
 8427TIP3    H225246   0.146   6.250   4.552 -2.1205 -0.1914  0.7785
 8428TIP3   OH225247   1.318   5.760   1.184 -0.0405 -0.9341  0.6155
 8428TIP3    H125248   1.260   5.685   1.172 -2.8311  0.8690  1.7933
 8428TIP3    H225249   1.348   5.754   1.274 -0.1195 -0.7442  0.6552
 8429TIP3   OH225250   5.702   3.611   3.073  0.2191  0.1722 -0.0525
 8429TIP3    H125251   5.797   3.605   3.088  0.1424  0.8596  0.8415
 8429TIP3    H225252   5.679   3.529   3.032  1.4021  0.4656 -1.3815
 8430TIP3   OH225253   6.968   4.444   5.908 -0.1671 -0.4536 -0.2249
 8430TIP3    H125254   6.920   4.408   5.834 -1.9118 -0.8304  1.0334
 8430TIP3    H225255   7.043   4.488   5.868 -0.1614 -2.0040 -2.0826
 8431TIP3   OH225256   6.740   6.407   1.279  0.4091  0.4444  0.1090
 8431TIP3    H125257   6.741   6.467   1.205 -0.5466 -2.0725 -2.0941
 8431TIP3    H225258   6.756   6.462   1.355  0.3889  3.3164 -1.8386
 8432TIP3   OH225259   6.020   1.323   3.632 -0.2065  0.0113  0.5100
 8432TIP3    H125260   6.061   1.252   3.582 -0.5539  1.1150 -1.4556
 8432TIP3    H225261   5.939   1.285   3.665  0.6759 -1.1453  1.4164
 8433TIP3   OH225262   2.764   0.923   3.748 -0.3149 -0.2729  0.3747
 8433TIP3    H125263   2.838   0.978   3.720 -0.3322 -0.4834 -0.0884
 8433TIP3    H225264   2.691   0.985   3.758 -0.4776 -0.2872 -0.6815
 8434TIP3   OH225265   2.804   5.949   5.754 -0.1478 -0.0770  0.8489
 8434TIP3    H125266   2.735   5.886   5.771 -1.1134  0.3395 -1.2043
 8434TIP3    H225267   2.850   5.914   5.677 -1.0870  1.9232 -0.7194
 8435TIP3   OH225268   3.103   4.532   5.826  0.0070 -0.3223  0.3049
 8435TIP3    H125269   3.068   4.501   5.742  0.0464 -1.4207  0.6807
 8435TIP3    H225270   3.050   4.609   5.847  1.4129  1.3401 -1.7739
 8436TIP3   OH225271   4.480   6.488   2.026  0.1216 -0.3930 -0.5566
 8436TIP3    H125272   4.430   6.468   1.946 -0.0072  0.5856 -0.7386
 8436TIP3    H225273   4.437   6.437   2.094  0.7470 -1.8863 -1.2546
 8437TIP3   OH225274   4.246   3.951   2.123  0.1291  0.1685  0.2573
 8437TIP3    H125275   4.294   3.871   2.101 -0.5682 -0.1540 -0.1103
 8437TIP3    H225276   4.180   3.923   2.187 -0.8436  0.2212 -0.7003
 8438TIP3   OH225277   4.334   6.361   0.318 -0.2242 -0.3289 -0.9176
 8438TIP3    H125278   4.295   6.337   0.234  0.8914 -0.4672 -1.4227
 8438TIP3    H225279   4.428   6.369   0.299  0.0626 -0.4685  0.3376
 8439TIP3   OH225280   0.496   0.750   1.301  0.4054 -0.6493 -0.3894
 8439TIP3    H125281   0.516   0.658   1.320  0.0373 -0.6795 -0.1298
 8439TIP3    H225282   0.580   0.795   1.307  0.5321 -0.9108 -0.1584
 8440TIP3   OH225283   2.001   1.214   0.927  0.3711 -0.0209  0.0444
 8440TIP3    H125284   2.043   1.171   0.852  0.6650  0.1730  0.0966
 8440TIP3    H225285   1.910   1.228   0.899 -0.0588 -1.7599  0.4746
 8441TIP3   OH225286   1.320   2.305   4.730  0.2872 -0.3280 -0.4200
 8441TIP3    H125287   1.257   2.239   4.701 -1.7010  1.4603 -0.3124
 8441TIP3    H225288   1.267   2.377   4.763  2.4141  0.4837  1.4725
 8442TIP3   OH225289   5.535   1.565   5.838 -0.5435 -0.5248 -0.2801
 8442TIP3    H125290   5.471   1.494   5.841 -0.1494 -0.8761 -0.1444
 8442TIP3    H225291   5.619   1.521   5.826 -0.0446 -0.2344  1.8075
 8443TIP3   OH225292   4.294   4.384   0.533  0.3127  0.8292  0.0736
 8443TIP3    H125293   4.254   4.436   0.464  0.6824  0.3778 -0.4917
 8443TIP3    H225294   4.347   4.447   0.583  0.2314  1.1177 -0.1992
 8444TIP3   OH225295   4.088   2.808   3.036 -0.2675 -0.2066 -0.1503
 8444TIP3    H125296   4.005   2.823   2.991  0.7665  1.7960 -1.5399
 8444TIP3    H225297   4.098   2.883   3.094  1.2937  0.4954 -1.2454
 8445TIP3   OH225298   5.244   5.150   0.493  0.6714  0.3115  0.6888
 8445TIP3    H125299   5.332   5.188   0.493  1.2416 -0.9510 -0.0226
 8445TIP3    H225300   5.250   5.076   0.553  0.5146 -0.6570 -0.4547
 8446TIP3   OH225301   4.714   4.412   3.431  0.8856 -0.0383 -0.0085
 8446TIP3    H125302   4.674   4.431   3.346 -1.6400  0.8939  1.3077
 8446TIP3    H225303   4.699   4.318   3.445 -1.3951  0.3688  0.6505
 8447TIP3   OH225304   5.301   3.016   3.537 -0.4185 -0.3595  0.5144
 8447TIP3    H125305   5.227   3.003   3.478 -0.5598  0.4835  0.4923
 8447TIP3    H225306   5.350   3.089   3.498  0.3936 -0.8612  0.5620
 8448TIP3   OH225307   3.213   6.386   0.429  0.2943  0.0075 -0.2641
 8448TIP3    H125308   3.235   6.455   0.492  1.9756  0.0603 -0.8746
 8448TIP3    H225309   3.139   6.340   0.469  0.4007  0.9316  1.0635
 8449TIP3   OH225310   2.511   2.512   5.716  0.3431  0.2283 -0.4816
 8449TIP3    H125311   2.529   2.514   5.621  0.3975  2.0466 -0.4740
 8449TIP3    H225312   2.549   2.594   5.748  0.8637 -0.6425  1.2372
 8450TIP3   OH225313   0.876   2.233   1.297  0.2094  0.4511 -0.0507
 8450TIP3    H125314   0.858   2.323   1.324  1.0192  0.5398  0.2222
 8450TIP3    H225315   0.885   2.185   1.380  1.2396  0.4215 -0.1787
 8451TIP3   OH225316   0.447   0.853   4.466  0.6787  0.0637 -0.3345
 8451TIP3    H125317   0.455   0.789   4.396  0.5483 -2.0318  1.4864
 8451TIP3    H225318   0.363   0.896   4.450  0.2201 -1.0284 -0.9133
 8452TIP3   OH225319   1.723   4.326   2.935 -0.6629 -0.2568 -0.0037
 8452TIP3    H125320   1.677   4.409   2.924  0.4136  0.7095  2.0800
 8452TIP3    H225321   1.787   4.324   2.864 -0.3866  0.9672  0.1877
 8453TIP3   OH225322   5.126   2.473   4.240  0.1313 -0.1934 -0.5815
 8453TIP3    H125323   5.141   2.406   4.174  0.5257 -0.5354 -0.1538
 8453TIP3    H225324   5.116   2.555   4.190 -0.7898 -0.6305 -1.1329
 8454TIP3   OH225325   0.738   6.390   5.604 -0.5632 -0.1080 -0.2785
 8454TIP3    H125326   0.677   6.323   5.635 -0.8279  0.2462 -0.0244
 8454TIP3    H225327   0.733   6.385   5.508 -0.0143 -0.9579 -0.2694
 8455TIP3   OH225328   5.671   0.825   5.482  0.0463 -0.6048  0.2077
 8455TIP3    H125329   5.628   0.901   5.519  1.1441  0.4904 -0.6827
 8455TIP3    H225330   5.747   0.810   5.539  1.5429  0.8740 -1.2829
 8456TIP3   OH225331   5.911   6.493   4.645  0.4714 -0.3177 -0.2010
 8456TIP3    H125332   5.951   6.573   4.610  3.1768 -1.8105 -0.8137
 8456TIP3    H225333   5.902   6.436   4.569 -1.2366 -0.7129  0.2604
 8457TIP3   OH225334   1.596   1.213   1.868 -0.1089 -0.2261  0.2312
 8457TIP3    H125335   1.574   1.303   1.843  1.4050  0.6839  1.9866
 8457TIP3    H225336   1.620   1.170   1.786 -1.4057  0.7659 -0.7128
 8458TIP3   OH225337   5.558   2.452   1.888  0.4766 -0.1785 -0.1897
 8458TIP3    H125338   5.638   2.399   1.894  0.9341  0.6070  0.9273
 8458TIP3    H225339   5.567   2.499   1.805  1.7843  0.8378  0.5021
 8459TIP3   OH225340   5.497   3.043   5.112  0.0849  0.4551 -0.2056
 8459TIP3    H125341   5.531   2.972   5.167  0.4591 -0.1806 -1.2367
 8459TIP3    H225342   5.567   3.059   5.049 -0.6336  0.6874 -0.9479
 8460TIP3   OH225343   2.620   5.997   3.998  0.0498  0.4894 -0.4216
 8460TIP3    H125344   2.539   6.042   3.974 -0.9966 -1.0856 -0.0142
 8460TIP3    H225345   2.611   5.981   4.092  0.1307 -1.0074 -0.6421
 8461TIP3   OH225346   7.108   4.391   4.902 -0.8011 -0.3101 -0.0851
 8461TIP3    H125347   7.114   4.459   4.835  0.5230 -1.1910 -0.9142
 8461TIP3    H225348   7.168   4.419   4.971  0.4470 -1.0598 -0.8442
 8462TIP3   OH225349   3.416   6.477   2.626  0.3403  0.0540  0.1023
 8462TIP3    H125350   3.470   6.555   2.628  2.2389 -1.2108  0.6492
 8462TIP3    H225351   3.453   6.424   2.555  0.9294 -1.5714  1.5645
 8463TIP3   OH225352   5.042   5.434   1.895 -0.2834  0.2663  0.1934
 8463TIP3    H125353   5.112   5.371   1.877  1.5761  1.7723  1.7475
 8463TIP3    H225354   5.017   5.468   1.809  0.9662 -0.2195 -0.3830
 8464TIP3   OH225355   1.084   2.395   1.864  0.5630  0.3677 -0.1081
 8464TIP3    H125356   1.076   2.362   1.774  1.1787 -1.2154  0.3867
 8464TIP3    H225357   1.057   2.486   1.858 -1.6905 -0.2971 -1.4748
 8465TIP3   OH225358   2.936   4.694   0.744  0.0553 -0.1443 -0.2489
 8465TIP3    H125359   2.957   4.609   0.705  1.1144 -0.0305  0.0356
 8465TIP3    H225360   2.999   4.703   0.816  0.7810  1.4102 -1.0415
 8466TIP3   OH225361   1.186   6.782   5.094  0.4232  0.1069 -0.5280
 8466TIP3    H125362   1.193   6.705   5.150 -2.2145 -1.6011 -2.3096
 8466TIP3    H225363   1.178   6.856   5.155 -0.1793 -1.4182  1.3200
 8467TIP3   OH225364   3.592  -0.032   5.668  0.3644  0.1309 -0.4964
 8467TIP3    H125365   3.686  -0.012   5.662  0.6135 -0.2349  1.6287
 8467TIP3    H225366   3.554   0.044   5.712 -0.0098 -0.5561  0.3747
 8468TIP3   OH225367   3.284   3.045   3.600 -0.5548 -0.7207  0.0937
 8468TIP3    H125368   3.225   2.989   3.551 -0.1598 -0.6382 -0.4817
 8468TIP3    H225369   3.228   3.092   3.661 -0.9014 -1.6961  0.5481
 8469TIP3   OH225370   3.166   2.980   2.140 -0.3073  0.1347  0.8477
 8469TIP3    H125371   3.177   2.923   2.064 -1.4507 -0.5529  1.1769
 8469TIP3    H225372   3.197   3.065   2.110  1.2448 -0.5899  0.2825
 8470TIP3   OH225373   4.383   4.236   3.699 -0.3098 -0.6137 -0.1151
 8470TIP3    H125374   4.294   4.216   3.673  0.2634 -1.8730 -1.2174
 8470TIP3    H225375   4.435   4.162   3.667  1.2965  0.6387 -0.5352
 8471TIP3   OH225376   3.950   2.437   3.243 -0.4201  0.5735 -0.0863
 8471TIP3    H125377   3.966   2.469   3.154 -0.9923  0.9710 -0.0491
 8471TIP3    H225378   3.886   2.497   3.279 -1.2824 -0.4210  0.0947
 8472TIP3   OH225379   6.642   0.982   2.754  0.1237 -0.1091 -0.3045
 8472TIP3    H125380   6.583   0.940   2.816  0.9535 -0.1787  0.4491
 8472TIP3    H225381   6.622   0.940   2.670  1.1270 -2.2606  0.4625
 8473TIP3   OH225382   5.439   6.764   4.257 -0.3782 -0.1052 -0.3186
 8473TIP3    H125383   5.374   6.834   4.257 -0.1147  0.1498  0.5879
 8473TIP3    H225384   5.387   6.684   4.246 -0.7465  0.1718 -0.6147
 8474TIP3   OH225385   1.054   4.860   3.685  0.1354 -0.1353 -0.1104
 8474TIP3    H125386   1.110   4.917   3.633  0.4184  0.6739  1.0415
 8474TIP3    H225387   1.040   4.783   3.629  0.7904  0.4931 -1.1840
 8475TIP3   OH225388   0.369   1.683   2.486 -0.0247 -0.0508 -0.6723
 8475TIP3    H125389   0.430   1.728   2.545 -1.0502  0.0015  0.3897
 8475TIP3    H225390   0.424   1.625   2.435  1.4117  2.5564 -2.3173
 8476TIP3   OH225391   6.193   5.681   2.501 -0.1696  0.1207 -0.0541
 8476TIP3    H125392   6.176   5.587   2.491  0.1931  0.2324 -2.2449
 8476TIP3    H225393   6.181   5.698   2.594  0.3643 -2.2149  0.5018
 8477TIP3   OH225394   6.866   3.068   5.784 -0.0183 -0.3556 -0.0453
 8477TIP3    H125395   6.809   3.075   5.708 -0.9708  1.0434  0.7579
 8477TIP3    H225396   6.835   2.992   5.831 -0.7523 -0.0416 -0.0102
 8478TIP3   OH225397   5.431   3.844   3.337  0.4328  0.2448  0.3601
 8478TIP3    H125398   5.468   3.834   3.249  0.5623 -0.2482  0.4689
 8478TIP3    H225399   5.443   3.936   3.357 -0.9505  0.7054 -0.7486
 8479TIP3   OH225400   4.890   0.280   3.242 -0.0832 -0.4171 -0.1863
 8479TIP3    H125401   4.879   0.187   3.221 -0.2402 -0.6591  0.9052
 8479TIP3    H225402   4.846   0.291   3.326  0.5939  0.4837  0.0683
 8480TIP3   OH225403   2.567   0.645   5.482 -0.1362 -0.4440  0.2990
 8480TIP3    H125404   2.625   0.596   5.423  0.4370  0.7878 -0.1939
 8480TIP3    H225405   2.484   0.649   5.435  0.8641  2.2956 -1.4734
 8481TIP3   OH225406   4.186   4.408   0.038 -0.2497 -0.7003  0.0354
 8481TIP3    H125407   4.155   4.376   0.123 -0.5685 -0.4678  0.0124
 8481TIP3    H225408   4.171   4.336  -0.022  0.7945 -1.1890  0.3388
 8482TIP3   OH225409   2.578   4.711   2.821 -0.1342 -0.6175  0.1374
 8482TIP3    H125410   2.492   4.675   2.843  0.1719 -0.2489  2.0483
 8482TIP3    H225411   2.627   4.709   2.903  1.3135  0.2366 -0.6709
 8483TIP3   OH225412   6.796   2.647   3.615 -0.9823  0.3091 -0.5158
 8483TIP3    H125413   6.830   2.735   3.600 -0.3388  0.0305 -0.7493
 8483TIP3    H225414   6.758   2.621   3.531  0.1122 -0.1734 -0.8860
 8484TIP3   OH225415   3.375   4.036   1.502  0.2857 -0.0886  0.7228
 8484TIP3    H125416   3.305   4.096   1.474  0.2075 -0.4062  0.2249
 8484TIP3    H225417   3.443   4.093   1.538  1.0593  0.4793 -1.5210
 8485TIP3   OH225418   2.138   4.852   2.230 -0.5088  0.0357  0.2430
 8485TIP3    H125419   2.172   4.931   2.273  0.4650  0.0004 -0.4318
 8485TIP3    H225420   2.052   4.878   2.198 -0.3306  0.7302  0.2994
 8486TIP3   OH225421   5.917   6.565   2.209  0.7271 -0.1313  0.2910
 8486TIP3    H125422   6.001   6.553   2.165  0.5777 -0.4671  0.1012
 8486TIP3    H225423   5.909   6.489   2.267  0.8148  0.1878  0.7283
 8487TIP3   OH225424   3.542   6.660   2.392 -0.3454 -0.0464 -0.3671
 8487TIP3    H125425   3.622   6.708   2.411 -0.2219 -0.4138  0.0699
 8487TIP3    H225426   3.561   6.570   2.420 -0.1373 -0.6430 -2.3109
 8488TIP3   OH225427   5.925   3.197   0.312 -0.2437 -0.3575  0.4754
 8488TIP3    H125428   5.948   3.195   0.405 -0.7606  0.6124  0.6449
 8488TIP3    H225429   5.906   3.290   0.295 -1.8591 -0.7639 -0.1594
 8489TIP3   OH225430   4.647   2.901   4.622  0.3389  0.3322  0.2083
 8489TIP3    H125431   4.678   2.814   4.598  0.5009  0.8017 -1.4004
 8489TIP3    H225432   4.570   2.915   4.567  0.4709  1.3073  0.2576
 8490TIP3   OH225433   4.837   1.294   1.538  0.1964 -0.3905 -0.4423
 8490TIP3    H125434   4.783   1.350   1.482 -1.6712 -2.6423 -1.0417
 8490TIP3    H225435   4.868   1.225   1.480 -0.2294 -1.7528  0.8987
 8491TIP3   OH225436   5.029   5.119   5.650 -0.3696  0.6479 -0.0247
 8491TIP3    H125437   5.069   5.101   5.736 -1.4524  1.7919  0.7636
 8491TIP3    H225438   5.025   5.033   5.608  1.2673  0.2341  0.5660
 8492TIP3   OH225439   5.320   2.004   0.786 -0.0478 -0.0812  0.2883
 8492TIP3    H125440   5.300   2.034   0.875 -0.3731 -0.1051  0.2256
 8492TIP3    H225441   5.325   1.908   0.794 -0.5051 -0.1184  0.2045
 8493TIP3   OH225442   5.922   6.215   5.132  0.2010  0.2030 -0.3257
 8493TIP3    H125443   5.947   6.123   5.136  1.8516  0.6335 -0.0318
 8493TIP3    H225444   5.918   6.236   5.039  2.1316  0.3971 -0.3946
 8494TIP3   OH225445   1.966   6.055   4.480  0.1726 -0.0030 -0.4502
 8494TIP3    H125446   2.024   6.130   4.490 -0.3411  0.2033  1.3743
 8494TIP3    H225447   1.926   6.067   4.394  2.4796  0.0561 -1.5862
 8495TIP3   OH225448   1.783   2.842   4.853  0.0544  0.3762 -0.5731
 8495TIP3    H125449   1.854   2.849   4.917 -0.2631 -0.6681 -0.0838
 8495TIP3    H225450   1.816   2.780   4.787  0.0200  0.7447 -0.9453
 8496TIP3   OH225451   2.586   5.934   2.474  0.0883 -0.0121  0.5245
 8496TIP3    H125452   2.517   5.997   2.494 -0.1253 -0.0335 -0.1127
 8496TIP3    H225453   2.542   5.849   2.473 -0.3039  0.1551 -1.7701
 8497TIP3   OH225454   0.958   5.250   3.677 -0.0284 -0.2594  0.0114
 8497TIP3    H125455   0.865   5.265   3.663 -0.4844 -1.6918  1.3199
 8497TIP3    H225456   0.993   5.337   3.698 -0.8904  0.4287 -1.2880
 8498TIP3   OH225457   6.401   0.050   5.123  1.1571  0.4730 -0.9462
 8498TIP3    H125458   6.353   0.032   5.204 -0.8324 -0.5079 -2.2763
 8498TIP3    H225459   6.447  -0.032   5.104  0.6583  0.3004 -1.4240
 8499TIP3   OH225460   2.330   0.999   2.134 -0.3282 -0.3239 -0.1542
 8499TIP3    H125461   2.243   1.015   2.172 -0.4675 -0.9786 -0.1929
 8499TIP3    H225462   2.345   1.075   2.077 -0.7415 -0.0544  0.0915
 8500TIP3   OH225463   5.529   4.790   1.469  0.3567 -0.4079  0.1718
 8500TIP3    H125464   5.499   4.840   1.546  0.4996 -0.5220  0.3013
 8500TIP3    H225465   5.610   4.748   1.498  0.5777 -0.2004 -0.1413
 8501TIP3   OH225466   1.347   2.437   5.886  0.1366 -0.0181  0.2379
 8501TIP3    H125467   1.270   2.448   5.942 -0.5526 -0.1043 -0.6779
 8501TIP3    H225468   1.318   2.379   5.816  0.8638  0.4327 -0.4493
 8502TIP3   OH225469   0.178   4.847   0.140  0.0823 -0.1552 -0.1171
 8502TIP3    H125470   0.193   4.824   0.232  0.8344 -3.0554 -0.8512
 8502TIP3    H225471   0.216   4.934   0.130  0.5585 -0.0440  2.1464
 8503TIP3   OH225472   4.200   4.633   1.777  0.4848  0.1273 -0.7995
 8503TIP3    H125473   4.277   4.634   1.720  1.2430 -0.9242  0.1492
 8503TIP3    H225474   4.190   4.541   1.802  1.0725  0.6882  1.8559
 8504TIP3   OH225475   2.516   0.050   4.070 -0.6179  0.3815 -0.5540
 8504TIP3    H125476   2.556   0.084   4.150  0.3165  0.3213 -0.9848
 8504TIP3    H225477   2.514  -0.045   4.083 -1.9370  0.4648  0.0535
 8505TIP3   OH225478   1.269   2.653   0.677 -0.3339 -0.0066  0.1184
 8505TIP3    H125479   1.346   2.684   0.629 -0.8923  0.1971 -0.6706
 8505TIP3    H225480   1.282   2.558   0.683  0.0626  0.0456  0.1424
 8506TIP3   OH225481   1.247   1.426   0.116  0.4189 -0.0419 -0.6406
 8506TIP3    H125482   1.157   1.394   0.107  0.1268  0.9882 -1.6639
 8506TIP3    H225483   1.245   1.514   0.080  1.5091  0.6135  0.7644
 8507TIP3   OH225484   3.109   3.330   5.393  0.6218  0.2384  0.5911
 8507TIP3    H125485   3.104   3.389   5.467  0.2126 -0.2702  0.9766
 8507TIP3    H225486   3.135   3.246   5.430  1.3058  0.1930  0.0374
 8508TIP3   OH225487   4.526   2.731   0.637 -0.6947 -0.2964  0.1992
 8508TIP3    H125488   4.531   2.727   0.541 -1.7631 -2.0979  0.1843
 8508TIP3    H225489   4.436   2.757   0.656 -0.6128 -0.3759  0.7109
 8509TIP3   OH225490   5.050   1.226   3.876  1.2514 -0.6501  0.4542
 8509TIP3    H125491   5.018   1.228   3.787 -0.5128 -0.3008  1.0620
 8509TIP3    H225492   5.115   1.156   3.877  0.4378 -1.4592 -0.8148
 8510TIP3   OH225493   6.867   2.684   4.467 -0.0398 -0.0238  0.2659
 8510TIP3    H125494   6.911   2.664   4.549 -1.3987  0.8520  1.2354
 8510TIP3    H225495   6.813   2.607   4.450  0.1090 -0.1317  0.2793
 8511TIP3   OH225496   1.220   4.428   4.440  0.0517 -0.5927 -0.1954
 8511TIP3    H125497   1.228   4.523   4.440  2.3620 -0.6562  2.3171
 8511TIP3    H225498   1.149   4.410   4.502  1.1265 -0.4846  1.1120
 8512TIP3   OH225499   2.251   2.603   1.950 -0.2583 -0.2433 -0.5495
 8512TIP3    H125500   2.325   2.660   1.930  0.0918 -0.1983  0.8008
 8512TIP3    H225501   2.189   2.619   1.879 -0.4583  2.3279  0.1158
 8513TIP3   OH225502   6.836   1.951   4.816 -0.1690  0.1564  0.0229
 8513TIP3    H125503   6.917   1.903   4.798 -0.8781 -0.4385 -1.7713
 8513TIP3    H225504   6.766   1.889   4.798 -1.0505  0.7580  1.2574
 8514TIP3   OH225505   0.532   5.619   4.123  0.0851 -0.4428 -0.4944
 8514TIP3    H125506   0.515   5.685   4.055  1.2784  0.7904  0.3501
 8514TIP3    H225507   0.453   5.621   4.178 -0.3119 -0.4626 -1.0569
 8515TIP3   OH225508   1.345   4.986   4.977 -0.4980  0.1625  0.7891
 8515TIP3    H125509   1.385   4.953   4.896 -0.1070 -1.3961  1.5754
 8515TIP3    H225510   1.415   4.982   5.042 -0.8105  1.3939  1.2231
 8516TIP3   OH225511   2.158   5.991   0.688 -0.4348 -0.2903  0.2367
 8516TIP3    H125512   2.138   5.902   0.718  0.4749 -0.5433  0.1231
 8516TIP3    H225513   2.149   5.986   0.593 -0.7425 -0.1673  0.2599
 8517TIP3   OH225514   0.933   6.578   3.669  0.2392 -0.0682  0.3966
 8517TIP3    H125515   1.015   6.603   3.626  0.1441  0.0921  0.3073
 8517TIP3    H225516   0.933   6.627   3.751 -1.0687  2.1399 -0.8343
 8518TIP3   OH225517   3.221   4.808   0.010  0.0132 -0.3328  0.1813
 8518TIP3    H125518   3.179   4.757   0.079 -0.7017  1.2033  0.9143
 8518TIP3    H225519   3.309   4.825   0.043 -0.5502  0.9998  1.0763
 8519TIP3   OH225520   5.780   4.656   1.523  0.0799 -0.4806 -0.0354
 8519TIP3    H125521   5.762   4.564   1.505 -2.4348 -0.5444  2.2119
 8519TIP3    H225522   5.860   4.654   1.576 -0.5142 -1.5419  0.8870
 8520TIP3   OH225523   7.201   6.225   5.745 -0.6520  0.3886  0.2049
 8520TIP3    H125524   7.214   6.315   5.776 -1.5805  0.8614 -0.7305
 8520TIP3    H225525   7.108   6.220   5.723 -0.0869  0.0695 -2.3815
 8521TIP3   OH225526   3.848   2.407   1.971  0.3399 -0.4785  0.5805
 8521TIP3    H125527   3.820   2.419   1.880  0.0518 -0.3723  0.6835
 8521TIP3    H225528   3.845   2.494   2.009  1.7184 -0.3012  0.3432
 8522TIP3   OH225529   2.233   6.569   3.768  0.2162 -0.2591 -0.6014
 8522TIP3    H125530   2.257   6.595   3.857  0.5318 -1.1481 -0.4085
 8522TIP3    H225531   2.143   6.598   3.756  0.5295  0.8152 -0.3797
 8523TIP3   OH225532   2.947   1.914   5.229 -0.1269  0.0505  0.0603
 8523TIP3    H125533   3.021   1.974   5.227  0.2642 -0.4213  0.2044
 8523TIP3    H225534   2.953   1.866   5.147  0.7931 -1.2417  0.8402
 8524TIP3   OH225535   1.044   5.384   0.128  0.2798  0.1721  0.0952
 8524TIP3    H125536   1.134   5.401   0.154  0.0806 -0.5050  1.2866
 8524TIP3    H225537   0.993   5.451   0.173 -0.2683 -2.0580  3.1004
 8525TIP3   OH225538   2.144   2.409   0.216 -0.3143  0.6332 -0.6707
 8525TIP3    H125539   2.227   2.454   0.229 -0.4521  0.6919  0.0224
 8525TIP3    H225540   2.118   2.432   0.127  0.0527  1.2046 -0.6352
 8526TIP3   OH225541   0.918   6.074   3.760 -0.1335 -0.2593  0.0718
 8526TIP3    H125542   0.955   6.155   3.792  0.9257 -0.7282  0.0706
 8526TIP3    H225543   0.953   6.065   3.671 -1.5104  0.0673 -0.5354
 8527TIP3   OH225544   4.292   5.749   4.345 -0.3273 -0.2592 -0.6538
 8527TIP3    H125545   4.255   5.738   4.433 -0.4397  3.1056 -0.1610
 8527TIP3    H225546   4.356   5.678   4.338  0.2301 -0.2214  2.4748
 8528TIP3   OH225547   5.460   2.718   1.069  0.7540  0.0249 -0.4780
 8528TIP3    H125548   5.526   2.688   1.005  1.3542  0.8788 -0.2812
 8528TIP3    H225549   5.506   2.714   1.153  0.0191 -0.9287 -0.1045
 8529TIP3   OH225550   0.156   3.771   3.959 -0.2063 -0.2336  0.3261
 8529TIP3    H125551   0.104   3.804   4.032 -0.7493 -1.1366  0.3634
 8529TIP3    H225552   0.236   3.739   3.999 -0.9685 -1.7543  0.6942
 8530TIP3   OH225553   3.135   1.298   2.327 -0.3185  0.1758 -0.5548
 8530TIP3    H125554   3.141   1.271   2.418  0.8018 -0.8333 -0.8989
 8530TIP3    H225555   3.219   1.341   2.310 -1.5246  2.8256 -0.3986
 8531TIP3   OH225556   5.579   3.085   2.111  0.2998  0.2037 -0.1598
 8531TIP3    H125557   5.500   3.065   2.162 -0.2173 -0.3452 -1.1462
 8531TIP3    H225558   5.546   3.122   2.029  1.0772  0.0056 -0.5705
 8532TIP3   OH225559   6.923   6.152   5.704  0.2244 -0.5457 -0.0690
 8532TIP3    H125560   6.868   6.215   5.750  1.8062  0.4195  0.5642
 8532TIP3    H225561   6.871   6.071   5.704 -1.5140  0.5123 -0.2134
 8533TIP3   OH225562   0.558   6.253   1.399 -0.3082 -0.4921 -0.6596
 8533TIP3    H125563   0.622   6.207   1.453  1.4678  2.0403 -0.3801
 8533TIP3    H225564   0.520   6.319   1.457 -0.3932  0.4658 -1.7620
 8534TIP3   OH225565   5.585   1.227   1.441 -0.5258 -0.5150  0.4776
 8534TIP3    H125566   5.543   1.245   1.526 -2.3050 -1.7947 -0.0691
 8534TIP3    H225567   5.655   1.292   1.435  0.6322 -1.2600  3.5646
 8535TIP3   OH225568   2.326   2.202   3.063 -0.7899  0.0574 -0.1958
 8535TIP3    H125569   2.312   2.136   2.995  0.2607 -0.4910  0.1056
 8535TIP3    H225570   2.252   2.191   3.123 -0.6329 -0.8448 -0.1590
 8536TIP3   OH225571   5.988   2.588   0.536  0.0921 -0.0687  0.0844
 8536TIP3    H125572   5.999   2.665   0.480 -1.5460  0.2500  0.1452
 8536TIP3    H225573   5.972   2.516   0.476  1.4642 -0.3688  0.0359
 8537TIP3   OH225574   1.891   0.420   2.982 -0.6661  0.4678  0.6299
 8537TIP3    H125575   1.803   0.408   3.018 -1.4551 -0.4217 -1.4090
 8537TIP3    H225576   1.929   0.333   2.981  0.3117  0.8638  1.5928
 8538TIP3   OH225577   3.487   3.063   0.090  0.0246 -1.0079  0.3993
 8538TIP3    H125578   3.527   3.149   0.100 -0.3307 -0.8693  0.6680
 8538TIP3    H225579   3.423   3.074   0.020  0.0805 -1.0941  0.3331
 8539TIP3   OH225580   3.088   3.378   4.880  0.2798  0.3765  0.1720
 8539TIP3    H125581   3.011   3.335   4.919  1.4807 -2.4656 -0.3623
 8539TIP3    H225582   3.142   3.402   4.955 -0.3720  0.9377  0.4795
 8540TIP3   OH225583   3.850   0.645   3.706 -0.4562  0.1215 -0.0089
 8540TIP3    H125584   3.840   0.550   3.717  0.9342 -0.1991 -1.1955
 8540TIP3    H225585   3.897   0.673   3.784  0.0469 -0.3533 -0.1340
 8541TIP3   OH225586   0.376   6.109   5.441  0.0226  0.0110  0.4286
 8541TIP3    H125587   0.368   6.029   5.390 -0.2976  0.6401 -0.5253
 8541TIP3    H225588   0.287   6.129   5.470  0.0054  0.3729  0.1257
 8542TIP3   OH225589   1.026   4.711   0.393 -0.5323  0.9423 -0.1882
 8542TIP3    H125590   1.101   4.760   0.427 -1.0443  1.2426  0.5243
 8542TIP3    H225591   0.962   4.779   0.370 -0.9579  0.6453  0.1083
 8543TIP3   OH225592   2.563   2.984   3.249  0.0189 -0.5958 -0.2766
 8543TIP3    H125593   2.502   2.911   3.254  1.3655 -1.8196 -1.0734
 8543TIP3    H225594   2.601   2.989   3.337 -1.5144  0.4895  0.3714
 8544TIP3   OH225595   2.338   1.766   3.965 -0.4371  0.7844  0.5768
 8544TIP3    H125596   2.334   1.679   4.004  0.9665 -0.5315 -1.9800
 8544TIP3    H225597   2.424   1.769   3.923 -0.4574  3.4388  0.5803
 8545TIP3   OH225598   3.718   1.309   3.584  0.0389 -0.0155  0.0985
 8545TIP3    H125599   3.768   1.335   3.506 -1.8772  1.0707 -0.8436
 8545TIP3    H225600   3.769   1.344   3.657  0.5993  1.1859 -0.8267
 8546TIP3   OH225601   3.107   1.606   3.903  0.4576 -0.1236 -0.1802
 8546TIP3    H125602   3.057   1.650   3.834 -0.3879  1.0367  1.1232
 8546TIP3    H225603   3.178   1.666   3.924  1.7482 -1.2322 -1.1751
 8547TIP3   OH225604   1.797   5.088   4.292  0.4126 -0.5116 -0.2695
 8547TIP3    H125605   1.796   5.148   4.366  1.6834 -0.3028 -0.3897
 8547TIP3    H225606   1.883   5.045   4.297  1.6284  1.3033 -2.9843
 8548TIP3   OH225607   2.166   2.155   3.521  0.1206 -1.4168 -0.2643
 8548TIP3    H125608   2.234   2.110   3.571 -0.3930 -1.0950  0.7604
 8548TIP3    H225609   2.209   2.234   3.487 -0.6864  1.3123  4.1871
 8549TIP3   OH225610   1.282   4.759   1.041  0.0619  0.3074  0.4182
 8549TIP3    H125611   1.290   4.843   0.996  1.0872  0.0793  0.1446
 8549TIP3    H225612   1.340   4.767   1.117  0.0041 -0.0707  0.5045
 8550TIP3   OH225613   5.480   5.737   1.860 -0.1662 -0.5154 -0.2775
 8550TIP3    H125614   5.463   5.733   1.954 -0.1541  0.6393 -0.2090
 8550TIP3    H225615   5.468   5.647   1.829 -2.0891 -0.5741  0.5008
 8551TIP3   OH225616   3.009   1.976   2.113 -0.6739  0.9215  0.0653
 8551TIP3    H125617   2.916   1.987   2.093 -0.8793  0.8891  0.9509
 8551TIP3    H225618   3.054   2.035   2.052 -1.0341 -1.2847 -2.5123
 8552TIP3   OH225619   3.265   4.795   2.302 -0.1450 -0.2338 -0.3721
 8552TIP3    H125620   3.190   4.854   2.299 -0.0871 -0.0141  1.5118
 8552TIP3    H225621   3.336   4.846   2.263 -0.3086  0.6378  0.4339
 8553TIP3   OH225622   2.340  -0.001   2.613  0.3961  0.9587 -0.0049
 8553TIP3    H125623   2.362   0.082   2.656 -0.6935  2.1663 -1.6532
 8553TIP3    H225624   2.261  -0.031   2.658  0.7131  0.8783  0.5037
 8554TIP3   OH225625   0.202   0.018   3.617 -0.5177 -0.2106 -0.1282
 8554TIP3    H125626   0.151   0.011   3.698  1.1438  2.9023  1.3609
 8554TIP3    H225627   0.292   0.004   3.644  0.1349  1.4040 -1.3315
 8555TIP3   OH225628   5.733   0.415   2.094 -0.4072  0.3101  0.2929
 8555TIP3    H125629   5.744   0.412   2.189  1.1512 -0.3662  0.1113
 8555TIP3    H225630   5.816   0.447   2.060 -0.9451  0.5576 -0.8603
 8556TIP3   OH225631   6.980   4.941   3.040  0.5681 -0.2901 -0.6349
 8556TIP3    H125632   6.954   5.027   3.073 -0.8667 -1.2253  0.8367
 8556TIP3    H225633   7.050   4.959   2.977  1.2299  1.8323  0.6201
 8557TIP3   OH225634   2.843   2.332   3.029 -0.3658 -0.3906 -0.6881
 8557TIP3    H125635   2.861   2.242   3.056  0.3888 -0.0875 -0.1640
 8557TIP3    H225636   2.750   2.344   3.048  0.3915  0.3173  3.3974
 8558TIP3   OH225637   1.294   5.640   1.999  0.0711  0.0899 -0.1220
 8558TIP3    H125638   1.317   5.564   2.052 -2.2089 -0.2622  0.4966
 8558TIP3    H225639   1.310   5.715   2.057 -2.6819 -0.3058  1.3308
 8559TIP3   OH225640   1.394   2.806   5.479  0.1656 -0.8708  0.3210
 8559TIP3    H125641   1.471   2.862   5.489 -0.9119  0.6115  0.8036
 8559TIP3    H225642   1.364   2.822   5.389  0.7107 -1.8597 -0.0467
 8560TIP3   OH225643   0.578   2.006   5.637 -0.0939 -0.0917 -0.5437
 8560TIP3    H125644   0.489   2.018   5.672 -0.2576  1.0392 -1.2747
 8560TIP3    H225645   0.618   1.942   5.695 -0.8754  0.5397  0.7514
 8561TIP3   OH225646   2.461   1.426   2.713  0.4630  0.0283 -0.1125
 8561TIP3    H125647   2.411   1.424   2.794  1.8941 -0.9865  0.7902
 8561TIP3    H225648   2.434   1.348   2.665  0.7525 -0.2121  0.1129
 8562TIP3   OH225649   4.676   3.418   2.045 -0.1504  0.6422  0.1295
 8562TIP3    H125650   4.616   3.347   2.069 -0.5910  0.5165 -1.2242
 8562TIP3    H225651   4.676   3.417   1.949  2.3988  0.3340  0.0765
 8563TIP3   OH225652   1.658   1.307   3.427  0.0561 -0.0829  0.7454
 8563TIP3    H125653   1.619   1.393   3.435 -0.8409 -0.4252  0.1735
 8563TIP3    H225654   1.742   1.323   3.383 -0.0897  0.4967  0.6708
 8564TIP3   OH225655   3.725   4.028   2.006  0.4156 -0.3675  0.0971
 8564TIP3    H125656   3.700   4.096   2.068 -0.1982  0.0677 -0.6146
 8564TIP3    H225657   3.652   4.022   1.945  1.4655  0.0140 -1.2608
 8565TIP3   OH225658   5.584   0.351   1.149  0.7128  0.6257 -0.7518
 8565TIP3    H125659   5.654   0.301   1.190 -0.1003 -1.8701 -2.1565
 8565TIP3    H225660   5.626   0.398   1.078  1.3274  0.9961 -0.1442
 8566TIP3   OH225661   0.337   2.207   3.850 -0.4756  0.0522 -0.4064
 8566TIP3    H125662   0.408   2.268   3.828 -0.7782  0.3634 -0.5230
 8566TIP3    H225663   0.285   2.201   3.770 -0.2717 -0.6028 -0.4928
 8567TIP3   OH225664   0.415   2.733   5.283  0.3429 -0.3700 -0.0879
 8567TIP3    H125665   0.326   2.727   5.317  0.7624 -0.3385  1.0496
 8567TIP3    H225666   0.467   2.768   5.355  1.1117  0.5304 -1.0429
 8568TIP3   OH225667   0.347   5.098   1.892  0.3985 -0.0835 -0.2399
 8568TIP3    H125668   0.361   5.156   1.966  1.8545  0.2537 -0.7483
 8568TIP3    H225669   0.407   5.025   1.907  0.3711 -0.2376 -0.8515
 8569TIP3   OH225670   0.729   3.857   3.522  0.0786 -0.4618  0.4497
 8569TIP3    H125671   0.731   3.788   3.456  0.4453 -0.5478  0.5517
 8569TIP3    H225672   0.640   3.854   3.557  0.1784 -1.0915  0.6727
 8570TIP3   OH225673   0.887   1.667   1.227 -0.5305 -0.1362 -0.3131
 8570TIP3    H125674   0.887   1.572   1.220 -1.8843 -0.4104  2.0919
 8570TIP3    H225675   0.866   1.699   1.139  1.6749 -1.9188 -1.5938
 8571TIP3   OH225676   6.644   3.992   0.830  0.2502  0.1966 -0.6343
 8571TIP3    H125677   6.629   3.934   0.756 -0.3133 -0.6063  0.0951
 8571TIP3    H225678   6.580   4.062   0.819 -0.8092 -0.6677 -0.1575
 8572TIP3   OH225679   6.617   4.290   3.239 -0.7215  0.2226  0.0294
 8572TIP3    H125680   6.632   4.364   3.298  0.2031  1.2942 -1.5019
 8572TIP3    H225681   6.705   4.263   3.212 -1.1397  0.0667 -1.2360
 8573TIP3   OH225682   1.375   5.334   1.346  0.6005  0.3131  0.2148
 8573TIP3    H125683   1.315   5.407   1.329  0.1197 -0.0678  0.2476
 8573TIP3    H225684   1.462   5.374   1.348  0.3168  0.9256  0.4926
 8574TIP3   OH225685   6.084   0.311   1.565  0.2799  0.2976  0.0956
 8574TIP3    H125686   5.999   0.334   1.527  0.9498  2.0417 -0.4185
 8574TIP3    H225687   6.071   0.222   1.600 -1.8242  0.6187  0.2744
 8575TIP3   OH225688   3.531   5.614   5.552 -0.4146  0.1159  0.5464
 8575TIP3    H125689   3.436   5.608   5.538 -0.4228  1.3832 -0.0003
 8575TIP3    H225690   3.569   5.589   5.468 -0.2657  0.1565  0.6019
 8576TIP3   OH225691   6.785   5.861   4.736  0.1738  0.2558  0.3550
 8576TIP3    H125692   6.777   5.918   4.660 -0.8781  1.3468  1.2359
 8576TIP3    H225693   6.730   5.786   4.717 -0.1364  0.5567  0.0614
 8577TIP3   OH225694   2.893   3.087   3.881  0.2060 -0.3283  0.4972
 8577TIP3    H125695   2.804   3.123   3.875  0.6791  1.0949  1.3606
 8577TIP3    H225696   2.926   3.089   3.791  0.7336  3.0228  0.6051
 8578TIP3   OH225697   3.322   2.314   2.276  0.0749  0.0643 -0.0201
 8578TIP3    H125698   3.245   2.263   2.301  0.8987 -1.1141  0.1454
 8578TIP3    H225699   3.386   2.249   2.246 -0.0524  1.1906 -3.0974
 8579TIP3   OH225700   6.902   0.342   4.551 -0.2035  0.1339 -0.0945
 8579TIP3    H125701   6.877   0.280   4.482 -0.9560 -1.2243  1.3317
 8579TIP3    H225702   6.847   0.418   4.537 -0.3785 -0.1415 -0.9581
 8580TIP3   OH225703   7.064   2.654   1.002  0.0192 -0.1177 -0.1833
 8580TIP3    H125704   7.153   2.628   1.028 -0.0419 -1.0971 -0.9174
 8580TIP3    H225705   7.010   2.577   1.021 -0.3146 -0.2661 -1.6353
 8581TIP3   OH225706   6.476   4.195   3.838  0.1022 -0.0436 -0.5458
 8581TIP3    H125707   6.409   4.197   3.906 -0.5656  0.4465 -1.2050
 8581TIP3    H225708   6.559   4.200   3.887 -0.2991 -1.2596  0.3033
 8582TIP3   OH225709   1.565   1.924   3.872 -0.5604  0.5221 -0.0907
 8582TIP3    H125710   1.530   1.879   3.795 -1.1875  0.1556  0.4062
 8582TIP3    H225711   1.623   1.860   3.913 -1.1108  0.3142  0.3710
 8583TIP3   OH225712   0.592   5.714   0.360  0.0919  0.4902  0.0082
 8583TIP3    H125713   0.620   5.801   0.388  1.4639  0.9374 -2.4020
 8583TIP3    H225714   0.534   5.730   0.286 -0.1497 -0.6221 -0.0677
 8584TIP3   OH225715   4.148   3.617   0.849 -0.0506 -0.0949 -0.2825
 8584TIP3    H125716   4.093   3.694   0.863  1.1258  1.0224 -1.5444
 8584TIP3    H225717   4.235   3.652   0.830  0.1706 -1.6166 -2.5202
 8585TIP3   OH225718   5.098   3.082   3.363  0.3731  0.5354 -0.2066
 8585TIP3    H125719   5.028   3.018   3.374  1.1025 -0.2826 -0.2079
 8585TIP3    H225720   5.064   3.162   3.403 -1.0887  0.5607 -1.3960
 8586TIP3   OH225721   5.906   4.809   4.543  0.6193  0.1647 -0.4539
 8586TIP3    H125722   5.857   4.745   4.492  1.1090 -0.3883 -0.2383
 8586TIP3    H225723   5.839   4.855   4.594  0.3307 -0.6201 -0.1212
 8587TIP3   OH225724   1.740   5.114   3.044 -0.3218  0.0335  0.4523
 8587TIP3    H125725   1.831   5.130   3.070 -0.2582 -0.2609  0.4210
 8587TIP3    H225726   1.703   5.065   3.117  0.1227 -1.6199 -0.3782
 8588TIP3   OH225727   4.428   1.596   2.077 -0.2888 -0.0777 -0.5035
 8588TIP3    H125728   4.506   1.628   2.032 -0.0984  0.4937  0.2076
 8588TIP3    H225729   4.445   1.504   2.093 -0.5351 -0.4003 -1.9460
 8589TIP3   OH225730   1.575   2.761   3.010  0.1829  0.3869 -0.1996
 8589TIP3    H125731   1.574   2.777   2.915  0.4394  0.7035 -0.1513
 8589TIP3    H225732   1.648   2.700   3.023 -0.5331 -0.5166 -0.3327
 8590TIP3   OH225733   5.380   0.104   3.280  0.1231  0.2028 -0.2912
 8590TIP3    H125734   5.316   0.168   3.248  0.0237  0.0647 -0.3702
 8590TIP3    H225735   5.351   0.021   3.243 -0.2027 -0.0208  0.4452
 8591TIP3   OH225736   1.020   2.877   3.355 -0.0367  0.5717  0.0662
 8591TIP3    H125737   1.052   2.786   3.358  2.3764  1.3697  0.6612
 8591TIP3    H225738   1.064   2.915   3.280  1.6944  2.1286  1.7772
 8592TIP3   OH225739   2.631   5.325   3.769 -0.4674 -0.3392  1.0823
 8592TIP3    H125740   2.692   5.389   3.805  1.6188 -1.0632 -0.9277
 8592TIP3    H225741   2.554   5.377   3.744  1.0532  1.3989 -0.2563
 8593TIP3   OH225742   5.649   3.217   5.362  0.4695  0.2782 -0.0249
 8593TIP3    H125743   5.642   3.284   5.294  0.4772  0.1060 -0.1986
 8593TIP3    H225744   5.654   3.266   5.444  0.9153  0.5045 -0.1808
 8594TIP3   OH225745   4.413   0.511   0.214 -0.1797  0.2676 -0.4359
 8594TIP3    H125746   4.319   0.491   0.208 -0.1638  0.0406  0.0521
 8594TIP3    H225747   4.451   0.434   0.256  0.2869  0.1986 -0.9750
 8595TIP3   OH225748   6.612   4.520   4.488  0.3999 -0.4760 -0.3313
 8595TIP3    H125749   6.659   4.547   4.567 -0.7437  1.0440 -0.1129
 8595TIP3    H225750   6.529   4.485   4.521 -0.0505  0.0979 -0.8423
 8596TIP3   OH225751   1.675   2.256   4.027  0.3136 -0.0572  0.4449
 8596TIP3    H125752   1.704   2.284   4.114  1.1697  1.0426 -0.1752
 8596TIP3    H225753   1.728   2.179   4.007  0.2904 -0.1641  0.7943
 8597TIP3   OH225754   1.111   3.953   3.565 -0.2047  0.2856 -0.2233
 8597TIP3    H125755   1.188   3.972   3.511  0.0798  1.1730  0.4643
 8597TIP3    H225756   1.126   3.864   3.598  1.1799  0.9034  0.9423
 8598TIP3   OH225757   5.345   1.361   5.552  0.3034  0.1991  0.1690
 8598TIP3    H125758   5.293   1.285   5.527  0.9007 -0.5940  1.2319
 8598TIP3    H225759   5.393   1.385   5.473 -1.0349  0.4235 -0.5861
 8599TIP3   OH225760   0.596   1.931   2.065 -0.2381  0.1330 -0.3093
 8599TIP3    H125761   0.592   1.854   2.122  0.4772  0.5306  0.3040
 8599TIP3    H225762   0.679   1.974   2.088 -0.3577  0.7855 -1.0322
 8600TIP3   OH225763   0.291   6.408   2.564  0.5159  0.6858 -0.4943
 8600TIP3    H125764   0.198   6.424   2.579  0.4573 -0.3430  0.4054
 8600TIP3    H225765   0.297   6.387   2.470 -0.6906 -2.1915 -0.0577
 8601TIP3   OH225766   3.493   3.940   0.023  0.1136 -0.2627  0.0803
 8601TIP3    H125767   3.470   3.930   0.116  0.7239 -1.5860  0.1132
 8601TIP3    H225768   3.490   4.034   0.008 -0.2076 -0.0377  1.3896
 8602TIP3   OH225769   7.120   0.068   5.574  0.2049  0.2449  0.7668
 8602TIP3    H125770   7.032   0.033   5.557 -0.5144  1.4998  1.6819
 8602TIP3    H225771   7.125   0.148   5.522  0.8537  0.1333  0.6503
 8603TIP3   OH225772   4.980   3.724   5.791 -0.4187  0.1142 -0.2240
 8603TIP3    H125773   5.066   3.763   5.775 -0.5985  1.3901  1.5462
 8603TIP3    H225774   4.926   3.797   5.821 -1.5282 -1.0193  0.6590
 8604TIP3   OH225775   0.418   4.852   3.050  0.2687 -0.1140 -0.8322
 8604TIP3    H125776   0.431   4.946   3.037  1.3859 -0.2898 -1.1190
 8604TIP3    H225777   0.409   4.816   2.962  0.3458 -0.3399 -0.7487
 8605TIP3   OH225778   0.261   6.605   2.002 -0.0507 -0.2037  0.2025
 8605TIP3    H125779   0.169   6.627   1.990  0.2899  0.7013 -0.8956
 8605TIP3    H225780   0.309   6.677   1.960  1.1450 -1.0565  0.0488
 8606TIP3   OH225781   1.924   3.955   4.579 -0.6187  0.4902 -0.1627
 8606TIP3    H125782   2.017   3.933   4.587 -0.5590  1.2104  1.4922
 8606TIP3    H225783   1.885   3.877   4.539  0.3270 -0.7613  1.2565
 8607TIP3   OH225784   4.869   3.913   4.105 -0.0859 -0.1685 -0.0349
 8607TIP3    H125785   4.924   3.862   4.046  0.2712  0.5513 -0.3430
 8607TIP3    H225786   4.787   3.865   4.109  1.1339 -2.3081  1.9366
 8608TIP3   OH225787   5.882   5.963   4.240  0.0301  0.6478 -0.2662
 8608TIP3    H125788   5.897   5.883   4.190  0.2488  0.3603  0.2540
 8608TIP3    H225789   5.804   6.001   4.200  0.1079  0.3402 -0.7221
 8609TIP3   OH225790   5.728   1.989   1.101  0.1944  0.7186 -0.9185
 8609TIP3    H125791   5.662   2.058   1.096 -1.4852 -0.5982  1.0707
 8609TIP3    H225792   5.790   2.019   1.168 -0.5430  0.3426 -0.0437
 8610TIP3   OH225793   4.499   5.376   2.666  0.6245  0.3557 -0.1821
 8610TIP3    H125794   4.526   5.444   2.605  0.9778  1.3159  0.9834
 8610TIP3    H225795   4.574   5.367   2.725 -0.2298  0.4911  0.9580
 8611TIP3   OH225796   3.409   0.994   4.847  0.2587 -0.0366  0.1165
 8611TIP3    H125797   3.409   0.963   4.938 -0.7077 -1.0882 -0.2121
 8611TIP3    H225798   3.318   1.013   4.828  0.4597  0.2305 -0.6178
 8612TIP3   OH225799   7.029   6.230   0.239  0.4885  0.0641  0.1770
 8612TIP3    H125800   6.990   6.232   0.152  0.9594 -0.0132 -0.0405
 8612TIP3    H225801   7.103   6.169   0.231 -0.4003 -1.1740  1.0298
 8613TIP3   OH225802   1.962   1.240   1.997 -0.4901  0.2843 -0.7493
 8613TIP3    H125803   2.028   1.292   1.952 -1.3240  2.3584  0.3116
 8613TIP3    H225804   1.943   1.168   1.936  0.6167  1.2581 -2.3203
 8614TIP3   OH225805   1.551   3.817   4.964  0.2363 -0.1729  0.1303
 8614TIP3    H125806   1.625   3.847   4.911  0.1664  0.5327  0.4149
 8614TIP3    H225807   1.591   3.761   5.031  0.5495  0.3841  0.4214
 8615TIP3   OH225808   2.450   6.398   4.494  0.1226 -0.8228 -0.2494
 8615TIP3    H125809   2.391   6.337   4.538  0.9386 -1.0023  0.6339
 8615TIP3    H225810   2.501   6.343   4.434 -0.5253 -0.6806 -0.9487
 8616TIP3   OH225811   1.060   5.597   3.182  0.0317 -0.5307 -0.3399
 8616TIP3    H125812   1.131   5.645   3.225 -0.1637  0.4197 -1.0290
 8616TIP3    H225813   1.101   5.516   3.151  0.7265 -0.1667 -0.3962
 8617TIP3   OH225814   1.033   1.394   3.884  0.3731  0.2887  0.0539
 8617TIP3    H125815   1.110   1.443   3.912  0.8032 -0.7431  0.7479
 8617TIP3    H225816   0.958   1.446   3.913  0.7942  1.1935 -0.4361
 8618TIP3   OH225817   7.087   0.963   2.790  0.3464 -0.2676  0.4558
 8618TIP3    H125818   6.996   0.935   2.803 -0.8731  2.7349 -0.5393
 8618TIP3    H225819   7.084   1.015   2.709  2.2072  2.6011  2.0710
 8619TIP3   OH225820   3.826   5.115   4.669  0.1781 -0.0090 -0.2096
 8619TIP3    H125821   3.757   5.049   4.660  0.3637 -0.1774 -0.3932
 8619TIP3    H225822   3.825   5.162   4.586  1.0016 -0.7017 -0.6140
 8620TIP3   OH225823   6.079   3.722   0.972  0.1899 -0.5146  0.3582
 8620TIP3    H125824   6.096   3.731   0.879 -0.1672  0.8916  0.4048
 8620TIP3    H225825   6.130   3.646   0.999 -1.3970 -2.3292 -1.3972
 8621TIP3   OH225826   4.865   3.622   1.290 -0.2715  0.2202 -0.0841
 8621TIP3    H125827   4.894   3.531   1.296 -1.3309 -0.1469 -0.3006
 8621TIP3    H225828   4.933   3.665   1.237  1.0067 -0.0836  1.2384
 8622TIP3   OH225829   6.953   0.621   3.951 -0.3241  0.7831  0.5985
 8622TIP3    H125830   6.982   0.530   3.948 -1.9267  0.2416 -2.5921
 8622TIP3    H225831   7.014   0.668   3.894 -1.3647  1.0182 -0.3644
 8623TIP3   OH225832   6.618   3.181   3.705  0.2399 -0.3705  0.3406
 8623TIP3    H125833   6.543   3.208   3.653  0.3565  0.0163  0.3740
 8623TIP3    H225834   6.681   3.147   3.642  0.8512  1.1490  0.0899
 8624TIP3   OH225835   6.905   0.697   5.292  0.3277 -0.1049 -0.3652
 8624TIP3    H125836   6.977   0.713   5.353  0.0800 -0.7838  0.1229
 8624TIP3    H225837   6.871   0.611   5.317 -1.3547  0.6442  0.1563
 8625TIP3   OH225838   0.669   0.530   2.416 -0.4598  1.0714  0.3304
 8625TIP3    H125839   0.741   0.566   2.467  0.8812  0.0965 -0.8023
 8625TIP3    H225840   0.666   0.437   2.440 -0.3915  0.7952 -0.6796
 8626TIP3   OH225841   1.169   3.624   4.681  0.6799 -0.3013  0.6022
 8626TIP3    H125842   1.257   3.642   4.716  1.7765 -0.9257 -1.6196
 8626TIP3    H225843   1.171   3.531   4.659  0.3739  0.1452 -1.6496
 8627TIP3   OH225844   3.706   2.025   3.442 -0.5197 -0.4143  0.3186
 8627TIP3    H125845   3.708   2.073   3.525 -0.5764 -1.7717  1.1462
 8627TIP3    H225846   3.738   2.087   3.377 -0.8703  0.8184  1.2844
 8628TIP3   OH225847   1.464   0.609   0.960  0.0806  0.3759 -0.1458
 8628TIP3    H125848   1.543   0.628   0.909  2.0949 -0.1881  2.5756
 8628TIP3    H225849   1.458   0.681   1.022 -1.5919  0.3975 -0.2970
 8629TIP3   OH225850   5.685   2.992   1.383  0.1633  0.0371 -0.9283
 8629TIP3    H125851   5.623   2.925   1.356  0.1576 -0.5948  0.5688
 8629TIP3    H225852   5.758   2.944   1.421 -0.1135  0.8475  0.7256
 8630TIP3   OH225853   5.001   2.763   4.744  0.6056 -0.1760  0.2802
 8630TIP3    H125854   4.987   2.831   4.809  1.8366 -1.7295  2.2749
 8630TIP3    H225855   5.085   2.723   4.768 -0.0265 -2.3493 -0.8240
 8631TIP3   OH225856   5.827   1.274   3.202 -0.2600 -0.3696 -0.0138
 8631TIP3    H125857   5.734   1.275   3.225 -0.2522  0.8767  0.0076
 8631TIP3    H225858   5.829   1.281   3.107 -0.1948  2.1066  0.0947
 8632TIP3   OH225859   5.960   3.096   0.865  0.2488 -0.2196 -0.8165
 8632TIP3    H125860   6.006   3.146   0.933 -0.4163 -0.7814  0.0801
 8632TIP3    H225861   6.027   3.040   0.826  0.8897  0.9557 -1.4637
 8633TIP3   OH225862   3.598   4.789   0.301 -1.1195  0.5613  0.1506
 8633TIP3    H125863   3.584   4.879   0.332  0.4625  1.7981 -2.3244
 8633TIP3    H225864   3.693   4.784   0.288 -1.2613 -1.2664 -0.3949
 8634TIP3   OH225865   4.459   3.782   2.570 -0.0431 -0.2607 -0.2183
 8634TIP3    H125866   4.387   3.732   2.532  0.1633  1.1842 -2.7511
 8634TIP3    H225867   4.504   3.720   2.628 -1.4074 -2.1520 -1.0809
 8635TIP3   OH225868   5.969   6.270   0.929 -0.2069  0.2787 -0.4908
 8635TIP3    H125869   5.879   6.245   0.949  0.1762 -1.5692 -0.8351
 8635TIP3    H225870   5.963   6.320   0.848 -1.1017  2.0461  0.6117
 8636TIP3   OH225871   3.069   3.621   0.947  0.3841 -0.1140  0.3629
 8636TIP3    H125872   3.085   3.641   0.854  0.0680  0.9573  0.5192
 8636TIP3    H225873   3.150   3.645   0.991 -0.3403  1.9374  0.6893
 8637TIP3   OH225874   2.752   4.050   0.102 -0.1328 -0.3311  0.3553
 8637TIP3    H125875   2.816   4.000   0.052  0.6423  1.1341 -0.1485
 8637TIP3    H225876   2.779   4.039   0.194 -0.0883 -0.9676  0.2713
 8638TIP3   OH225877   6.572   4.488   3.707 -0.0566 -0.1302 -0.2586
 8638TIP3    H125878   6.547   4.436   3.783  0.5102  1.3966  1.0174
 8638TIP3    H225879   6.489   4.520   3.671 -0.2601  0.3266  0.5955
 8639TIP3   OH225880   3.094   4.487   0.051 -0.0875  0.4601  0.1243
 8639TIP3    H125881   3.142   4.456  -0.026 -0.6413 -0.0432 -0.0216
 8639TIP3    H225882   3.163   4.517   0.111  0.3700  0.4299 -0.3764
 8640TIP3   OH225883   6.367   4.149   4.488 -0.5489 -0.7246 -0.4082
 8640TIP3    H125884   6.458   4.171   4.510 -0.5590 -0.6677 -0.4208
 8640TIP3    H225885   6.339   4.090   4.558 -1.1385  0.8344  0.7297
 8641TIP3   OH225886   4.802   5.077   1.925 -0.3941 -0.6224 -0.1136
 8641TIP3    H125887   4.762   5.141   1.867  0.5170 -0.4795 -0.5957
 8641TIP3    H225888   4.789   4.993   1.881  0.7964 -0.4512 -0.8251
 8642TIP3   OH225889   4.186   4.993   5.198 -0.7601 -0.1826  0.4222
 8642TIP3    H125890   4.092   5.001   5.182 -0.8919 -1.7293  0.2170
 8642TIP3    H225891   4.205   4.902   5.177  0.7128  0.0042  0.8777
 8643TIP3   OH225892   4.060   3.016   5.015  0.1512  0.2684 -0.1385
 8643TIP3    H125893   4.110   3.016   4.934  0.1403  0.4440 -0.1441
 8643TIP3    H225894   3.969   3.001   4.987  0.2209 -0.2174 -0.1148
 8644TIP3   OH225895   3.255   1.384   3.970  0.4737  0.1207  0.0203
 8644TIP3    H125896   3.195   1.450   3.934  0.3328 -0.0005  0.0326
 8644TIP3    H225897   3.198   1.325   4.020  0.2692 -1.2767 -1.7501
 8645TIP3   OH225898   1.122   6.052   3.980 -0.3680  0.5363 -0.2382
 8645TIP3    H125899   1.146   5.966   3.945  0.0089  0.8409 -0.7270
 8645TIP3    H225900   1.028   6.044   3.998  0.0086 -0.5991  1.5081
 8646TIP3   OH225901   1.952   6.221   2.524  0.4038  0.1432  0.2232
 8646TIP3    H125902   2.021   6.180   2.576  0.4103  2.5626  2.2536
 8646TIP3    H225903   1.998   6.285   2.470 -0.2512  2.5377  2.3674
 8647TIP3   OH225904   2.579   5.559   4.614  0.4537  0.3421  0.0414
 8647TIP3    H125905   2.650   5.622   4.606 -0.3208  1.6841  2.5719
 8647TIP3    H225906   2.607   5.500   4.684  0.0010 -0.4612 -0.4342
 8648TIP3   OH225907   4.344   3.100   4.724  0.1310 -0.3972 -0.1973
 8648TIP3    H125908   4.302   3.160   4.785  0.6093 -0.0961 -0.1633
 8648TIP3    H225909   4.319   3.131   4.638 -1.1562 -1.2561 -0.1655
 8649TIP3   OH225910   2.117   0.079   2.030 -1.1032 -0.2984  0.7577
 8649TIP3    H125911   2.032   0.036   2.039 -0.4252 -1.4751  1.8317
 8649TIP3    H225912   2.178   0.022   2.076  0.2107  0.7455  0.3798
 8650TIP3   OH225913   6.160   0.868   1.345 -0.2984 -0.5323  0.4157
 8650TIP3    H125914   6.103   0.944   1.353 -1.3363 -1.3240  0.7389
 8650TIP3    H225915   6.122   0.803   1.403  0.1538 -1.5546 -0.4004
 8651TIP3   OH225916   6.296   4.727   5.185 -0.0905 -0.6526  0.2591
 8651TIP3    H125917   6.261   4.779   5.112  0.5187  0.2472  0.5820
 8651TIP3    H225918   6.225   4.726   5.250 -0.6621 -1.5193 -0.3549
 8652TIP3   OH225919   2.571   0.534   2.271 -0.2647  0.1699 -0.4982
 8652TIP3    H125920   2.556   0.467   2.204 -0.5117 -0.7860  0.4838
 8652TIP3    H225921   2.580   0.485   2.352  0.0535  1.3079  0.1758
 8653TIP3   OH225922   1.990   2.642   0.378 -0.1260  0.0612  0.3914
 8653TIP3    H125923   2.002   2.726   0.334  0.1376 -0.2511 -0.1435
 8653TIP3    H225924   2.078   2.617   0.406  0.1799 -1.0758 -1.4012
 8654TIP3   OH225925   6.987   6.272   5.160  0.7390 -0.0587 -0.3306
 8654TIP3    H125926   7.079   6.273   5.134  0.6888  1.3299 -0.5474
 8654TIP3    H225927   6.946   6.340   5.105 -1.1172 -2.8161 -2.6308
 8655TIP3   OH225928   5.901   2.938   4.816 -0.0609  0.2441 -0.1896
 8655TIP3    H125929   5.815   2.911   4.783 -0.2154 -1.9192  1.7353
 8655TIP3    H225930   5.961   2.872   4.784  0.3228 -0.0390  1.0430
 8656TIP3   OH225931   0.308   2.042   2.517 -0.1705  0.1553  0.0250
 8656TIP3    H125932   0.242   2.032   2.586  1.0878 -1.2380  1.0776
 8656TIP3    H225933   0.290   1.970   2.457 -2.0086  2.0314 -1.8473
 8657TIP3   OH225934   2.061   0.119   3.463 -0.1436 -0.0288 -0.0846
 8657TIP3    H125935   2.014   0.203   3.469 -1.4732 -0.7153 -0.4668
 8657TIP3    H225936   1.998   0.055   3.497  0.8344 -0.8874  0.1246
 8658TIP3   OH225937   5.591   6.436   0.559 -0.0420 -0.1774 -0.6873
 8658TIP3    H125938   5.500   6.461   0.573 -0.0005  0.0695 -0.8373
 8658TIP3    H225939   5.639   6.478   0.631 -0.3670 -2.5583  1.0407
 8659TIP3   OH225940   5.352   5.005   2.410 -0.2204  0.2163 -0.6279
 8659TIP3    H125941   5.295   4.928   2.416  0.0980 -0.0134 -0.4661
 8659TIP3    H225942   5.307   5.064   2.350 -0.7604  0.1547 -0.2868
 8660TIP3   OH225943   0.492   4.705   1.041 -0.1957  0.3837 -0.1654
 8660TIP3    H125944   0.407   4.719   1.081 -0.3099  0.4976 -0.4434
 8660TIP3    H225945   0.495   4.767   0.968  0.3127  0.7036  0.1185
 8661TIP3   OH225946   5.233   6.201   5.214 -0.2637  0.3627 -0.4041
 8661TIP3    H125947   5.157   6.254   5.192  0.1332  0.8249 -0.6641
 8661TIP3    H225948   5.294   6.261   5.256  1.2068  0.7213 -2.8608
 8662TIP3   OH225949   5.679   1.035   4.302 -0.6436  0.4467  0.2778
 8662TIP3    H125950   5.655   1.035   4.209 -0.4631  1.9567  0.2150
 8662TIP3    H225951   5.642   1.116   4.337 -1.4654 -0.4970  1.7525
 8663TIP3   OH225952   3.981   4.653   1.949  0.9647 -0.1649  0.1444
 8663TIP3    H125953   4.005   4.688   2.035  1.2275  3.4781 -1.2520
 8663TIP3    H225954   4.061   4.660   1.897 -0.0667  1.2143 -1.3653
 8664TIP3   OH225955   0.839   5.642   1.161  0.0724 -0.4020  0.5835
 8664TIP3    H125956   0.758   5.634   1.111 -0.9469 -0.3989  2.1754
 8664TIP3    H225957   0.833   5.575   1.229  1.0787  0.0525  1.1538
 8665TIP3   OH225958   5.209   6.086   2.733 -0.3180 -0.4698  0.1914
 8665TIP3    H125959   5.297   6.112   2.706 -0.1318 -1.7532 -0.4981
 8665TIP3    H225960   5.203   6.116   2.824  0.1565  1.2144 -0.2888
 8666TIP3   OH225961   2.120   1.200   4.797 -0.1643  0.1139  0.2780
 8666TIP3    H125962   2.170   1.199   4.878  2.2476  0.6171 -1.1185
 8666TIP3    H225963   2.097   1.292   4.784  1.2225  0.3657 -0.5834
 8667TIP3   OH225964   3.542   5.338   0.549 -0.0980  0.6124 -0.6927
 8667TIP3    H125965   3.576   5.363   0.635 -0.4841 -0.3311 -0.2441
 8667TIP3    H225966   3.453   5.307   0.567 -0.6584  1.6323 -1.6302
 8668TIP3   OH225967   2.615   1.589   1.877 -0.1428  0.5103  0.0231
 8668TIP3    H125968   2.639   1.628   1.793 -1.0449 -1.0719 -1.0260
 8668TIP3    H225969   2.564   1.658   1.922  0.2726  1.3382 -0.7463
 8669TIP3   OH225970   5.609   5.421   4.827  0.5296  0.0409 -0.2067
 8669TIP3    H125971   5.527   5.395   4.785  1.2721 -0.3658 -1.4738
 8669TIP3    H225972   5.669   5.349   4.809  1.3258  0.5911  0.2009
 8670TIP3   OH225973   1.092   4.065   1.935 -0.1905 -0.3948  0.3446
 8670TIP3    H125974   1.001   4.034   1.930  0.2375 -1.7508  0.3863
 8670TIP3    H225975   1.141   3.987   1.961  1.0502  0.2045 -0.1512
 8671TIP3   OH225976   1.834   1.230   4.688 -0.7954  0.1750  0.4302
 8671TIP3    H125977   1.918   1.202   4.723 -0.8912  1.1392  1.4771
 8671TIP3    H225978   1.780   1.247   4.765 -1.6565  0.4440 -0.2170
 8672TIP3   OH225979   1.911   5.598   3.347 -0.2475 -0.4116  0.3484
 8672TIP3    H125980   1.923   5.678   3.399 -0.3308 -0.9679  1.2431
 8672TIP3    H225981   1.822   5.570   3.367 -0.4048 -0.4495 -0.3768
 8673TIP3   OH225982   0.135   0.541   2.006  0.4362  0.0282  0.0051
 8673TIP3    H125983   0.071   0.548   1.935 -0.9881 -0.5673  1.1665
 8673TIP3    H225984   0.177   0.627   2.010  1.0802 -0.1546 -2.0005
 8674TIP3   OH225985   6.985   6.673   2.827  0.4874 -0.4402  0.0079
 8674TIP3    H125986   6.913   6.625   2.867  0.1959  0.2831  0.3700
 8674TIP3    H225987   7.027   6.719   2.899  1.3304 -0.8672 -0.1966
 8675TIP3   OH225988   6.343   2.226   2.797  0.7124  0.2535  0.1495
 8675TIP3    H125989   6.248   2.219   2.799  0.4838  2.4579 -0.5683
 8675TIP3    H225990   6.374   2.136   2.805 -1.4066 -0.4496  1.0115
 8676TIP3   OH225991   2.014   0.293   4.654 -0.1004 -0.0403 -0.2621
 8676TIP3    H125992   2.042   0.236   4.726  0.5463 -0.1779 -0.6106
 8676TIP3    H225993   2.083   0.283   4.588  0.0804  1.2413 -0.2835
 8677TIP3   OH225994   5.547   4.095   4.301 -0.2926  0.3019  0.1203
 8677TIP3    H125995   5.612   4.148   4.255 -1.0023  0.1111 -1.1331
 8677TIP3    H225996   5.479   4.078   4.236 -0.7901 -0.9148  0.9219
 8678TIP3   OH225997   5.375   0.401   4.222  0.6009  0.0891 -1.0599
 8678TIP3    H125998   5.310   0.339   4.188  0.2061  0.4989 -1.0703
 8678TIP3    H225999   5.425   0.351   4.287 -0.5206  0.0901 -0.1625
 8679TIP3   OH226000   6.566   0.280   2.875 -0.3104  0.3633 -0.6857
 8679TIP3    H126001   6.511   0.256   2.949 -0.8574  2.7822 -0.2508
 8679TIP3    H226002   6.506   0.285   2.801 -0.2068  0.4911 -0.7601
 8680TIP3   OH226003   5.272   2.291   2.360  0.1502  0.2612 -0.3282
 8680TIP3    H126004   5.305   2.309   2.273  0.8989 -1.8697 -0.5416
 8680TIP3    H226005   5.182   2.259   2.346  1.2358 -2.9701 -0.7103
 8681TIP3   OH226006   0.448   6.749   1.832  0.1388 -0.2837 -0.2352
 8681TIP3    H126007   0.500   6.699   1.895 -0.9486 -2.2917 -0.8295
 8681TIP3    H226008   0.440   6.836   1.871  2.7217 -0.2979  0.5206
 8682TIP3   OH226009   6.295   2.188   0.847  0.6801  0.3166  0.2634
 8682TIP3    H126010   6.249   2.262   0.807 -0.0182 -0.2859 -0.0529
 8682TIP3    H226011   6.226   2.128   0.876  1.1757  0.4290  1.8225
 8683TIP3   OH226012   6.199   1.818   0.582  0.4506 -0.2246  0.7864
 8683TIP3    H126013   6.272   1.781   0.631  0.9829  0.8427  0.8227
 8683TIP3    H226014   6.198   1.768   0.500  0.3661 -1.1402  1.3251
 8684TIP3   OH226015   3.452   5.555   4.795  0.0235 -0.0455  0.3315
 8684TIP3    H126016   3.536   5.511   4.781  0.4950  1.2800 -1.4688
 8684TIP3    H226017   3.402   5.535   4.716 -0.5698  0.8152  0.4782
 8685TIP3   OH226018   7.091   0.572   1.573 -0.9413  0.2251  0.9752
 8685TIP3    H126019   7.186   0.570   1.583 -0.5977 -0.3216 -1.7065
 8685TIP3    H226020   7.063   0.483   1.596 -0.7212  0.1800  1.0708
 8686TIP3   OH226021   5.085   5.949   0.308 -0.0791  0.3115 -0.1189
 8686TIP3    H126022   5.129   5.949   0.394  0.7578 -0.0938 -0.5363
 8686TIP3    H226023   5.063   5.857   0.294  1.1696  0.1217 -1.0143
 8687TIP3   OH226024   6.510   6.029   3.030  0.0547  0.0627  0.0207
 8687TIP3    H126025   6.465   5.945   3.022  1.9777 -0.9598 -0.8610
 8687TIP3    H226026   6.489   6.075   2.949 -0.2901  0.0490  0.1039
 8688TIP3   OH226027   0.086   5.000   4.893 -0.8840  0.2019  0.2083
 8688TIP3    H126028   0.161   4.993   4.834 -2.0022  0.1375 -1.2668
 8688TIP3    H226029   0.120   4.972   4.978  0.7963  0.3526 -0.3701
 8689TIP3   OH226030   1.556   1.018   0.854  0.8628  0.5412  0.3854
 8689TIP3    H126031   1.639   0.999   0.810  0.3348 -0.3800 -0.2601
 8689TIP3    H226032   1.489   0.990   0.791  0.0752  0.2662  1.3220
 8690TIP3   OH226033   2.364   6.416   5.675  0.7067  0.1100 -0.3874
 8690TIP3    H126034   2.315   6.375   5.746  1.2521  0.3339  0.1307
 8690TIP3    H226035   2.412   6.487   5.717  1.8443 -0.3972 -0.7708
 8691TIP3   OH226036   5.971   5.414   0.088 -0.3295  0.5060  0.6323
 8691TIP3    H126037   5.988   5.506   0.066 -0.8377  0.3994 -0.2099
 8691TIP3    H226038   6.055   5.383   0.123 -0.5239  1.6503  2.2122
 8692TIP3   OH226039   4.706   4.291   5.742  0.1253  0.2532 -0.1741
 8692TIP3    H126040   4.619   4.318   5.771  0.2082  1.2268 -0.8156
 8692TIP3    H226041   4.763   4.311   5.816 -0.1726 -0.3336  0.2262
 8693TIP3   OH226042   0.418   5.470   0.177 -0.0695  0.3272  0.1517
 8693TIP3    H126043   0.423   5.432   0.089  1.0211 -0.5264  0.5594
 8693TIP3    H226044   0.452   5.559   0.166 -1.0776  0.6468 -0.5039
 8694TIP3   OH226045   2.203   1.777   0.073  0.3520  0.0376  0.1933
 8694TIP3    H126046   2.216   1.720  -0.003  1.2604 -0.4863  0.7153
 8694TIP3    H226047   2.192   1.864   0.036 -0.8576 -0.4301 -0.6188
 8695TIP3   OH226048   3.797   6.324   2.158  0.3485 -0.5672 -0.7747
 8695TIP3    H126049   3.755   6.255   2.209 -2.5299  1.1744 -0.5500
 8695TIP3    H226050   3.886   6.329   2.193 -0.3935 -1.9045  1.5211
 8696TIP3   OH226051   1.446   0.755   0.101 -0.3500  0.5727 -0.1978
 8696TIP3    H126052   1.362   0.778   0.140 -1.0445  1.2902 -2.0196
 8696TIP3    H226053   1.424   0.699   0.027  0.8139  0.3414 -0.3906
 8697TIP3   OH226054   0.791   1.925   1.610 -0.2302 -0.2224 -0.7359
 8697TIP3    H126055   0.866   1.935   1.669 -0.3857  1.3041 -0.7643
 8697TIP3    H226056   0.830   1.911   1.524  0.0238 -0.1371 -0.6358
 8698TIP3   OH226057   5.860   0.949   2.468  0.1668 -0.7624 -0.2125
 8698TIP3    H126058   5.785   0.895   2.492 -0.0079 -0.3971  0.0687
 8698TIP3    H226059   5.880   0.923   2.378 -0.3813 -0.7660 -0.3369
 8699TIP3   OH226060   5.529   3.637   2.511  0.0031  0.6980 -0.2319
 8699TIP3    H126061   5.552   3.621   2.419 -0.4120  1.4738 -0.4838
 8699TIP3    H226062   5.607   3.678   2.548 -0.5985  2.5420 -0.8646
 8700TIP3   OH226063   0.945   0.268   5.567 -0.5567 -0.2472  0.2483
 8700TIP3    H126064   1.031   0.299   5.539 -0.6406  0.8455  1.1476
 8700TIP3    H226065   0.916   0.211   5.496  0.5226  0.0787 -0.4757
 8701TIP3   OH226066   6.431   0.835   2.303 -0.2272  0.5606 -0.4419
 8701TIP3    H126067   6.360   0.778   2.332 -1.2065  2.4234  1.0202
 8701TIP3    H226068   6.388   0.918   2.282  1.2485  1.0341 -1.8279
 8702TIP3   OH226069   6.926   6.256   2.369 -0.0826 -0.3681  0.1061
 8702TIP3    H126070   6.985   6.181   2.363 -0.0127 -0.3293  0.2983
 8702TIP3    H226071   6.845   6.226   2.328  1.0073  0.5529 -2.9977
 8703TIP3   OH226072   3.612   6.017   4.396  0.4270 -0.1694  0.5995
 8703TIP3    H126073   3.571   6.007   4.311  1.8939  0.8721 -0.2717
 8703TIP3    H226074   3.546   5.985   4.458 -1.9756  2.0164 -0.6275
 8704TIP3   OH226075   2.155   3.257   2.876  0.3351 -0.9874 -0.4284
 8704TIP3    H126076   2.118   3.344   2.893  1.3493 -0.0662 -2.5719
 8704TIP3    H226077   2.080   3.205   2.846  0.0438 -0.3220 -0.8747
 8705TIP3   OH226078   2.901   3.508   4.378 -0.3450 -0.1296 -0.2008
 8705TIP3    H126079   2.860   3.427   4.346  0.5622  0.3406 -2.8036
 8705TIP3    H226080   2.838   3.577   4.358  1.0055  0.4282 -3.0655
 8706TIP3   OH226081   6.024   5.879   3.246  0.1610  0.0511  0.1709
 8706TIP3    H126082   5.991   5.854   3.160 -0.4001  0.5729  0.2264
 8706TIP3    H226083   6.044   5.796   3.289  1.9864 -0.1940 -1.0250
 8707TIP3   OH226084   5.954   3.031   4.275  0.1732 -0.1793 -0.1385
 8707TIP3    H126085   6.027   3.083   4.241  1.3522 -1.4696  0.3181
 8707TIP3    H226086   5.973   2.942   4.247 -1.2180 -0.5540  0.0490
 8708TIP3   OH226087   3.500   5.311   5.776 -0.1621 -0.1720 -0.2433
 8708TIP3    H126088   3.564   5.378   5.751 -1.1272  1.0496  0.4029
 8708TIP3    H226089   3.464   5.280   5.693  1.4628 -1.1051 -0.6298
 8709TIP3   OH226090   6.681   0.872   5.725  0.1458 -0.7045 -0.4513
 8709TIP3    H126091   6.724   0.788   5.712 -0.0909 -0.9445  0.2496
 8709TIP3    H226092   6.613   0.875   5.657  0.5744 -0.7818 -0.8908
 8710TIP3   OH226093   2.931   3.006   3.008 -0.0823  0.2809  0.3019
 8710TIP3    H126094   2.948   3.008   3.102 -0.4313 -2.0198  0.4654
 8710TIP3    H226095   2.842   2.973   3.000  0.7850 -1.9947 -0.8298
 8711TIP3   OH226096   4.306   0.491   3.352 -0.1986  0.4991  0.0754
 8711TIP3    H126097   4.318   0.586   3.358  0.8888  0.4155 -0.4137
 8711TIP3    H226098   4.322   0.471   3.260 -2.0877  0.0233 -0.1975
 8712TIP3   OH226099   6.811   2.741   1.551 -0.1750 -0.0300  0.1808
 8712TIP3    H126100   6.759   2.674   1.596 -0.6760 -0.7238 -1.3680
 8712TIP3    H226101   6.857   2.693   1.483  0.2334  1.0625 -0.3302
 8713TIP3   OH226102   5.388   3.440   0.678 -0.5787  0.1559  0.5417
 8713TIP3    H126103   5.441   3.433   0.599 -1.0633  0.0018  0.2238
 8713TIP3    H226104   5.365   3.349   0.699 -0.7734  0.2273  0.6370
 8714TIP3   OH226105   5.417   1.110   3.908  0.1125 -0.5633  0.5564
 8714TIP3    H126106   5.371   1.137   3.987 -1.5802  0.7399 -0.7963
 8714TIP3    H226107   5.361   1.044   3.868 -0.2190  0.4213 -0.6783
 8715TIP3   OH226108   1.499   2.099   4.769  0.3096 -0.1741 -0.1639
 8715TIP3    H126109   1.449   2.166   4.816 -0.9794 -0.9805 -0.3414
 8715TIP3    H226110   1.518   2.138   4.684  1.3000  0.7046  0.4390
 8716TIP3   OH226111   4.847   2.186   4.398 -0.8654  0.0319 -0.1179
 8716TIP3    H126112   4.808   2.267   4.365  0.0671  0.2925 -0.6084
 8716TIP3    H226113   4.777   2.121   4.389 -1.6234  0.7659  0.2641
 8717TIP3   OH226114   4.838   5.668   3.348  0.0662  0.1050  0.0391
 8717TIP3    H126115   4.898   5.707   3.284 -0.2812  3.7080  1.6721
 8717TIP3    H226116   4.751   5.692   3.316 -0.2020  0.0217  0.7009
 8718TIP3   OH226117   1.591   2.109   5.199  0.1646 -0.2521  0.3127
 8718TIP3    H126118   1.679   2.136   5.173  0.0296 -1.1863 -1.2148
 8718TIP3    H226119   1.605   2.040   5.263  0.5083  1.3020  1.9817
 8719TIP3   OH226120   2.151   2.168   0.885  0.0004 -0.6678  0.6792
 8719TIP3    H126121   2.127   2.211   0.966 -0.1905 -0.9194  0.7579
 8719TIP3    H226122   2.194   2.086   0.912  2.0374  0.3045  0.5678
 8720TIP3   OH226123   6.455   3.774   1.022  0.5701  0.2383 -0.3128
 8720TIP3    H126124   6.492   3.850   1.067 -0.2636  0.8761 -0.6735
 8720TIP3    H226125   6.437   3.805   0.933 -0.5203 -0.1337 -0.2401
 8721TIP3   OH226126   6.102   6.419   2.934  0.6029  0.0366 -0.4729
 8721TIP3    H126127   6.030   6.482   2.940 -2.3924 -2.9837 -1.0311
 8721TIP3    H226128   6.111   6.401   2.841  0.7171 -0.9525 -0.2873
 8722TIP3   OH226129   6.879   3.515   3.349  0.5978 -0.3829  0.6063
 8722TIP3    H126130   6.786   3.535   3.343  0.8322  0.5746 -0.0117
 8722TIP3    H226131   6.922   3.581   3.295  1.8972  1.2750  3.4411
 8723TIP3   OH226132  -0.017   1.650   5.066 -0.5574  0.5237 -0.0505
 8723TIP3    H126133  -0.015   1.741   5.096 -0.0546  0.3876  0.3435
 8723TIP3    H226134   0.060   1.640   5.011 -0.1953  0.1386  0.5138
 8724TIP3   OH226135   6.528   1.156   3.497  0.0728 -0.1003  0.0064
 8724TIP3    H126136   6.538   1.061   3.501  0.8709 -0.1022 -1.3670
 8724TIP3    H226137   6.568   1.188   3.578 -0.4386 -0.9455  0.5994
 8725TIP3   OH226138   2.108   0.622   2.970  0.1806  0.0455 -0.2459
 8725TIP3    H126139   2.040   0.686   2.947  0.2443 -0.4621 -2.0181
 8725TIP3    H226140   2.063   0.538   2.971  0.2525 -0.0079  1.3405
 8726TIP3   OH226141   5.924   3.871   5.482  0.6704  0.2994  0.2166
 8726TIP3    H126142   5.901   3.964   5.484  1.4795  0.5024  0.2142
 8726TIP3    H226143   6.014   3.869   5.451  0.3431 -0.5489 -0.7271
 8727TIP3   OH226144   6.238   0.305   1.307 -0.1135  0.5163 -0.3176
 8727TIP3    H126145   6.203   0.231   1.258  2.8529 -1.1210 -0.1264
 8727TIP3    H226146   6.212   0.288   1.398  1.3702 -0.8981 -0.1136
 8728TIP3   OH226147   4.345   4.454   2.029  0.3151 -0.6082  0.4308
 8728TIP3    H126148   4.286   4.382   2.008  0.3241 -1.5064  3.1202
 8728TIP3    H226149   4.291   4.515   2.080  1.4460 -1.0380  2.2077
 8729TIP3   OH226150   7.026   1.951   1.285  0.3674 -0.1708 -0.6019
 8729TIP3    H126151   7.116   1.979   1.297 -0.2191  1.2014  0.9919
 8729TIP3    H226152   6.984   2.025   1.239 -0.0434 -0.6271 -0.9775
 8730TIP3   OH226153   0.987   4.927   3.297 -0.2437 -0.1491 -0.1507
 8730TIP3    H126154   0.934   4.941   3.376 -1.1533  0.0877 -0.7863
 8730TIP3    H226155   1.043   4.852   3.319 -1.5854 -1.0888  0.1865
 8731TIP3   OH226156   1.688   1.121   4.198 -0.8291  0.3016  0.1299
 8731TIP3    H126157   1.754   1.134   4.265 -1.8924  1.7011  0.9572
 8731TIP3    H226158   1.736   1.085   4.123  0.6263  0.1367  1.1112
 8732TIP3   OH226159   5.462   6.098   3.246 -0.2061  0.0279  0.2597
 8732TIP3    H126160   5.394   6.162   3.227  0.8423  1.5897  1.5624
 8732TIP3    H226161   5.423   6.039   3.311 -0.6962  0.2101  0.1311
 8733TIP3   OH226162   0.149   2.470   0.733 -0.3358  0.2542  0.3039
 8733TIP3    H126163   0.098   2.424   0.801 -1.8333  0.2825 -0.7506
 8733TIP3    H226164   0.187   2.545   0.779 -0.2265 -0.4473  1.4060
 8734TIP3   OH226165   7.138   0.335   1.806  0.1793 -0.4143  0.3107
 8734TIP3    H126166   7.109   0.318   1.896 -0.1635 -1.5632 -0.0007
 8734TIP3    H226167   7.232   0.318   1.807  0.2207 -0.1817  0.5031
 8735TIP3   OH226168   5.272   0.974   0.974 -0.0939 -0.6009  0.3346
 8735TIP3    H126169   5.240   1.058   0.941 -1.4054 -0.5916  1.5311
 8735TIP3    H226170   5.229   0.909   0.917  0.5561 -0.4834 -0.2969
 8736TIP3   OH226171   4.432   2.202   0.862 -0.0035 -0.2904  0.2724
 8736TIP3    H126172   4.412   2.125   0.809 -2.1258 -0.8689  1.7816
 8736TIP3    H226173   4.411   2.277   0.806 -2.2726 -0.8877  0.2311
 8737TIP3   OH226174   4.673   4.988   2.886 -0.0928 -0.1613 -0.2960
 8737TIP3    H126175   4.648   5.061   2.943 -1.9270 -0.6540 -0.3899
 8737TIP3    H226176   4.695   4.917   2.947  1.0208  0.2349 -0.2121
 8738TIP3   OH226177   5.739   0.076   4.890  0.3792 -0.3596  0.4761
 8738TIP3    H126178   5.693   0.157   4.868  0.7301 -0.4726 -0.7219
 8738TIP3    H226179   5.687   0.037   4.959 -0.5791  0.1896  0.0771
 8739TIP3   OH226180   4.608   5.683   1.931 -0.1878  1.0003  0.0770
 8739TIP3    H126181   4.697   5.682   1.967 -0.3371  1.4031  0.4744
 8739TIP3    H226182   4.621   5.694   1.837  0.2394 -0.9139 -0.1342
 8740TIP3   OH226183   5.960   1.431   2.256 -0.1426  0.2242 -0.0008
 8740TIP3    H126184   5.981   1.340   2.233 -1.0173  0.3622 -1.4610
 8740TIP3    H226185   5.915   1.465   2.179  0.4434  2.0031  0.4078
 8741TIP3   OH226186   0.331   0.348   1.991  0.1328 -0.5567 -0.5300
 8741TIP3    H126187   0.245   0.387   2.002 -0.7084 -1.5747 -2.8630
 8741TIP3    H226188   0.378   0.408   1.934  1.1608  0.1866  1.0349
 8742TIP3   OH226189   5.022   3.254   2.420  0.2150 -0.4445  0.4440
 8742TIP3    H126190   5.062   3.334   2.456 -1.5510  0.5774  0.2345
 8742TIP3    H226191   4.989   3.280   2.334 -0.3263 -1.4210  0.3442
 8743TIP3   OH226192   1.989   0.593   2.011  0.4020 -0.2846 -0.2167
 8743TIP3    H126193   1.942   0.514   2.037  2.7978 -1.4201  1.0696
 8743TIP3    H226194   1.930   0.638   1.951 -3.6315  0.0926  3.5036
 8744TIP3   OH226195   0.606   4.499   4.939 -0.2533 -0.7708  0.2779
 8744TIP3    H126196   0.575   4.521   4.852  0.9801 -1.3750 -0.3373
 8744TIP3    H226197   0.529   4.467   4.985 -0.5134 -2.5310 -1.2799
 8745TIP3   OH226198   0.897   2.305   2.045 -0.2517  0.5298  0.4999
 8745TIP3    H126199   0.856   2.387   2.073  2.3100  2.0349  0.1810
 8745TIP3    H226200   0.963   2.332   1.981  0.5740 -1.8192  0.2647
 8746TIP3   OH226201   3.048   3.627   2.341  0.1327  0.3695  0.0501
 8746TIP3    H126202   3.143   3.618   2.351  0.2277  1.4561  0.2743
 8746TIP3    H226203   3.027   3.576   2.263  0.5990 -1.5066  1.0971
 8747TIP3   OH226204   3.059   0.412   4.846  0.4453  0.1406  0.2497
 8747TIP3    H126205   3.099   0.356   4.912  0.6377 -0.4320 -0.3454
 8747TIP3    H226206   3.047   0.496   4.891  0.2315 -0.3400  1.1200
 8748TIP3   OH226207   6.258   1.337   2.698  0.5179 -0.0184 -0.2854
 8748TIP3    H126208   6.289   1.386   2.622  1.8062 -0.3754 -0.0062
 8748TIP3    H226209   6.165   1.322   2.680  0.7606  0.0491 -1.7043
 8749TIP3   OH226210   1.084   1.662   1.467  0.4918  0.5475  0.0047
 8749TIP3    H126211   1.074   1.707   1.384  0.2925  0.5481  0.0284
 8749TIP3    H226212   1.068   1.570   1.446 -0.1296  0.6176  0.1452
 8750TIP3   OH226213   1.461   6.705   0.334 -0.3305  0.0792  0.2323
 8750TIP3    H126214   1.529   6.742   0.278  0.8133  0.6783  1.9513
 8750TIP3    H226215   1.485   6.732   0.423 -3.0135  0.6306  0.8852
 8751TIP3   OH226216   6.760   6.429   3.909 -0.6827 -0.0184  0.2409
 8751TIP3    H126217   6.758   6.459   4.000 -0.5159  0.0383  0.2271
 8751TIP3    H226218   6.704   6.351   3.908 -0.2241 -0.3613  0.5224
 8752TIP3   OH226219   5.345   2.081   3.053 -0.0923  0.0168  0.4140
 8752TIP3    H126220   5.314   2.015   3.116 -1.3634 -1.0810 -1.2775
 8752TIP3    H226221   5.332   2.165   3.098  1.4999 -0.8130  2.6018
 8753TIP3   OH226222   0.055   6.684   1.712 -0.6531 -0.4040  0.4752
 8753TIP3    H126223   0.118   6.742   1.668  0.9987 -2.6657 -0.3358
 8753TIP3    H226224   0.060   6.710   1.804 -0.3518  1.0495  0.0809
 8754TIP3   OH226225   3.219   1.080   1.342 -0.4084  0.5655  0.2015
 8754TIP3    H126226   3.283   1.123   1.285 -0.7567  2.5778  1.2420
 8754TIP3    H226227   3.272   1.037   1.409 -0.0686 -0.3080 -0.6071
 8755TIP3   OH226228   5.439   5.368   5.747 -0.5427  0.1239  0.0345
 8755TIP3    H126229   5.390   5.429   5.692  0.8176  1.7259  0.5151
 8755TIP3    H226230   5.419   5.396   5.837  1.6949  1.3010  0.2495
 8756TIP3   OH226231   5.313   0.786   0.442 -0.1654 -0.3486  0.4397
 8756TIP3    H126232   5.235   0.837   0.421  0.6570  0.8240  0.1446
 8756TIP3    H226233   5.312   0.714   0.378 -0.7364 -0.0696  0.1211
 8757TIP3   OH226234   3.747   4.285   2.532 -0.1110  0.4187  0.0733
 8757TIP3    H126235   3.661   4.300   2.570 -1.1277  0.6454 -2.2009
 8757TIP3    H226236   3.770   4.196   2.559 -1.4457  0.0353  0.0109
 8758TIP3   OH226237   0.114   5.843   0.875  0.5097 -0.1186 -0.9437
 8758TIP3    H126238   0.108   5.937   0.888  0.0760 -0.4203  1.3960
 8758TIP3    H226239   0.204   5.821   0.900  0.2043 -0.5006 -0.1641
 8759TIP3   OH226240   1.333   3.036   3.350  0.1892 -0.1277  0.0752
 8759TIP3    H126241   1.335   3.115   3.297 -2.4601 -0.5632 -0.8463
 8759TIP3    H226242   1.385   3.057   3.428 -0.2581  2.4263 -0.2391
 8760TIP3   OH226243   5.587   5.957   5.143  0.2327 -0.6772 -0.2970
 8760TIP3    H126244   5.611   6.050   5.144  0.0539 -0.6312  0.0689
 8760TIP3    H226245   5.619   5.923   5.226 -0.8378 -0.6384  0.1499
 8761TIP3   OH226246   5.421   1.711   0.826 -0.3206  0.5146  0.4501
 8761TIP3    H126247   5.364   1.718   0.749  2.1407 -2.2050 -1.8727
 8761TIP3    H226248   5.369   1.664   0.891 -1.1680 -0.9509 -1.1988
 8762TIP3   OH226249   3.831   6.522   3.535  0.0421  0.7690 -0.2379
 8762TIP3    H126250   3.830   6.552   3.444  0.2720  2.9702  0.4265
 8762TIP3    H226251   3.851   6.429   3.530  0.7479  0.9949 -2.4105
 8763TIP3   OH226252   6.078   3.014   0.120  0.2546  0.2502  0.0556
 8763TIP3    H126253   6.021   3.074   0.168  1.5608  0.7316  1.0486
 8763TIP3    H226254   6.068   3.040   0.029 -0.5241  0.8321  0.2923
 8764TIP3   OH226255   0.456   3.538   5.142 -0.1683 -0.3315 -0.3534
 8764TIP3    H126256   0.536   3.486   5.136 -0.6165 -1.0263 -0.3108
 8764TIP3    H226257   0.407   3.517   5.062 -1.1070 -1.2491  0.4379
 8765TIP3   OH226258   3.241   6.330   4.231  0.8491  0.2583 -0.1083
 8765TIP3    H126259   3.160   6.371   4.201  0.6764  0.2215  0.2901
 8765TIP3    H226260   3.256   6.257   4.171  2.7318  2.5647 -2.6766
 8766TIP3   OH226261   2.600   2.746   5.827  0.4248  0.6753  1.1284
 8766TIP3    H126262   2.544   2.789   5.891  0.3896  1.8788  0.3262
 8766TIP3    H226263   2.688   2.778   5.846  0.3534  1.3981  0.3223
 8767TIP3   OH226264   0.089   0.755   1.341 -0.0865 -0.2409 -0.6969
 8767TIP3    H126265   0.102   0.697   1.266 -0.0569 -0.5566 -0.4511
 8767TIP3    H226266   0.141   0.833   1.320 -0.7168  0.0101 -1.3648
 8768TIP3   OH226267   4.620   4.087   4.921 -0.1078  0.1229 -0.3699
 8768TIP3    H126268   4.673   4.158   4.888  2.2578 -0.9753  0.8079
 8768TIP3    H226269   4.577   4.123   4.999  1.7690  0.1100  0.7423
 8769TIP3   OH226270   3.484   5.007   0.430 -0.2751  0.4193 -0.1872
 8769TIP3    H126271   3.504   5.094   0.396 -1.2481  0.5461 -0.4641
 8769TIP3    H226272   3.471   5.021   0.524  2.6086  0.0341  0.3449
 8770TIP3   OH226273   5.755   5.587   1.058  0.4680  0.5574 -0.0133
 8770TIP3    H126274   5.694   5.513   1.054  2.8919 -1.5476 -2.0523
 8770TIP3    H226275   5.809   5.570   1.135  0.7093  0.4790 -0.1993
 8771TIP3   OH226276   6.606   6.302   0.993  0.1664  0.5780 -0.7588
 8771TIP3    H126277   6.587   6.213   1.022  1.8670  0.4616  0.1565
 8771TIP3    H226278   6.547   6.357   1.045 -0.9923 -0.0044 -1.4355
 8772TIP3   OH226279   0.896   2.463   3.484  0.0603 -0.5970 -0.1201
 8772TIP3    H126280   0.820   2.512   3.451 -0.7387 -1.3262  0.5961
 8772TIP3    H226281   0.928   2.517   3.557 -0.5353 -0.8915  0.3702
 8773TIP3   OH226282   3.289   0.300   3.130 -0.2045 -0.7302  0.1063
 8773TIP3    H126283   3.252   0.387   3.144  0.7002 -0.4670  1.0646
 8773TIP3    H226284   3.359   0.294   3.195 -0.1582 -2.1226 -0.0452
 8774TIP3   OH226285   0.677   3.117   0.104  0.5675 -0.0502 -0.6141
 8774TIP3    H126286   0.650   3.154   0.187  2.4056 -1.7703  0.8546
 8774TIP3    H226287   0.607   3.055   0.080  1.0883 -1.2977  0.9245
 8775TIP3   OH226288   2.469   0.428   5.113 -0.3619 -0.3026 -0.2648
 8775TIP3    H126289   2.485   0.340   5.148  0.2129 -0.7435 -1.5662
 8775TIP3    H226290   2.526   0.434   5.037  1.2228  2.0136  0.9778
 8776TIP3   OH226291   0.762   5.379   0.860 -0.6733  0.0779  0.2358
 8776TIP3    H126292   0.740   5.469   0.884  0.2325  0.2846  0.3259
 8776TIP3    H226293   0.767   5.380   0.764  0.4827  0.4172  0.2828
 8777TIP3   OH226294   7.099   1.383   5.640 -0.0180 -0.5881 -0.6271
 8777TIP3    H126295   7.009   1.359   5.663 -0.4584  0.0831 -1.5881
 8777TIP3    H226296   7.094   1.477   5.622  0.8277 -0.6006 -0.9405
 8778TIP3   OH226297   6.803   0.293   0.638  0.3886  0.2653 -0.4707
 8778TIP3    H126298   6.821   0.301   0.731 -1.4132  2.9418 -0.2539
 8778TIP3    H226299   6.823   0.379   0.602  1.0963 -0.7126 -2.6148
 8779TIP3   OH226300   6.642   1.736   4.788 -0.4261 -0.1961 -0.0463
 8779TIP3    H126301   6.554   1.745   4.751  0.2223 -1.5477 -2.0240
 8779TIP3    H226302   6.632   1.672   4.859 -0.9500 -0.7128 -0.5815
 8780TIP3   OH226303   2.302   0.969   4.832  0.7928  0.2473 -0.1778
 8780TIP3    H126304   2.214   0.966   4.869  1.4770  0.3303  1.5731
 8780TIP3    H226305   2.326   1.062   4.836  1.4777  0.0503  0.7347
 8781TIP3   OH226306   2.127   5.400   2.241 -0.3100 -0.6855 -0.0766
 8781TIP3    H126307   2.152   5.344   2.168  1.3871 -0.9803  0.6657
 8781TIP3    H226308   2.098   5.339   2.309 -0.3446 -0.5405  0.0392
 8782TIP3   OH226309   2.477   1.253   1.706 -0.0207 -0.2879 -0.0554
 8782TIP3    H126310   2.440   1.337   1.678  1.1171  0.2403 -0.0468
 8782TIP3    H226311   2.567   1.274   1.730 -0.6665 -0.8671  3.2451
 8783TIP3   OH226312   5.384   4.743   3.898 -0.0112 -0.5239  0.0727
 8783TIP3    H126313   5.355   4.716   3.985 -1.1646 -0.2486 -0.2139
 8783TIP3    H226314   5.428   4.827   3.913  0.9267 -1.0749  0.5433
 8784TIP3   OH226315   6.272   6.583   4.080  0.2738  0.3727  0.0150
 8784TIP3    H126316   6.317   6.509   4.040 -1.1498 -0.3747 -0.2793
 8784TIP3    H226317   6.233   6.548   4.160  0.3056  1.0229  0.3247
 8785TIP3   OH226318   3.333   1.137   2.489 -0.2376  0.3488  0.1901
 8785TIP3    H126319   3.276   1.192   2.544  0.1718  0.6049  0.3660
 8785TIP3    H226320   3.411   1.191   2.475 -0.1883  0.1444 -0.3531
 8786TIP3   OH226321   0.301   1.776   0.121  0.5853 -0.1637 -0.2867
 8786TIP3    H126322   0.278   1.683   0.119  2.0955 -0.5933  0.6348
 8786TIP3    H226323   0.253   1.811   0.196 -0.9683  0.1208 -1.3646
 8787TIP3   OH226324   3.364   0.769   4.313 -0.3988 -0.5151  0.0404
 8787TIP3    H126325   3.314   0.713   4.255 -0.5721 -0.9966  0.6496
 8787TIP3    H226326   3.311   0.849   4.321 -0.9955 -0.9618  0.5636
 8788TIP3   OH226327   5.695   1.336   5.802  0.3696 -0.0481 -0.3804
 8788TIP3    H126328   5.757   1.276   5.760  1.9233 -0.0934  1.8360
 8788TIP3    H226329   5.609   1.298   5.783  1.1552 -1.4603 -1.3241
 8789TIP3   OH226330   5.335   2.544   1.615 -0.0198  0.3971 -0.0449
 8789TIP3    H126331   5.426   2.569   1.599 -0.4859  1.6779 -0.8819
 8789TIP3    H226332   5.318   2.473   1.552  0.1574  0.7401 -0.4825
 8790TIP3   OH226333   0.697   4.567   2.250  0.4303  0.6567 -0.9929
 8790TIP3    H126334   0.721   4.507   2.320 -0.0006 -0.2362 -1.5918
 8790TIP3    H226335   0.762   4.552   2.181 -0.1968  0.2156 -1.5050
 8791TIP3   OH226336   6.390   2.470   3.610  0.0723  0.2442  0.5863
 8791TIP3    H126337   6.389   2.375   3.616 -1.2095  0.1696 -0.4529
 8791TIP3    H226338   6.299   2.496   3.627  0.2304  1.2157 -0.0007
 8792TIP3   OH226339   0.056   1.554   3.426 -0.8100  0.2482 -0.6015
 8792TIP3    H126340  -0.024   1.595   3.394 -0.2567  1.4372 -0.5325
 8792TIP3    H226341   0.107   1.626   3.462  0.1012 -0.5530 -0.2373
 8793TIP3   OH226342   2.064   5.751   1.345 -0.0190  0.0494  0.1331
 8793TIP3    H126343   2.069   5.846   1.340  0.8867 -0.0295 -0.7650
 8793TIP3    H226344   2.013   5.725   1.269  2.2828 -0.3250 -1.4023
 8794TIP3   OH226345   1.753   6.523   3.528 -0.4554 -0.3356  0.8847
 8794TIP3    H126346   1.734   6.493   3.439 -0.0258 -0.5478  0.8615
 8794TIP3    H226347   1.668   6.523   3.572 -0.4030 -2.0792  1.0321
 8795TIP3   OH226348   0.086   4.013   3.408 -0.4500 -0.3691 -0.0726
 8795TIP3    H126349   0.136   4.031   3.488 -2.2627 -1.2432  1.3317
 8795TIP3    H226350   0.004   4.060   3.419 -0.1475  0.8001 -2.1990
 8796TIP3   OH226351   3.928   6.326   0.836 -0.6481 -0.0621 -0.1181
 8796TIP3    H126352   3.845   6.357   0.800  0.7670  0.7332 -2.9298
 8796TIP3    H226353   3.974   6.406   0.862 -0.9057 -0.5267  1.9392
 8797TIP3   OH226354   5.821   2.382   1.546  0.6818  0.0198 -0.2808
 8797TIP3    H126355   5.831   2.294   1.582 -1.1272  0.2447  0.8801
 8797TIP3    H226356   5.802   2.368   1.453 -1.7778 -0.9779  0.3015
 8798TIP3   OH226357   1.675   5.241   5.729  0.3843  0.0145 -0.1395
 8798TIP3    H126358   1.724   5.301   5.785  1.3082  0.1515 -1.0666
 8798TIP3    H226359   1.583   5.257   5.751  0.6149  1.6593 -0.2382
 8799TIP3   OH226360   3.830   1.425   3.052 -0.1520  0.3298 -0.4365
 8799TIP3    H126361   3.828   1.509   3.098 -0.2182 -0.1764  0.4953
 8799TIP3    H226362   3.896   1.374   3.097 -1.8252 -1.0109  0.6276
 8800TIP3   OH226363   0.511   0.145   3.507  0.0842 -0.1527  0.1209
 8800TIP3    H126364   0.444   0.080   3.488  0.0655 -0.0066 -0.3136
 8800TIP3    H226365   0.584   0.095   3.542 -0.2963 -0.3019  0.7295
 8801TIP3   OH226366   3.972   0.490   2.371  0.4472 -0.0357  0.2239
 8801TIP3    H126367   3.905   0.503   2.304  0.1705 -1.3566  0.2236
 8801TIP3    H226368   4.029   0.423   2.335  0.8585 -0.0544  0.9000
 8802TIP3   OH226369   1.448   4.282   0.149 -0.0883  0.4974 -0.9855
 8802TIP3    H126370   1.467   4.371   0.119 -0.5570  0.7855 -0.4648
 8802TIP3    H226371   1.407   4.295   0.235  1.7495 -0.3090  0.0688
 8803TIP3   OH226372   4.282   5.508   2.548  0.4778  0.1227  0.0815
 8803TIP3    H126373   4.292   5.571   2.618  1.3582  0.1912 -0.0983
 8803TIP3    H226374   4.329   5.430   2.578 -1.4490 -0.8277  0.7460
 8804TIP3   OH226375   5.198   3.067   4.637  0.8800 -0.4083 -0.3212
 8804TIP3    H126376   5.121   3.040   4.586  1.1292 -2.5555  0.3409
 8804TIP3    H226377   5.270   3.063   4.574  0.5639  1.0311 -0.7975
 8805TIP3   OH226378   7.115   5.599   0.855 -0.3925 -0.1267 -0.4538
 8805TIP3    H126379   7.048   5.548   0.808  1.5831 -0.1042 -3.5645
 8805TIP3    H226380   7.080   5.688   0.857 -0.1702  0.0912 -2.9076
 8806TIP3   OH226381   6.957   3.596   0.599 -0.1553  0.6819  0.0831
 8806TIP3    H126382   6.974   3.665   0.663  1.5815  1.2913 -0.9428
 8806TIP3    H226383   7.001   3.627   0.519 -0.3215 -1.0941 -0.7412
 8807TIP3   OH226384   5.852   1.664   1.383 -0.1532 -0.1205 -0.2036
 8807TIP3    H126385   5.828   1.574   1.403 -0.0747 -0.1285 -0.1483
 8807TIP3    H226386   5.938   1.676   1.421 -0.2428  0.0373 -0.0466
 8808TIP3   OH226387   0.776   0.608   4.074  0.0687 -0.1121  0.4390
 8808TIP3    H126388   0.785   0.651   4.160  1.5669  1.0467 -0.2529
 8808TIP3    H226389   0.859   0.562   4.061  0.1018  0.2200 -0.6288
 8809TIP3   OH226390   2.287   0.681   0.683 -0.2810 -0.0418 -0.0871
 8809TIP3    H126391   2.356   0.709   0.743 -0.6626 -0.7399  0.6852
 8809TIP3    H226392   2.284   0.750   0.616  1.1365  0.0187 -0.1146
 8810TIP3   OH226393   7.142   4.740   0.175  0.2282  0.1576 -0.1710
 8810TIP3    H126394   7.167   4.651   0.201 -0.2023 -0.4167 -1.6086
 8810TIP3    H226395   7.224   4.784   0.156  0.4986  0.3359  1.2913
 8811TIP3   OH226396   2.563   2.577   3.504 -0.0614  0.2716  0.0706
 8811TIP3    H126397   2.494   2.643   3.508  1.5065  1.9728  0.6148
 8811TIP3    H226398   2.632   2.611   3.561  1.1916 -1.4205 -0.3430
 8812TIP3   OH226399   6.599   0.814   1.663 -0.1829 -0.2262  0.3962
 8812TIP3    H126400   6.582   0.748   1.730 -0.4473 -0.0029  0.5498
 8812TIP3    H226401   6.670   0.867   1.699 -0.6183  0.1595  0.6880
 8813TIP3   OH226402   0.023   3.714   3.725 -0.1826  0.0799  0.1346
 8813TIP3    H126403  -0.007   3.801   3.701 -0.9083 -0.4392 -0.8726
 8813TIP3    H226404   0.091   3.730   3.791  0.2237  1.4340 -0.5793
 8814TIP3   OH226405   3.699   3.175   4.632  0.1369 -0.2327  0.0596
 8814TIP3    H126406   3.751   3.103   4.596  1.6239  0.3935  0.8494
 8814TIP3    H226407   3.699   3.160   4.727  0.3886  0.7158  0.2316
 8815TIP3   OH226408   0.182   2.368   4.764  0.3061  0.1238 -0.1127
 8815TIP3    H126409   0.196   2.404   4.677  2.2120  0.7563  0.4092
 8815TIP3    H226410   0.265   2.328   4.788 -0.9981 -2.5444  0.3377
 8816TIP3   OH226411   1.104   2.364   0.042  0.4018  0.3016 -0.5600
 8816TIP3    H126412   1.046   2.389   0.114  1.7365  0.5923  0.4490
 8816TIP3    H226413   1.181   2.327   0.085  1.9089  1.8744 -1.7636
 8817TIP3   OH226414   0.094   0.690   5.749  0.2388  0.3043  1.0061
 8817TIP3    H126415   0.023   0.639   5.790  0.1939  0.2433  0.8534
 8817TIP3    H226416   0.122   0.751   5.817  0.6662 -0.2982  1.3766
 8818TIP3   OH226417   2.810   4.008   0.400 -0.0954 -0.1072  0.0505
 8818TIP3    H126418   2.739   4.065   0.428  1.7053  1.3095  2.1659
 8818TIP3    H226419   2.791   3.924   0.441 -1.4370 -0.2881 -0.9085
 8819TIP3   OH226420   1.379   3.876   0.680  0.1057 -0.0039  0.4069
 8819TIP3    H126421   1.437   3.941   0.719  0.0355  0.4409 -0.2128
 8819TIP3    H226422   1.414   3.862   0.592 -0.0782 -0.5562  0.4191
 8820TIP3   OH226423   3.038   4.341   3.893 -0.1672 -0.2642 -0.1167
 8820TIP3    H126424   2.974   4.278   3.858  0.4237 -0.9332 -0.0115
 8820TIP3    H226425   3.047   4.317   3.985  0.3646 -0.2819 -0.1728
 8821TIP3   OH226426   3.249   4.025   3.866  0.1196  0.0685 -0.1250
 8821TIP3    H126427   3.199   3.964   3.922  1.4699 -0.1352  0.8979
 8821TIP3    H226428   3.189   4.045   3.795 -0.6582 -1.8687 -0.0912
 8822TIP3   OH226429   6.426   2.950   5.582 -0.4382  0.2879  0.5652
 8822TIP3    H126430   6.395   2.994   5.502  0.1766  1.3057  0.8687
 8822TIP3    H226431   6.414   2.857   5.564 -2.7269  0.5692  0.2877
 8823TIP3   OH226432   6.701   1.880   1.139  0.2359  0.2640 -0.3533
 8823TIP3    H126433   6.661   1.951   1.189  1.8047  0.5717  0.5318
 8823TIP3    H226434   6.761   1.924   1.078 -0.0801 -0.2180 -1.0217
 8824TIP3   OH226435   2.005   5.699   2.427  0.0257  0.0132  0.4090
 8824TIP3    H126436   2.082   5.675   2.375 -0.0608  0.0617  0.2581
 8824TIP3    H226437   1.994   5.793   2.411 -0.8639 -0.2354 -0.6468
 8825TIP3   OH226438   4.189   0.683   5.162 -0.1599  0.3669  0.0159
 8825TIP3    H126439   4.138   0.729   5.096  1.2707  0.7259 -0.8787
 8825TIP3    H226440   4.213   0.600   5.120  0.9512  0.6929 -0.0318
 8826TIP3   OH226441   1.249   3.408   5.517 -0.3668 -0.3484 -0.1334
 8826TIP3    H126442   1.315   3.339   5.524  1.2057  0.9090 -1.7962
 8826TIP3    H226443   1.254   3.454   5.601 -0.8504 -1.7168  0.6689
 8827TIP3   OH226444   7.146   4.037   2.106  0.0514  0.3263 -0.9701
 8827TIP3    H126445   7.146   4.119   2.057 -1.3041  0.9700  0.0559
 8827TIP3    H226446   7.228   4.038   2.155  1.8684 -0.7155 -3.7132
 8828TIP3   OH226447   1.462   6.740   5.295  0.1983 -0.4373  0.1691
 8828TIP3    H126448   1.471   6.653   5.334  0.3978 -0.0904  0.9207
 8828TIP3    H226449   1.461   6.725   5.200  0.0232 -1.2709  0.3028
 8829TIP3   OH226450   6.846   2.860   2.289  0.1932  0.6043  0.6482
 8829TIP3    H126451   6.833   2.954   2.299  1.8100  0.7137  2.1695
 8829TIP3    H226452   6.884   2.850   2.201 -0.4870  1.2787  0.2646
 8830TIP3   OH226453   6.340   4.971   2.581  0.0464 -0.5336  0.3851
 8830TIP3    H126454   6.294   4.960   2.664  0.1800 -1.3917  0.3570
 8830TIP3    H226455   6.426   4.931   2.595 -0.0939 -1.1007 -0.2994
 8831TIP3   OH226456   6.958   3.657   4.936  0.5716  0.7491  0.5148
 8831TIP3    H126457   6.872   3.690   4.911  0.1761 -0.3367  0.4040
 8831TIP3    H226458   7.016   3.685   4.865  0.2081  0.9960  0.3106
 8832TIP3   OH226459   3.493   6.509   4.195 -0.1548  0.3293  0.4905
 8832TIP3    H126460   3.434   6.451   4.242  0.1285  0.3314  0.8506
 8832TIP3    H226461   3.457   6.597   4.210  0.0914  0.3552  0.9314
 8833TIP3   OH226462   2.719   4.002   0.799 -0.4682 -0.0005 -0.1960
 8833TIP3    H126463   2.678   3.919   0.823  0.4267 -0.3915  0.0084
 8833TIP3    H226464   2.694   4.062   0.869 -0.0821 -0.4338  0.3247
 8834TIP3   OH226465   2.076   4.385   3.351 -0.2359  0.5347 -0.0129
 8834TIP3    H126466   2.089   4.348   3.439 -0.4634  0.6892  0.0879
 8834TIP3    H226467   1.983   4.372   3.333  0.1688 -1.1772 -1.0059
 8835TIP3   OH226468   3.754   2.232   3.265  0.5856 -0.3125 -0.3716
 8835TIP3    H126469   3.828   2.289   3.245 -0.7108  1.6241  0.0083
 8835TIP3    H226470   3.693   2.246   3.192  0.3227 -1.4092 -0.3764
 8836TIP3   OH226471   4.481   6.801   2.000  0.2399  0.3620 -0.4205
 8836TIP3    H126472   4.488   6.827   2.092 -1.1044  1.2814 -0.5429
 8836TIP3    H226473   4.487   6.706   2.001 -0.2767  0.3240  0.6849
 8837TIP3   OH226474   3.230   3.497   5.865 -0.1016 -0.2135  0.0508
 8837TIP3    H126475   3.303   3.506   5.804 -0.6308 -0.7399 -0.6772
 8837TIP3    H226476   3.194   3.585   5.872 -1.2525 -0.4751 -1.9627
 8838TIP3   OH226477   5.755   5.286   1.833 -0.6244 -0.4148 -0.4695
 8838TIP3    H126478   5.772   5.375   1.863 -0.9749 -0.7823  0.8953
 8838TIP3    H226479   5.827   5.266   1.773  1.5175 -0.4653  1.9471
 8839TIP3   OH226480   2.218   0.577   4.610 -0.0892  0.5344  0.0089
 8839TIP3    H126481   2.167   0.590   4.531 -0.6604  0.5339  0.3702
 8839TIP3    H226482   2.169   0.623   4.678  0.0113 -0.0842  0.5089
 8840TIP3   OH226483   1.951   6.610   3.695 -0.4770 -0.0219 -0.4077
 8840TIP3    H126484   1.892   6.672   3.738 -0.0080  0.7793 -0.8845
 8840TIP3    H226485   1.898   6.569   3.627 -1.2632 -1.3956  0.9769
 8841TIP3   OH226486   1.985   5.143   3.174  0.0751  0.4997 -0.1821
 8841TIP3    H126487   2.031   5.175   3.252 -1.0219  0.3808  0.5339
 8841TIP3    H226488   1.941   5.063   3.203 -2.8421  2.0199  0.0025
 8842TIP3   OH226489   5.378   0.703   0.710 -0.2704 -0.4019  0.1677
 8842TIP3    H126490   5.399   0.726   0.800  1.3936  0.3121 -0.3517
 8842TIP3    H226491   5.366   0.609   0.711 -3.1580 -0.1201  1.6164
 8843TIP3   OH226492   0.247   4.440   4.115  0.5680  0.4334 -0.0848
 8843TIP3    H126493   0.233   4.392   4.034 -1.0303 -1.9035  1.4636
 8843TIP3    H226494   0.323   4.399   4.155  0.7557  0.9204  0.0667
 8844TIP3   OH226495   6.395   4.433   3.482 -0.1322  0.4905  0.1265
 8844TIP3    H126496   6.445   4.360   3.520  0.5926  1.8771  2.0148
 8844TIP3    H226497   6.311   4.395   3.458  0.2347 -0.9908  1.0409
 8845TIP3   OH226498   1.155   4.905   5.189  0.0904  0.1618 -0.3894
 8845TIP3    H126499   1.101   4.980   5.213  0.1441  0.0695  0.0239
 8845TIP3    H226500   1.218   4.939   5.127 -0.8355  0.1491 -1.3675
 8846TIP3   OH226501   2.917   4.579   4.191  0.7910 -0.5416 -0.3175
 8846TIP3    H126502   2.995   4.527   4.173  1.7698  0.9210 -0.4834
 8846TIP3    H226503   2.887   4.549   4.277  0.7502 -2.0180 -0.8198
 8847TIP3   OH226504   6.223   2.480   0.822  0.0751  0.0816  0.0072
 8847TIP3    H126505   6.186   2.475   0.910 -0.4344  0.8631 -0.1484
 8847TIP3    H226506   6.182   2.558   0.784 -0.7847 -1.0191 -1.4279
 8848TIP3   OH226507   4.069   1.712   4.458 -0.0774  0.2651 -0.2341
 8848TIP3    H126508   3.979   1.726   4.428 -0.8138  0.1280  1.7482
 8848TIP3    H226509   4.118   1.788   4.425 -1.3386  1.2923  0.1650
 8849TIP3   OH226510   3.979   2.949   2.629  0.3816 -0.5176 -0.1374
 8849TIP3    H126511   3.915   2.893   2.673  0.1642 -0.8020 -0.8051
 8849TIP3    H226512   4.056   2.894   2.618  0.4636 -0.4220 -0.0379
 8850TIP3   OH226513   0.134   4.390   0.021  0.3637 -0.1003  0.4445
 8850TIP3    H126514   0.212   4.341   0.047  0.3162  0.3550  1.4871
 8850TIP3    H226515   0.088   4.407   0.103 -0.5317  0.1528 -0.0977
 8851TIP3   OH226516   4.884   2.293   3.466  0.1387 -0.1457 -0.2487
 8851TIP3    H126517   4.847   2.235   3.401  0.9074 -0.6545 -0.2421
 8851TIP3    H226518   4.930   2.235   3.527 -0.8692  0.2827  0.9582
 8852TIP3   OH226519   2.281   6.412   2.189 -0.5066 -0.7991  0.5784
 8852TIP3    H126520   2.231   6.354   2.131  0.3405 -0.3808 -0.6244
 8852TIP3    H226521   2.339   6.460   2.129 -0.8337  0.9203  1.5803
 8853TIP3   OH226522   5.284   5.613   2.370 -0.3385 -0.0095  0.3371
 8853TIP3    H126523   5.220   5.684   2.365 -0.0011  0.6200  3.0970
 8853TIP3    H226524   5.241   5.545   2.421  0.7937  0.0492  1.4421
 8854TIP3   OH226525   2.974   1.142   3.406 -0.0665 -1.0157  0.2392
 8854TIP3    H126526   3.062   1.109   3.424  0.8083  0.9843 -0.1775
 8854TIP3    H226527   2.969   1.226   3.451 -1.1940 -0.3503 -1.0516
 8855TIP3   OH226528   6.869   2.693   0.286 -0.2656  0.2501 -0.0475
 8855TIP3    H126529   6.889   2.691   0.193  0.0573 -0.6628  0.0387
 8855TIP3    H226530   6.832   2.781   0.300  0.1348  0.5723 -0.9299
 8856TIP3   OH226531   2.841   3.668   3.622 -0.3590 -0.0928  0.2910
 8856TIP3    H126532   2.876   3.598   3.567 -1.6939 -0.3420 -0.2624
 8856TIP3    H226533   2.895   3.744   3.600  0.5133 -0.7132  0.2312
 8857TIP3   OH226534   6.318   1.621   4.550  0.2376  0.1905  0.0358
 8857TIP3    H126535   6.308   1.715   4.535  1.2754  0.3457  0.2324
 8857TIP3    H226536   6.253   1.580   4.493  0.8598  0.9588 -1.2734
 8858TIP3   OH226537   4.537   4.209   2.089  1.2048  0.2650 -0.4464
 8858TIP3    H126538   4.620   4.221   2.042  1.4854  0.4113  0.0737
 8858TIP3    H226539   4.480   4.278   2.055  1.4136  0.3859 -0.5522
 8859TIP3   OH226540   1.098   6.513   1.702  0.5425 -0.4982  0.3148
 8859TIP3    H126541   1.172   6.565   1.671 -0.1005  0.0487 -0.3159
 8859TIP3    H226542   1.022   6.568   1.688 -0.0200 -1.1522  0.7395
 8860TIP3   OH226543   2.217   2.495   2.660  0.2811  0.3888 -0.0191
 8860TIP3    H126544   2.207   2.472   2.752  0.5815 -0.6895 -0.2365
 8860TIP3    H226545   2.264   2.421   2.622 -0.4866  0.4706 -1.1939
 8861TIP3   OH226546   5.008   6.268   2.219 -0.0463 -0.5761 -0.3282
 8861TIP3    H126547   5.012   6.223   2.304  0.7321 -2.9554 -1.5457
 8861TIP3    H226548   4.950   6.343   2.235  1.0882 -0.1934  2.5989
 8862TIP3   OH226549   0.069   6.527   0.681 -0.2411  0.4725 -0.1920
 8862TIP3    H126550   0.069   6.583   0.758 -0.9126 -1.6674  1.4754
 8862TIP3    H226551   0.150   6.549   0.635 -0.0092  2.0688  0.9018
 8863TIP3   OH226552   4.174   1.645   3.851  0.0930  0.2397 -0.0831
 8863TIP3    H126553   4.114   1.720   3.850  0.0238  0.2400 -2.5484
 8863TIP3    H226554   4.241   1.669   3.915 -0.7091  1.7678  0.2314
 8864TIP3   OH226555   5.664   5.840   1.152  0.3487 -0.8994 -0.0500
 8864TIP3    H126556   5.747   5.878   1.183  0.4388 -1.5976  0.5719
 8864TIP3    H226557   5.690   5.757   1.112  0.0225 -0.7902 -0.4957
 8865TIP3   OH226558   0.640   1.136   3.425 -0.1524  0.5033 -0.3562
 8865TIP3    H126559   0.664   1.228   3.430 -0.7700  0.6103  1.1900
 8865TIP3    H226560   0.560   1.129   3.476 -0.4976 -0.7823 -1.0256
 8866TIP3   OH226561   0.607   3.102   1.832 -0.0087  0.0058 -0.1238
 8866TIP3    H126562   0.557   3.129   1.755 -0.6584 -0.9369 -0.0586
 8866TIP3    H226563   0.698   3.114   1.807 -0.2307  0.4854 -0.7401
 8867TIP3   OH226564   0.917   2.257   2.339 -0.4582  0.4218 -0.0696
 8867TIP3    H126565   0.989   2.315   2.363  0.1476 -0.6834  0.8521
 8867TIP3    H226566   0.942   2.221   2.254  0.2186 -0.1588  0.3675
 8868TIP3   OH226567   0.162   0.634   2.304  0.1999 -0.3871  0.3022
 8868TIP3    H126568   0.176   0.586   2.222 -1.8537  2.3921 -1.8811
 8868TIP3    H226569   0.249   0.667   2.327  0.5427  0.6683 -2.1405
 8869TIP3   OH226570   6.650   1.761   0.285 -0.0876  0.0629  0.2131
 8869TIP3    H126571   6.651   1.745   0.379  2.9201 -1.1395  0.1065
 8869TIP3    H226572   6.580   1.704   0.252 -0.6671 -0.0910  1.6342
 8870TIP3   OH226573   6.440   1.164   5.619 -0.3421 -0.2077 -0.0959
 8870TIP3    H126574   6.353   1.160   5.660 -0.9855 -0.0653 -1.4070
 8870TIP3    H226575   6.488   1.227   5.672 -1.5629  0.9171 -0.2715
 8871TIP3   OH226576   6.660   2.127   3.433 -0.4022  0.0802  0.0532
 8871TIP3    H126577   6.576   2.126   3.387 -0.6248  0.8036  0.4186
 8871TIP3    H226578   6.637   2.107   3.524 -0.1225 -0.1470  0.0735
 8872TIP3   OH226579   6.970   4.460  -0.008  0.8051  0.1513  0.2295
 8872TIP3    H126580   6.941   4.438   0.081 -1.3282  0.5373 -0.3255
 8872TIP3    H226581   6.889   4.472  -0.057  1.9360 -1.0931 -2.0520
 8873TIP3   OH226582   6.943   3.421   2.719  0.1546 -0.0392  0.5318
 8873TIP3    H126583   6.863   3.396   2.767 -0.2757 -0.1277 -0.2130
 8873TIP3    H226584   6.964   3.344   2.666  0.7024  0.0082  0.6732
 8874TIP3   OH226585   4.741   6.330   0.134 -0.4264 -0.5871  0.3534
 8874TIP3    H126586   4.690   6.379   0.198  0.4570  2.4220 -1.0453
 8874TIP3    H226587   4.813   6.292   0.184 -1.9342 -1.7672  1.7209
 8875TIP3   OH226588   1.836   6.387   3.791 -0.3649  0.8860  0.0879
 8875TIP3    H126589   1.773   6.405   3.861 -1.0544 -1.5453  0.1847
 8875TIP3    H226590   1.890   6.466   3.786 -0.4976  1.2896  3.1197
 8876TIP3   OH226591   2.861   2.085   1.319  0.2387  0.0408 -0.3210
 8876TIP3    H126592   2.908   2.010   1.280 -0.4094  0.1691 -1.3937
 8876TIP3    H226593   2.818   2.127   1.244 -0.4069  0.7683  0.4494
 8877TIP3   OH226594   7.007   3.327   1.373  0.5321 -0.3006 -0.2825
 8877TIP3    H126595   7.084   3.375   1.402 -0.9836  3.1618 -1.4146
 8877TIP3    H226596   7.037   3.237   1.361  4.2614  0.7988 -0.3523
 8878TIP3   OH226597   7.174   3.089   3.491  0.3455  0.3719  0.1224
 8878TIP3    H126598   7.210   3.011   3.449  0.2639  0.1073  0.5328
 8878TIP3    H226599   7.167   3.154   3.421 -0.7229 -0.3700 -0.4971
 8879TIP3   OH226600   6.294   1.327   1.549  0.5736 -0.4779 -0.2528
 8879TIP3    H126601   6.368   1.372   1.590  0.9691 -0.9033 -0.4796
 8879TIP3    H226602   6.248   1.286   1.622 -1.0136  1.9785  0.2042
 8880TIP3   OH226603   1.809   4.469   0.426  0.4154 -0.3939  0.0704
 8880TIP3    H126604   1.809   4.377   0.401 -0.4059  0.0844 -1.8900
 8880TIP3    H226605   1.883   4.508   0.379 -1.2875  0.5725 -1.9695
 8881TIP3   OH226606   2.304   3.350   4.021  0.2254  1.0693  0.5663
 8881TIP3    H126607   2.306   3.307   3.935  0.6801 -2.3032  2.1130
 8881TIP3    H226608   2.395   3.372   4.039  0.4962 -0.3990  1.1195
 8882TIP3   OH226609   6.087   5.443   1.558 -0.0339 -0.2518 -0.7865
 8882TIP3    H126610   6.064   5.476   1.645  0.8048 -1.6355 -0.0040
 8882TIP3    H226611   6.172   5.483   1.540 -0.2579  0.1212 -1.0247
 8883TIP3   OH226612   1.703   2.039   3.654  0.5704  0.2148  0.3078
 8883TIP3    H126613   1.671   2.030   3.744 -0.3344  0.6335  0.0426
 8883TIP3    H226614   1.759   2.116   3.656 -0.0561  0.6743  0.3580
 8884TIP3   OH226615   4.143   0.087   2.621 -0.0035 -0.3106 -0.3318
 8884TIP3    H126616   4.165   0.059   2.710 -0.1793 -1.1543 -0.5384
 8884TIP3    H226617   4.050   0.111   2.627 -0.2400 -1.1727 -0.4664
 8885TIP3   OH226618   1.445   0.865   3.307 -0.5297 -0.4605  0.0826
 8885TIP3    H126619   1.533   0.898   3.288 -0.2937 -0.5255  1.0091
 8885TIP3    H226620   1.421   0.906   3.391 -1.4488 -0.3247 -0.2287
 8886TIP3   OH226621  -0.004   0.288   0.688  0.9258 -0.3015  0.1601
 8886TIP3    H126622   0.048   0.331   0.620 -0.1507  0.2476 -0.3439
 8886TIP3    H226623  -0.029   0.360   0.748 -0.4514 -0.2832 -0.4040
 8887TIP3   OH226624   7.062   4.345   4.252 -0.8890 -0.6120  0.0247
 8887TIP3    H126625   7.148   4.383   4.238  0.0451 -2.6530 -0.2715
 8887TIP3    H226626   7.004   4.419   4.269  1.1373  0.7321  1.4199
 8888TIP3   OH226627   0.310   4.168   1.835 -0.3654  0.1657  0.8363
 8888TIP3    H126628   0.356   4.247   1.808 -1.9219  0.4209 -1.3437
 8888TIP3    H226629   0.348   4.146   1.920  2.1590  1.5607  0.1724
 8889TIP3   OH226630   4.326   1.987   0.108 -0.7438  0.1324  0.0091
 8889TIP3    H126631   4.264   1.938   0.162  0.8316 -1.2964  0.5904
 8889TIP3    H226632   4.322   1.945   0.022 -0.6641  0.1165  0.0129
 8890TIP3   OH226633   0.605   2.027   4.785  0.0720 -0.3748  0.4934
 8890TIP3    H126634   0.603   2.050   4.692 -0.0548 -0.7987  0.3856
 8890TIP3    H226635   0.539   1.958   4.794  1.7719 -2.1206  0.3903
 8891TIP3   OH226636   4.811   5.892   0.503  0.1627 -0.2219  0.5739
 8891TIP3    H126637   4.737   5.871   0.446 -0.0173  0.2296  0.6347
 8891TIP3    H226638   4.825   5.986   0.490  0.7680 -0.3194  0.5123
 8892TIP3   OH226639   1.884   3.661   2.684 -0.2059  0.1165  0.2147
 8892TIP3    H126640   1.890   3.680   2.590 -0.4821  3.0819  0.7075
 8892TIP3    H226641   1.934   3.581   2.695 -1.4392 -1.1945 -2.6665
 8893TIP3   OH226642   6.336   6.270   1.720  0.4168 -0.4056 -0.1361
 8893TIP3    H126643   6.396   6.199   1.695 -0.2783 -0.1650 -2.8156
 8893TIP3    H226644   6.388   6.349   1.711 -0.0789 -0.2389 -1.9710
 8894TIP3   OH226645   4.725   4.657   5.630  0.4844 -0.6073  0.3040
 8894TIP3    H126646   4.767   4.639   5.715  2.1246  1.6186  0.0489
 8894TIP3    H226647   4.735   4.575   5.581  2.7809 -0.8242  1.0099
 8895TIP3   OH226648   5.554   5.971   5.627  0.2954  0.3054 -0.2666
 8895TIP3    H126649   5.501   6.050   5.616  0.6949  0.5017 -0.7994
 8895TIP3    H226650   5.627   5.998   5.682 -0.0236  0.0933  0.2676
 8896TIP3   OH226651   6.525   2.909   5.824  0.2018 -0.1674 -0.5280
 8896TIP3    H126652   6.580   2.838   5.791  0.3142  0.1975 -1.1408
 8896TIP3    H226653   6.483   2.945   5.746  0.4312  0.6772 -0.2727
 8897TIP3   OH226654   4.318   0.694   2.028 -0.6704 -0.2000  0.5814
 8897TIP3    H126655   4.411   0.680   2.007 -0.3673  1.3187  0.7844
 8897TIP3    H226656   4.285   0.607   2.048  1.1302 -0.6074  2.1374
 8898TIP3   OH226657   1.192   6.676   3.629  0.5046 -0.2389 -0.1085
 8898TIP3    H126658   1.267   6.735   3.628 -1.0031  1.7919 -0.1026
 8898TIP3    H226659   1.174   6.658   3.537  0.5096 -0.0765 -0.1414
 8899TIP3   OH226660   3.426   5.276   5.501  0.4292 -0.4957 -0.2069
 8899TIP3    H126661   3.516   5.299   5.480  0.1018 -0.2922 -1.4792
 8899TIP3    H226662   3.403   5.208   5.437 -0.7806  0.5169 -0.8983
 8900TIP3   OH226663   5.495   6.768   3.643 -0.2059  0.1490 -0.5137
 8900TIP3    H126664   5.528   6.688   3.685 -0.7402  0.2914  0.1956
 8900TIP3    H226665   5.501   6.835   3.711  0.7697  0.8599 -1.2712
 8901TIP3   OH226666   4.844   2.726   2.342  0.1358 -1.0380  0.4175
 8901TIP3    H126667   4.911   2.749   2.407 -0.2108 -0.9496  0.7428
 8901TIP3    H226668   4.761   2.752   2.382 -0.0105 -0.0307 -0.4742
 8902TIP3   OH226669   6.870   3.825   2.563 -0.4922  0.6392 -0.3349
 8902TIP3    H126670   6.793   3.787   2.521 -0.4947  0.3029 -0.0347
 8902TIP3    H226671   6.942   3.766   2.541 -0.7079 -0.2027  1.0753
 8903TIP3   OH226672   2.509   3.441   5.592  0.2548  0.4505 -0.3686
 8903TIP3    H126673   2.539   3.367   5.645  0.2213  1.4905  1.1714
 8903TIP3    H226674   2.558   3.434   5.510  0.8995 -0.7656  0.0981
 8904TIP3   OH226675   2.055   4.519   4.519  0.3982  0.4449 -0.1604
 8904TIP3    H126676   2.119   4.478   4.577  1.6994  1.2580 -0.9634
 8904TIP3    H226677   1.986   4.453   4.510  1.8368 -1.1189 -0.4705
 8905TIP3   OH226678   6.497   3.592   2.223 -0.2374  0.3890  0.0036
 8905TIP3    H126679   6.490   3.508   2.267 -1.0974 -1.3282 -3.0846
 8905TIP3    H226680   6.584   3.624   2.245  0.7683 -2.1252  0.0126
 8906TIP3   OH226681   2.276   5.777   4.212 -0.0416 -0.9628  0.1021
 8906TIP3    H126682   2.221   5.804   4.285 -0.2986 -1.1808 -0.0071
 8906TIP3    H226683   2.267   5.681   4.209 -1.0323 -0.8546 -0.9929
 8907TIP3   OH226684   4.352   5.643   5.719 -0.0523 -0.6497 -0.0139
 8907TIP3    H126685   4.367   5.597   5.637  0.0028 -1.4717  0.4538
 8907TIP3    H226686   4.405   5.723   5.711 -1.2278  0.0595 -1.4027
 8908TIP3   OH226687   0.506   1.338   5.278  1.0054  0.1306  0.3450
 8908TIP3    H126688   0.457   1.320   5.359  1.1324 -1.9904  0.0028
 8908TIP3    H226689   0.597   1.316   5.300  1.1981  0.5020 -0.0817
 8909TIP3   OH226690   5.209   3.532   3.615  0.0754 -0.0249  0.1887
 8909TIP3    H126691   5.278   3.503   3.555 -1.0753  0.8307 -1.6657
 8909TIP3    H226692   5.161   3.598   3.565 -2.9796 -1.6152  0.7956
 8910TIP3   OH226693  -0.015   5.976   5.127 -0.3245  0.1846  0.0739
 8910TIP3    H126694   0.063   5.923   5.116 -0.9211 -1.3517  2.4438
 8910TIP3    H226695   0.015   6.066   5.116  1.6376 -0.3991  0.2646
 8911TIP3   OH226696   4.085   3.435   1.986 -0.1554 -0.2204  0.6049
 8911TIP3    H126697   4.030   3.503   1.946 -0.4334  0.0511  1.4261
 8911TIP3    H226698   4.026   3.361   1.998 -0.2841 -0.0289  1.2171
 8912TIP3   OH226699   3.459   4.932   4.232 -0.4943  0.1711 -0.0376
 8912TIP3    H126700   3.372   4.898   4.214 -0.5027 -1.1435  2.1841
 8912TIP3    H226701   3.483   4.979   4.151 -0.5887 -4.7623 -3.3431
 8913TIP3   OH226702   0.840   0.390   5.186  0.1741 -0.3181  0.3028
 8913TIP3    H126703   0.774   0.442   5.232  0.6881 -0.3643  1.1118
 8913TIP3    H226704   0.791   0.344   5.118 -0.1690  1.8403 -0.9959
 8914TIP3   OH226705   2.779   1.347   1.468  0.4967  0.3960 -0.8059
 8914TIP3    H126706   2.704   1.386   1.424 -1.2047  0.2280  1.7464
 8914TIP3    H226707   2.803   1.272   1.413 -3.1343 -1.3477 -0.3300
 8915TIP3   OH226708   7.137   0.243   1.401  0.1076 -0.3444  0.3934
 8915TIP3    H126709   7.100   0.306   1.339 -0.3057 -0.1793  0.7992
 8915TIP3    H226710   7.066   0.228   1.464  0.7891  0.0868  1.2750
 8916TIP3   OH226711   5.896   0.955   3.951  0.4584  0.4087  0.1267
 8916TIP3    H126712   5.946   0.975   3.872  0.8281  0.4183  0.3634
 8916TIP3    H226713   5.837   1.029   3.962  0.0037  0.1436 -0.4609
 8917TIP3   OH226714   2.965   5.826   5.587 -0.2504  0.4663  0.6239
 8917TIP3    H126715   2.978   5.751   5.529 -0.2152  0.2607  0.8936
 8917TIP3    H226716   3.041   5.824   5.646  0.4162  1.4632 -0.1700
 8918TIP3   OH226717   0.997   0.318   2.910 -0.1893 -0.0659 -0.2502
 8918TIP3    H126718   1.077   0.325   2.858  1.1510  1.9941  1.8992
 8918TIP3    H226719   1.025   0.276   2.991 -1.5004 -0.1617  0.1779
 8919TIP3   OH226720   1.769   3.769   5.414 -0.0800  0.8498 -0.3576
 8919TIP3    H126721   1.838   3.774   5.481 -0.2950  1.8254 -0.1844
 8919TIP3    H226722   1.688   3.755   5.464 -0.0393 -0.0734 -0.5437
 8920TIP3   OH226723   3.493   1.060   1.581  0.0695  0.0895 -0.2189
 8920TIP3    H126724   3.548   0.993   1.541  0.6897  0.1592  0.4834
 8920TIP3    H226725   3.549   1.099   1.648 -1.3584 -0.9473  1.6572
 8921TIP3   OH226726   1.428   3.763   2.160  0.7439 -0.3687 -0.0189
 8921TIP3    H126727   1.359   3.757   2.094  0.6627  1.2587 -0.1423
 8921TIP3    H226728   1.467   3.850   2.145  2.0300 -0.7827  0.8108
 8922TIP3   OH226729   3.259   4.515   3.943 -0.3999  0.5497  0.0144
 8922TIP3    H126730   3.302   4.543   3.862  0.5162  0.4520  0.4574
 8922TIP3    H226731   3.166   4.510   3.920 -0.0544 -0.4482 -1.3297
 8923TIP3   OH226732   2.128   6.052   1.328 -0.5857  0.2131  0.8433
 8923TIP3    H126733   2.119   6.123   1.264  0.8089 -0.7013 -0.4400
 8923TIP3    H226734   2.212   6.069   1.371  0.1439 -1.0143 -0.0126
 8924TIP3   OH226735   6.768   5.347   3.216  0.2053 -0.2136 -0.1302
 8924TIP3    H126736   6.846   5.291   3.214  0.7153  0.4798 -0.1506
 8924TIP3    H226737   6.762   5.384   3.128  1.6039  2.0331  0.6238
 8925TIP3   OH226738   3.294   5.984   0.976  0.3710 -0.4158 -0.0417
 8925TIP3    H126739   3.273   5.900   1.015 -1.2346  0.3351  0.8034
 8925TIP3    H226740   3.379   6.008   1.015  1.1166 -1.8463 -0.7163
 8926TIP3   OH226741   6.995   5.950   2.078  0.2655 -0.3406 -0.6708
 8926TIP3    H126742   7.086   5.975   2.063  0.5812  0.0402  1.4650
 8926TIP3    H226743   6.990   5.858   2.050  1.8720 -0.9850  0.9755
 8927TIP3   OH226744   4.466   2.016   1.420  0.0478 -0.1441  0.1078
 8927TIP3    H126745   4.416   2.057   1.350  0.6787  0.4061 -0.0225
 8927TIP3    H226746   4.452   1.922   1.408 -0.1047 -0.0371 -0.5564
 8928TIP3   OH226747   3.964   0.868   3.830  0.3809 -0.0461 -0.3475
 8928TIP3    H126748   3.928   0.924   3.761  1.3118  0.3612 -0.5170
 8928TIP3    H226749   4.056   0.894   3.836 -0.1288  1.5137  2.5482
 8929TIP3   OH226750   1.702   1.119   0.531 -0.4032  0.4214  0.3161
 8929TIP3    H126751   1.772   1.173   0.495  0.1521  0.9565  2.1079
 8929TIP3    H226752   1.642   1.106   0.457  0.0274  2.4939 -0.4733
 8930TIP3   OH226753   3.589   3.769   5.243  0.4315  0.1621  0.0275
 8930TIP3    H126754   3.561   3.856   5.214  1.8870  0.8737  0.6302
 8930TIP3    H226755   3.616   3.725   5.163  0.8171  0.7171 -0.1542
 8931TIP3   OH226756   3.706   5.698   1.318  0.1035  0.0674  0.2084
 8931TIP3    H126757   3.730   5.610   1.288  1.1921  0.4559 -0.1074
 8931TIP3    H226758   3.765   5.715   1.391  0.4339  0.8334 -0.2222
 8932TIP3   OH226759   0.862   5.205   4.923 -0.3856 -0.0519  0.4723
 8932TIP3    H126760   0.925   5.153   4.872 -0.4567  1.6621 -1.5014
 8932TIP3    H226761   0.794   5.142   4.948  0.8200 -1.4211  0.4643
 8933TIP3   OH226762   0.487   0.292   5.326  0.2970 -0.1158  0.3289
 8933TIP3    H126763   0.538   0.370   5.345  0.4648  0.2942 -1.6058
 8933TIP3    H226764   0.398   0.313   5.356  0.4496  0.6332  0.2680
 8934TIP3   OH226765   4.996   2.270   2.392  0.8409  0.2008  0.3078
 8934TIP3    H126766   4.984   2.296   2.483 -2.9887  0.9259 -0.2201
 8934TIP3    H226767   4.921   2.307   2.346  3.1331  0.7888 -3.4369
 8935TIP3   OH226768   5.844   2.126   0.491  0.2245 -0.0453  0.5633
 8935TIP3    H126769   5.837   2.091   0.580 -1.1993 -0.8263  0.1760
 8935TIP3    H226770   5.759   2.107   0.451  0.8461  0.2751 -0.9772
 8936TIP3   OH226771   7.190   5.568   3.506 -0.0308  0.3343 -0.3583
 8936TIP3    H126772   7.101   5.533   3.506  0.0972 -0.0777 -1.9678
 8936TIP3    H226773   7.221   5.555   3.595 -1.7431  0.9425  0.3643
 8937TIP3   OH226774   5.711   0.881   0.143 -0.3951  0.4068  0.7714
 8937TIP3    H126775   5.626   0.908   0.179 -0.9363  0.9027 -0.7831
 8937TIP3    H226776   5.766   0.959   0.149 -0.6620  0.6596  0.0516
 8938TIP3   OH226777   4.842   5.585   4.799 -0.0905  0.6477  0.1302
 8938TIP3    H126778   4.852   5.498   4.838 -1.5402  1.0950  1.6383
 8938TIP3    H226779   4.910   5.639   4.840 -0.8699  0.8337  1.2131
 8939TIP3   OH226780   3.441   2.163   0.762  0.0813 -0.1044 -0.0861
 8939TIP3    H126781   3.410   2.239   0.811  0.6398  0.0215  0.0741
 8939TIP3    H226782   3.459   2.097   0.830  0.6098 -0.0175 -0.1370
 8940TIP3   OH226783   4.351   1.260   1.826 -0.0884  0.9845 -0.5008
 8940TIP3    H126784   4.403   1.180   1.834  0.1679  1.2283  0.3307
 8940TIP3    H226785   4.271   1.232   1.782  0.6007  0.5422 -1.5289
 8941TIP3   OH226786   2.117   2.821   0.675 -0.4815 -0.2102 -0.0514
 8941TIP3    H126787   2.191   2.820   0.736 -1.3115 -1.0295  0.9632
 8941TIP3    H226788   2.039   2.820   0.731 -1.2671 -0.5149 -1.1247
 8942TIP3   OH226789   1.415   1.557   4.055  0.3358 -0.0528  0.0272
 8942TIP3    H126790   1.417   1.475   4.104 -0.6833  0.1247  0.3860
 8942TIP3    H226791   1.443   1.624   4.119 -1.8556  0.3069  0.6695
 8943TIP3   OH226792   0.752   3.680   4.343  0.2870 -0.0128 -0.1550
 8943TIP3    H126793   0.846   3.695   4.353  0.1574 -0.6306  2.6990
 8943TIP3    H226794   0.745   3.588   4.317  0.4464  0.0197 -0.3201
 8944TIP3   OH226795   0.198   0.229   1.272  0.2729  0.1031 -0.1251
 8944TIP3    H126796   0.114   0.216   1.316 -0.1698 -0.5824 -1.1418
 8944TIP3    H226797   0.225   0.317   1.299 -1.4771  0.9267 -0.9019
 8945TIP3   OH226798   4.190   3.070   5.407  0.2385  0.4525 -0.4225
 8945TIP3    H126799   4.118   3.007   5.397 -1.7103  2.6196 -0.7614
 8945TIP3    H226800   4.257   3.039   5.346 -0.2118 -1.7742  0.0914
 8946TIP3   OH226801   4.247   3.275   2.588 -0.6331 -0.2834  0.4404
 8946TIP3    H126802   4.174   3.297   2.530 -0.0782 -1.7981 -0.9365
 8946TIP3    H226803   4.307   3.225   2.532  0.8130 -0.2296  1.8798
 8947TIP3   OH226804   1.270   1.549   1.260 -0.3738 -0.7222  0.0476
 8947TIP3    H126805   1.324   1.539   1.338  1.4599 -0.8840 -1.1750
 8947TIP3    H226806   1.219   1.468   1.255  0.9292 -1.5851  0.0671
 8948TIP3   OH226807   6.316   1.580   1.729  0.3339 -0.3480 -0.6442
 8948TIP3    H126808   6.343   1.669   1.749 -1.7526  0.0463  0.7271
 8948TIP3    H226809   6.397   1.535   1.706  1.8927  1.1031  1.6216
 8949TIP3   OH226810   3.988   3.418   0.265  0.5122  0.0947 -0.4451
 8949TIP3    H126811   3.951   3.410   0.178  0.7144  0.3010 -0.5528
 8949TIP3    H226812   4.014   3.510   0.271 -1.0809  0.5321  0.4687
 8950TIP3   OH226813   6.487   4.108   1.547  0.2052 -0.3520 -0.4366
 8950TIP3    H126814   6.575   4.132   1.519  0.7498  0.2604  1.5935
 8950TIP3    H226815   6.494   4.095   1.642 -1.7030 -1.2029 -0.3505
 8951TIP3   OH226816   6.679   1.129   4.967 -0.1833 -0.0636  0.1946
 8951TIP3    H126817   6.723   1.163   5.045  0.1085  0.5676 -0.2295
 8951TIP3    H226818   6.592   1.103   4.997 -0.3156  0.8156  0.6005
 8952TIP3   OH226819   4.970   1.114   1.340  0.0131  0.5971 -0.6624
 8952TIP3    H126820   4.984   1.042   1.401  0.7835  0.8644 -0.5089
 8952TIP3    H226821   5.054   1.125   1.296 -0.9075 -0.5958 -2.8927
 8953TIP3   OH226822   1.540   4.741   5.344 -0.3912 -0.0490  0.2634
 8953TIP3    H126823   1.525   4.653   5.309  0.4608 -0.6187  1.2507
 8953TIP3    H226824   1.635   4.752   5.338 -0.3675  0.3281  1.2124
 8954TIP3   OH226825   5.341   5.543   4.418 -0.3414 -0.2079  0.5642
 8954TIP3    H126826   5.330   5.632   4.385  0.0260 -0.5345 -0.4657
 8954TIP3    H226827   5.252   5.514   4.438 -1.0165 -1.0499 -2.9659
 8955TIP3   OH226828   3.364   0.683   5.010 -0.5673 -0.1210 -0.1430
 8955TIP3    H126829   3.417   0.620   4.963  0.1562  0.4586 -0.1216
 8955TIP3    H226830   3.288   0.697   4.954 -1.4288 -1.9957  0.4645
 8956TIP3   OH226831   6.626   0.284   5.619 -0.0374 -0.0824  0.0352
 8956TIP3    H126832   6.720   0.290   5.600 -0.2507  1.3803 -0.6678
 8956TIP3    H226833   6.614   0.195   5.652  2.2763  0.7856  3.8382
 8957TIP3   OH226834   1.943   5.540   0.070  0.4600 -0.2794  0.1150
 8957TIP3    H126835   1.927   5.571  -0.019  1.8038 -0.5402 -0.2332
 8957TIP3    H226836   1.902   5.606   0.126 -0.6952 -0.2891 -0.6796
 8958TIP3   OH226837   5.499   6.197   2.096  0.1433  0.3177 -0.0913
 8958TIP3    H126838   5.509   6.171   2.188  0.7796 -1.8956 -0.7277
 8958TIP3    H226839   5.572   6.257   2.080  0.6582 -0.1173  0.5709
 8959TIP3   OH226840   0.966   2.488   5.831  0.0528  0.0405  0.3629
 8959TIP3    H126841   1.014   2.523   5.755 -0.3403  1.4083  0.7088
 8959TIP3    H226842   1.028   2.494   5.903 -0.6524  2.0281  0.8594
 8960TIP3   OH226843   3.880   6.450   5.292 -0.2360 -0.2876  0.1794
 8960TIP3    H126844   3.871   6.413   5.380  0.7878 -0.9151  0.0332
 8960TIP3    H226845   3.929   6.384   5.243  1.3976  1.1143 -0.1711
 8961TIP3   OH226846   6.292   6.669   5.189 -0.3009  0.2425  0.0157
 8961TIP3    H126847   6.204   6.698   5.215  0.7813  2.7072  1.3475
 8961TIP3    H226848   6.281   6.577   5.166 -2.9891  0.1145  1.3604
 8962TIP3   OH226849   5.203   1.481   4.548  0.3202 -0.3305  0.1460
 8962TIP3    H126850   5.135   1.545   4.528 -0.7376 -1.4357  0.1320
 8962TIP3    H226851   5.237   1.508   4.633 -1.5828 -0.9500  1.1403
 8963TIP3   OH226852   6.115   3.748   0.666  0.4653 -0.3387 -0.1411
 8963TIP3    H126853   6.100   3.672   0.609 -2.3296  0.0580 -0.0828
 8963TIP3    H226854   6.061   3.818   0.628 -2.6090 -0.3838  3.4670
 8964TIP3   OH226855   3.105   4.812   3.693 -0.0124  0.2364 -0.5505
 8964TIP3    H126856   3.194   4.802   3.729  1.5968  0.3712 -4.0638
 8964TIP3    H226857   3.078   4.724   3.670 -0.8238  0.2074  0.4261
 8965TIP3   OH226858   5.006   3.187   0.404  0.5899  0.2084 -0.8337
 8965TIP3    H126859   4.968   3.104   0.376  1.6796 -0.3530 -0.7254
 8965TIP3    H226860   5.101   3.173   0.396  0.8277  2.5494 -4.1706
 8966TIP3   OH226861   6.928   4.350   4.645 -0.2551 -0.5574  0.1714
 8966TIP3    H126862   6.904   4.340   4.737 -2.5819 -0.5603 -0.3734
 8966TIP3    H226863   6.864   4.412   4.610 -0.5007 -1.8615 -1.8394
 8967TIP3   OH226864   1.091   0.642   5.592  0.1707 -0.2762  0.1097
 8967TIP3    H126865   1.119   0.693   5.667 -1.2212  0.9732 -0.1872
 8967TIP3    H226866   1.066   0.557   5.629 -2.0514  0.8409  1.3584
 8968TIP3   OH226867   6.736  -0.006   1.140  0.0264  0.0406 -0.0969
 8968TIP3    H126868   6.748   0.007   1.046 -1.2100  1.2364 -0.1318
 8968TIP3    H226869   6.642   0.006   1.153 -0.1252 -2.0381  1.0240
 8969TIP3   OH226870   1.366   5.790   1.476 -0.1175  0.0660  0.3867
 8969TIP3    H126871   1.307   5.715   1.480 -0.0366 -0.0125  4.0369
 8969TIP3    H226872   1.379   5.814   1.568  0.8696  3.7910 -0.5767
 8970TIP3   OH226873   0.358   6.056   1.444  0.4261 -0.0009 -0.2005
 8970TIP3    H126874   0.440   6.100   1.467  0.0603  0.9660 -0.6813
 8970TIP3    H226875   0.362   6.046   1.349  0.0754 -0.1195 -0.2047
 8971TIP3   OH226876   4.249   3.357   1.644 -0.0332  0.2828  0.5151
 8971TIP3    H126877   4.181   3.308   1.690 -0.2721  0.4364  0.3352
 8971TIP3    H226878   4.200   3.427   1.599  0.2645  0.4950  0.5203
 8972TIP3   OH226879   4.297   0.715   4.695 -0.3901  0.1293  0.0669
 8972TIP3    H126880   4.246   0.640   4.725 -1.4324  0.1426 -1.5401
 8972TIP3    H226881   4.278   0.784   4.758 -0.2265 -0.6568  0.9891
 8973TIP3   OH226882   2.324   4.814   2.509 -0.0340 -0.3164 -0.2687
 8973TIP3    H126883   2.392   4.749   2.494  0.1015 -0.1749 -0.2730
 8973TIP3    H226884   2.326   4.870   2.431  1.6749  1.3182  0.8518
 8974TIP3   OH226885   2.663   5.030   5.517 -0.3897 -0.0417  0.4811
 8974TIP3    H126886   2.588   5.085   5.494 -1.8888 -2.0928  0.1560
 8974TIP3    H226887   2.680   4.978   5.438  0.3578 -0.7093  1.0671
 8975TIP3   OH226888   4.711   4.581   2.090 -0.3283  0.5754  0.3253
 8975TIP3    H126889   4.709   4.522   2.015 -1.3975  0.6183  0.3011
 8975TIP3    H226890   4.764   4.536   2.156 -1.2380 -0.4874  0.3600
 8976TIP3   OH226891   4.193   1.236   0.416  0.0374  0.2699 -0.8158
 8976TIP3    H126892   4.185   1.178   0.491  2.1518  1.0085  0.0663
 8976TIP3    H226893   4.251   1.190   0.356 -0.7605  0.1662 -1.5321
 8977TIP3   OH226894   6.881   5.035   0.416  0.4041 -0.3731  0.2026
 8977TIP3    H126895   6.882   4.940   0.407 -0.8121 -0.2542 -1.6833
 8977TIP3    H226896   6.967   5.063   0.385  1.0703 -0.8741  1.5165
 8978TIP3   OH226897   5.232   0.290   5.754  0.1381 -0.4794  0.7539
 8978TIP3    H126898   5.175   0.367   5.761  1.3941  0.4332  1.4893
 8978TIP3    H226899   5.231   0.252   5.842  0.5302 -0.5610  0.7225
 8979TIP3   OH226900   6.468   2.518   4.778 -0.2797  0.6532  0.2259
 8979TIP3    H126901   6.509   2.444   4.823 -3.0236 -1.6436 -0.7317
 8979TIP3    H226902   6.488   2.504   4.686  1.6603  2.9065  0.2131
 8980TIP3   OH226903   4.460   2.933   4.437 -0.2470 -0.5196  0.7336
 8980TIP3    H126904   4.455   3.028   4.452  2.3626 -0.3913  1.3387
 8980TIP3    H226905   4.495   2.925   4.348  2.1568 -0.7612  1.6221
 8981TIP3   OH226906   0.831   0.673   5.452 -0.4271 -0.8334  0.2177
 8981TIP3    H126907   0.902   0.679   5.516  0.2870  0.9933 -0.6905
 8981TIP3    H226908   0.875   0.684   5.368 -1.4806 -2.2637 -0.5534
 8982TIP3   OH226909   2.018   4.524   5.781  0.2495  0.4395  0.6351
 8982TIP3    H126910   1.993   4.517   5.873 -1.8493  1.0812  0.1697
 8982TIP3    H226911   2.062   4.442   5.761 -2.4560 -1.2986  1.3244
 8983TIP3   OH226912   0.808   6.209   0.308 -0.1330  0.2344 -0.0771
 8983TIP3    H126913   0.826   6.274   0.376 -0.8563 -0.2817  0.6205
 8983TIP3    H226914   0.732   6.243   0.262 -0.8865 -0.3979  0.6768
 8984TIP3   OH226915   4.094   3.442   4.601  0.0164 -0.3001  0.1376
 8984TIP3    H126916   4.185   3.427   4.574  0.3525 -0.0753  1.1260
 8984TIP3    H226917   4.074   3.368   4.658 -0.2005  0.0069  0.4584
 8985TIP3   OH226918   4.280   0.317   5.753 -0.4164  0.3404  0.0404
 8985TIP3    H126919   4.299   0.330   5.846  1.6996 -0.5350 -0.2103
 8985TIP3    H226920   4.362   0.338   5.708 -1.4053  0.7838 -1.6500
 8986TIP3   OH226921   3.847   0.797   0.490  0.7683  0.4230  0.5175
 8986TIP3    H126922   3.935   0.790   0.453 -0.0762  1.1474 -1.8151
 8986TIP3    H226923   3.842   0.887   0.523  0.5868  0.7498 -0.3577
 8987TIP3   OH226924   2.834   5.460   3.125  0.1968 -0.2308  0.1452
 8987TIP3    H126925   2.771   5.403   3.081 -0.4096  0.2771  0.3401
 8987TIP3    H226926   2.788   5.543   3.134  0.8023  0.0634  0.5424
 8988TIP3   OH226927   1.525   5.530   0.269  0.1804  0.1556 -0.7322
 8988TIP3    H126928   1.572   5.613   0.273 -0.0279  0.2445  0.1677
 8988TIP3    H226929   1.556   5.481   0.346 -1.5805  0.4493  0.2117
 8989TIP3   OH226930   6.360   2.856   5.196  0.0767  0.0785  0.3256
 8989TIP3    H126931   6.443   2.817   5.169 -0.0082  0.9320 -1.2429
 8989TIP3    H226932   6.294   2.791   5.172  0.0447  0.6344 -1.1628
 8990TIP3   OH226933   6.172   2.051   3.535 -0.1283  0.0550  0.3455
 8990TIP3    H126934   6.107   1.981   3.536 -1.4747  1.2300  1.3088
 8990TIP3    H226935   6.247   2.016   3.582 -0.7846 -0.7557  0.8122
 8991TIP3   OH226936   6.730   0.269   4.184  0.0784  0.0958 -0.7328
 8991TIP3    H126937   6.792   0.302   4.119 -1.6419  1.3281 -1.8502
 8991TIP3    H226938   6.706   0.346   4.235  1.3105 -0.8395  1.3542
 8992TIP3   OH226939   0.448   4.407   2.398 -0.4271 -0.2205  0.0532
 8992TIP3    H126940   0.543   4.410   2.384 -0.3745 -1.3610  0.0314
 8992TIP3    H226941   0.414   4.480   2.347  0.2306 -1.2762 -2.0529
 8993TIP3   OH226942   4.028   4.904   5.808 -0.0341  0.0695 -0.4261
 8993TIP3    H126943   3.979   4.833   5.849 -0.1388  0.1659 -0.3823
 8993TIP3    H226944   4.116   4.897   5.845 -0.8240  1.9046  2.0700
 8994TIP3   OH226945   3.113   2.027   2.636 -0.4366 -0.0647 -0.4029
 8994TIP3    H126946   3.161   2.044   2.717 -1.4887  0.2639  0.1757
 8994TIP3    H226947   3.179   1.992   2.576  0.6024  0.7416  0.2237
 8995TIP3   OH226948   0.720   5.044   0.433  0.2244  0.3015  0.5743
 8995TIP3    H126949   0.732   5.128   0.387 -0.7779  0.4303  0.5223
 8995TIP3    H226950   0.625   5.037   0.445  0.1844 -1.3474 -0.3906
 8996TIP3   OH226951   1.346   3.269   5.249 -0.1909 -0.2445 -0.1817
 8996TIP3    H126952   1.316   3.178   5.251 -1.0675  0.0317  0.2522
 8996TIP3    H226953   1.273   3.318   5.288  0.2537  0.6450 -0.4491
 8997TIP3   OH226954   1.160   3.936   0.853  0.3139 -0.0306  0.2111
 8997TIP3    H126955   1.214   4.004   0.814 -0.8487  1.6472  1.3647
 8997TIP3    H226956   1.188   3.855   0.810  2.5778  0.9733 -0.3545
 8998TIP3   OH226957   3.766   1.947   4.133 -0.2641 -0.4691  0.7523
 8998TIP3    H126958   3.702   2.010   4.101  0.6472  0.5229  0.8378
 8998TIP3    H226959   3.787   1.893   4.057 -0.6668 -0.3346  0.5456
 8999TIP3   OH226960   6.818   6.752   5.361 -0.0822  0.0952  0.1477
 8999TIP3    H126961   6.724   6.766   5.351 -0.3339 -1.5517 -0.0484
 8999TIP3    H226962   6.830   6.658   5.349  1.4055  0.0445  1.6886
 9000TIP3   OH226963   3.941   3.053   3.826  0.1792  0.4943  0.5178
 9000TIP3    H126964   4.008   2.985   3.814 -1.5085 -1.0764 -0.5427
 9000TIP3    H226965   3.859   3.005   3.829 -1.0206  2.4583  0.6090
 9001TIP3   OH226966   5.783   6.560   3.649  0.7667 -0.3175 -0.1053
 9001TIP3    H126967   5.772   6.533   3.740  2.2591  0.0248  0.2062
 9001TIP3    H226968   5.779   6.656   3.652 -0.9515 -0.3453 -0.6800
 9002TIP3   OH226969   0.159   2.941   5.159  0.1110  0.3562  0.1588
 9002TIP3    H126970   0.074   2.921   5.199 -0.8844  0.7374 -1.6586
 9002TIP3    H226971   0.148   3.028   5.122  2.0586  1.3923  1.7762
 9003TIP3   OH226972   4.582   5.418   4.774 -0.1735  0.0144  0.3983
 9003TIP3    H126973   4.598   5.511   4.756  1.1563 -0.1407  0.6763
 9003TIP3    H226974   4.571   5.378   4.688  1.1267  0.1279  0.1578
 9004TIP3   OH226975   5.507   5.880   3.658  0.3706 -0.7139  0.3002
 9004TIP3    H126976   5.502   5.953   3.720  2.5646 -1.1207  1.0426
 9004TIP3    H226977   5.598   5.852   3.661  0.3579 -1.3658 -2.4620
 9005TIP3   OH226978   3.726   3.686   2.839 -0.0680  0.4030 -0.3208
 9005TIP3    H126979   3.758   3.714   2.925 -2.7155 -0.3739  1.0547
 9005TIP3    H226980   3.675   3.761   2.807  0.3617  0.4426 -0.9331
 9006TIP3   OH226981   0.031   5.702   2.207 -0.8945 -0.0110  0.1597
 9006TIP3    H126982   0.057   5.791   2.228 -1.6702  0.0506  0.8958
 9006TIP3    H226983   0.043   5.653   2.288 -0.4636 -0.5896 -0.2383
 9007TIP3   OH226984   2.893   0.474   2.396  0.6226  0.2535 -0.3977
 9007TIP3    H126985   2.840   0.552   2.411 -1.8189 -1.2195 -0.8928
 9007TIP3    H226986   2.955   0.500   2.328  0.4160  1.9526  0.0073
 9008TIP3   OH226987   5.379   0.677   2.689 -0.3996 -0.5757 -0.7990
 9008TIP3    H126988   5.438   0.660   2.616 -0.4270 -0.4863 -0.8416
 9008TIP3    H226989   5.379   0.595   2.739  2.4570  0.4626  1.1639
 9009TIP3   OH226990   0.120   2.851   3.080 -0.2756 -0.1789  0.0492
 9009TIP3    H126991   0.106   2.882   2.990 -0.7400 -2.5564 -0.7910
 9009TIP3    H226992   0.177   2.775   3.069  0.0229 -0.2478  1.8480
 9010TIP3   OH226993   6.437   6.327   5.694 -1.0498 -0.2091 -0.3437
 9010TIP3    H126994   6.419   6.395   5.758  0.4900 -0.7871  0.7622
 9010TIP3    H226995   6.448   6.247   5.745 -1.5580 -1.0652 -1.5038
 9011TIP3   OH226996   2.738   5.665   2.215  0.0810  0.2028 -0.5433
 9011TIP3    H126997   2.778   5.751   2.203  0.7539  0.6773  3.6464
 9011TIP3    H226998   2.788   5.607   2.157  2.5664  1.9375 -0.2655
 9012TIP3   OH226999   2.569   3.628   1.085  0.3816 -0.3904  0.5898
 9012TIP3    H127000   2.661   3.610   1.070  1.0588  0.0998  3.5800
 9012TIP3    H227001   2.529   3.542   1.097  0.2147 -0.6560 -1.4672
 9013TIP3   OH227002   1.316   1.965   5.762  0.2037  0.0931  0.6341
 9013TIP3    H127003   1.398   1.921   5.782  0.7840  0.9739  0.2486
 9013TIP3    H227004   1.283   1.920   5.684 -0.0157 -0.6750  1.1547
 9014TIP3   OH227005   2.891   3.093   5.755  0.2464 -0.4226  0.0123
 9014TIP3    H127006   2.829   3.111   5.826 -0.3781  1.4590 -0.9356
 9014TIP3    H227007   2.976   3.089   5.797 -0.2674 -0.7221  1.0433
 9015TIP3   OH227008   4.017   1.155   4.073  0.0941 -0.2852 -0.9967
 9015TIP3    H127009   4.050   1.216   4.008 -1.4458 -1.2357 -2.7834
 9015TIP3    H227010   3.922   1.170   4.074 -0.2231 -2.0674 -0.9206
 9016TIP3   OH227011   0.459   5.413   3.986 -0.6329  0.2639  0.6241
 9016TIP3    H127012   0.474   5.342   4.049 -1.0084  0.0390  0.4688
 9016TIP3    H227013   0.498   5.490   4.027  1.6181 -0.4177 -0.1150
 9017TIP3   OH227014   2.455   2.320   1.373 -0.4792 -0.8927  0.0609
 9017TIP3    H127015   2.382   2.325   1.436  0.8585 -0.6686  1.6718
 9017TIP3    H227016   2.429   2.378   1.302 -1.1320  0.5255  1.4011
 9018TIP3   OH227017   3.117   0.055   4.932  0.1679  0.2400 -0.4917
 9018TIP3    H127018   3.158  -0.028   4.956 -1.4496 -0.2365  0.8103
 9018TIP3    H227019   3.176   0.122   4.966  1.2716 -0.3562 -1.1673
 9019TIP3   OH227020   0.375   6.781   4.489 -0.0302  0.2355  0.2888
 9019TIP3    H127021   0.428   6.808   4.564  0.3084  0.3382  0.0164
 9019TIP3    H227022   0.439   6.766   4.419 -0.4227  1.3012 -0.3273
 9020TIP3   OH227023   3.860   2.038   1.170 -0.1414 -0.0168  0.0727
 9020TIP3    H127024   3.771   2.073   1.178 -0.2030 -0.1515 -0.0361
 9020TIP3    H227025   3.899   2.090   1.100 -0.9121 -1.5713 -1.5983
 9021TIP3   OH227026   1.804   5.375   5.289 -0.0306  0.1133 -0.1143
 9021TIP3    H127027   1.734   5.437   5.312 -2.4319 -2.4801  0.1975
 9021TIP3    H227028   1.790   5.356   5.196  1.1676  0.5776 -0.4035
 9022TIP3   OH227029   2.207   4.189   4.488 -0.2999 -0.7807 -0.3536
 9022TIP3    H127030   2.223   4.238   4.408 -0.1502 -0.4341 -0.1125
 9022TIP3    H227031   2.197   4.255   4.556 -0.9554 -1.0494 -0.1705
 9023TIP3   OH227032   4.218   6.104   1.152 -0.0211 -0.0318 -0.1551
 9023TIP3    H127033   4.215   6.008   1.154  0.2410 -0.0314  0.9789
 9023TIP3    H227034   4.150   6.132   1.213  0.8218  0.4688  0.5855
 9024TIP3   OH227035   4.488   3.631   0.587  0.7682  0.6691 -0.8747
 9024TIP3    H127036   4.523   3.715   0.555  0.7112  0.7311 -0.7752
 9024TIP3    H227037   4.453   3.589   0.509 -0.5446  1.3871 -0.7068
 9025TIP3   OH227038   6.563   5.723   3.846 -0.2271 -0.4196  0.4384
 9025TIP3    H127039   6.639   5.781   3.838  0.3267 -1.1729  0.1361
 9025TIP3    H227040   6.491   5.782   3.866  0.2524  0.4269 -0.2078
 9026TIP3   OH227041   6.299   5.957   2.003 -0.2148  0.0672 -0.6189
 9026TIP3    H127042   6.261   5.907   2.075 -0.4247 -0.6713 -1.2233
 9026TIP3    H227043   6.243   6.034   1.995 -0.8347 -0.3808 -0.6806
 9027TIP3   OH227044   3.143   5.629   2.828  0.2574 -0.2255  0.0579
 9027TIP3    H127045   3.114   5.681   2.903 -0.4369 -2.0587  1.1286
 9027TIP3    H227046   3.140   5.690   2.754 -2.7312  0.6989  0.8093
 9028TIP3   OH227047   4.573   0.874   0.495 -0.0160 -0.3055  0.5171
 9028TIP3    H127048   4.572   0.801   0.433  0.2586 -1.0003  1.3248
 9028TIP3    H227049   4.489   0.867   0.541 -0.0377 -0.0373  0.5198
 9029TIP3   OH227050   6.797   1.896   2.057 -0.0497 -0.1418  0.1561
 9029TIP3    H127051   6.810   1.801   2.057 -0.6448 -0.2411 -0.5937
 9029TIP3    H227052   6.704   1.907   2.080  0.1116  0.2748  0.6159
 9030TIP3   OH227053   5.744   2.955   4.458  0.0991 -0.2455  0.0327
 9030TIP3    H127054   5.691   2.965   4.379  0.3420  0.9376 -0.0062
 9030TIP3    H227055   5.833   2.978   4.429  0.0401  1.0769  0.8250
 9031TIP3   OH227056   2.480   4.259   1.209 -0.1555 -0.1217  0.0915
 9031TIP3    H127057   2.507   4.348   1.233  0.0310 -0.1082 -0.1648
 9031TIP3    H227058   2.458   4.218   1.293 -2.7938  0.9808  0.0127
 9032TIP3   OH227059   6.638   1.824   0.606  0.1131  0.2633 -0.0388
 9032TIP3    H127060   6.570   1.869   0.657 -0.2304  0.8254 -0.9776
 9032TIP3    H227061   6.705   1.891   0.593  0.3283  0.0358 -0.0925
 9033TIP3   OH227062   3.489   3.961   0.627 -0.5155 -0.2542  0.2798
 9033TIP3    H127063   3.562   3.961   0.689 -0.2246 -1.4662 -0.0380
 9033TIP3    H227064   3.414   3.927   0.677  0.1034 -2.8243 -0.4003
 9034TIP3   OH227065   3.873   4.773   4.669 -0.3505 -0.4828 -0.0648
 9034TIP3    H127066   3.884   4.708   4.738  0.4604 -0.0395  0.2389
 9034TIP3    H227067   3.817   4.730   4.604 -1.3916 -0.8014  1.0016
 9035TIP3   OH227068   4.233   4.952   2.632 -0.3667 -0.0971  0.4306
 9035TIP3    H127069   4.247   4.859   2.649 -2.7494 -0.3434  1.4516
 9035TIP3    H227070   4.192   4.985   2.712 -0.0024  1.7425 -0.0909
 9036TIP3   OH227071   5.726   2.517   0.197  0.1245  0.0900 -0.0184
 9036TIP3    H127072   5.724   2.611   0.179 -0.3865 -0.0907 -1.0336
 9036TIP3    H227073   5.768   2.479   0.119  0.8887 -0.4712  0.6531
 9037TIP3   OH227074   2.900   2.325   0.850 -0.4308  0.2191  0.2427
 9037TIP3    H127075   2.957   2.392   0.812  1.4370  0.0423  2.4621
 9037TIP3    H227076   2.824   2.321   0.792 -0.1020  3.4575 -0.6078
 9038TIP3   OH227077   1.215   6.662   0.641  0.0603  0.5300 -0.2200
 9038TIP3    H127078   1.233   6.569   0.633 -0.7337  0.3010  0.5708
 9038TIP3    H227079   1.300   6.704   0.624  0.9837 -0.4362  1.6652
 9039TIP3   OH227080   4.449   2.693   0.111  0.4190 -0.0848  0.6552
 9039TIP3    H127081   4.425   2.781   0.082 -1.1104  0.4960  3.3406
 9039TIP3    H227082   4.452   2.642   0.031  1.4324  2.3839 -1.0145
 9040TIP3   OH227083   2.572   6.194   4.351 -0.2240 -0.0943 -0.2230
 9040TIP3    H127084   2.635   6.225   4.286 -0.6536 -1.6066 -1.4335
 9040TIP3    H227085   2.527   6.122   4.307 -2.0148  0.2078  1.0145
 9041TIP3   OH227086   0.468   5.898   0.640 -0.1923  0.1818 -0.6238
 9041TIP3    H127087   0.521   5.937   0.571  1.4326  1.6073  1.2925
 9041TIP3    H227088   0.475   5.959   0.713 -0.5872 -1.9497  1.3264
 9042TIP3   OH227089   3.545   2.177   1.794  0.4561  0.4564  0.3351
 9042TIP3    H127090   3.540   2.095   1.844 -0.1167  0.1078 -0.2676
 9042TIP3    H227091   3.539   2.149   1.702 -0.3795  1.2178  0.1409
 9043TIP3   OH227092   6.814   2.129   5.686 -0.1061  0.0266  0.1705
 9043TIP3    H127093   6.749   2.059   5.688  0.3327 -0.4665 -1.7143
 9043TIP3    H227094   6.899   2.084   5.691  0.2481  0.2209 -2.6921
 9044TIP3   OH227095   5.244   2.596   5.202  0.0878  0.3931  0.7845
 9044TIP3    H127096   5.176   2.531   5.219  0.7587 -0.2479  1.0564
 9044TIP3    H227097   5.308   2.582   5.272  0.5061  0.9781  0.5234
 9045TIP3   OH227098   0.007   1.828   3.753  0.0798 -0.2557 -0.7565
 9045TIP3    H127099   0.071   1.788   3.813  0.0151  0.0087 -0.5094
 9045TIP3    H227100  -0.007   1.916   3.788 -0.1174 -0.1727 -1.0419
 9046TIP3   OH227101   1.956   5.895   5.758  0.4510  0.2501  0.4478
 9046TIP3    H127102   1.990   5.811   5.725  0.9621  0.9601 -0.8833
 9046TIP3    H227103   1.862   5.880   5.767  0.4491 -0.2802 -0.3713
 9047TIP3   OH227104   4.259   4.224   2.167  0.0718 -0.1410 -0.5141
 9047TIP3    H127105   4.245   4.132   2.146  0.0092 -0.3925  0.5720
 9047TIP3    H227106   4.354   4.234   2.172  0.0988 -0.0181 -1.1182
 9048TIP3   OH227107   5.715   2.042   5.051  0.6300  0.2499  0.0959
 9048TIP3    H127108   5.757   1.976   4.996  0.0534  0.4611 -0.6054
 9048TIP3    H227109   5.725   2.124   5.003 -0.3265  0.3471  0.0558
 9049TIP3   OH227110   3.792   0.738   2.158 -0.3091 -0.1205 -0.2739
 9049TIP3    H127111   3.842   0.679   2.101 -1.1054 -0.2454 -0.8612
 9049TIP3    H227112   3.709   0.693   2.172 -0.1703 -0.0550  0.9343
 9050TIP3   OH227113   1.612   4.539   2.288 -0.3811  0.0374  0.7605
 9050TIP3    H127114   1.656   4.545   2.373 -0.3121 -0.6783  0.7830
 9050TIP3    H227115   1.564   4.457   2.292 -1.8902  0.8815  0.7980
 9051TIP3   OH227116   4.124   2.213   4.686  0.4513  0.3273  0.0435
 9051TIP3    H127117   4.067   2.192   4.759  1.2880 -1.3780  0.2754
 9051TIP3    H227118   4.134   2.308   4.689  0.3773  0.3155  2.0736
 9052TIP3   OH227119   1.864   4.527   4.248  0.1586 -0.0720  0.0528
 9052TIP3    H127120   1.865   4.468   4.172  1.7076 -1.6817  1.2395
 9052TIP3    H227121   1.948   4.512   4.290  0.4396  2.7813  0.6363
 9053TIP3   OH227122   6.206   2.337   0.332  0.0482  0.0058 -0.1363
 9053TIP3    H127123   6.114   2.365   0.329  0.0027 -0.2157 -1.2877
 9053TIP3    H227124   6.246   2.393   0.398 -1.3153 -1.1745  1.7975
 9054TIP3   OH227125   5.725   6.743   4.186  0.1518 -0.4642  0.6322
 9054TIP3    H127126   5.632   6.763   4.196  0.0232 -1.0539  0.6786
 9054TIP3    H227127   5.769   6.807   4.241 -0.3202 -1.1310  1.8388
 9055TIP3   OH227128   6.981   3.542   3.794 -0.3202  0.4505  0.1991
 9055TIP3    H127129   7.015   3.466   3.840 -0.5429  0.2464  0.0336
 9055TIP3    H227130   7.058   3.593   3.771 -0.0996 -0.1438 -0.4196
 9056TIP3   OH227131   7.224   4.243   3.667  0.4643  0.4118 -0.0114
 9056TIP3    H127132   7.187   4.223   3.581  0.5419 -0.3461  0.1279
 9056TIP3    H227133   7.173   4.190   3.728 -0.9055  2.3807  0.6750
 9057TIP3   OH227134   1.175   6.585   5.266 -0.1556  0.1432  0.1867
 9057TIP3    H127135   1.110   6.595   5.335  0.2921 -0.8547  0.7613
 9057TIP3    H227136   1.251   6.547   5.309  0.8084  1.2323 -0.4827
 9058TIP3   OH227137   5.887   2.134   1.619 -0.1955  0.0536  0.3817
 9058TIP3    H127138   5.947   2.088   1.678 -0.1161 -1.1130 -0.5757
 9058TIP3    H227139   5.860   2.068   1.556 -0.8237  1.1018 -0.4807
 9059TIP3   OH227140   6.612   3.481   5.538  0.4997  0.8580 -0.2943
 9059TIP3    H127141   6.688   3.426   5.516 -0.5944 -1.3630  1.1156
 9059TIP3    H227142   6.581   3.514   5.453  0.4304 -1.8682 -1.4422
 9060TIP3   OH227143   6.010   1.774   5.431  0.2798  0.0113 -0.0057
 9060TIP3    H127144   6.000   1.680   5.443 -0.3898 -0.0116 -0.6602
 9060TIP3    H227145   5.923   1.805   5.406  0.2011  0.9991  1.4004
 9061TIP3   OH227146   5.724   0.930   1.732  0.2985 -0.6012 -0.2394
 9061TIP3    H127147   5.752   0.887   1.813 -0.9041 -0.7053  0.1393
 9061TIP3    H227148   5.753   0.871   1.662 -2.5464 -2.8979  0.2970
 9062TIP3   OH227149   6.319   4.695   1.818 -0.2766  0.5355 -0.0495
 9062TIP3    H127150   6.246   4.747   1.784  0.1709  0.3728 -1.2964
 9062TIP3    H227151   6.397   4.740   1.787  0.1244 -0.7575 -1.0229
 9063TIP3   OH227152   5.255   2.284   4.663  0.4353 -0.1176  0.0452
 9063TIP3    H127153   5.312   2.328   4.601  1.0761 -0.6769  0.2175
 9063TIP3    H227154   5.197   2.352   4.696  1.5690  0.6570  0.4999
 9064TIP3   OH227155   6.006   4.419   3.319  0.4447  0.4249 -0.0661
 9064TIP3    H127156   6.066   4.494   3.322 -0.3406  1.0397  1.3709
 9064TIP3    H227157   6.050   4.355   3.264  1.8683  1.3165 -0.0144
 9065TIP3   OH227158   0.802   6.556   4.087  0.1578  0.0686 -0.3444
 9065TIP3    H127159   0.738   6.612   4.132 -0.5278  0.6594 -1.9701
 9065TIP3    H227160   0.834   6.610   4.015  2.5111 -0.2340  0.3888
 9066TIP3   OH227161   0.425   5.086   3.948 -0.0840 -0.4306  0.0119
 9066TIP3    H127162   0.430   5.165   4.002 -0.5721  0.8899 -1.7444
 9066TIP3    H227163   0.356   5.034   3.987 -1.1606  0.9896  0.0874
 9067TIP3   OH227164   1.597   5.945   4.377  0.1327  0.2871 -0.3113
 9067TIP3    H127165   1.643   6.014   4.425 -0.9672  0.5746  0.3826
 9067TIP3    H227166   1.531   5.992   4.325 -0.3674 -0.1999 -0.1286
 9068TIP3   OH227167   6.587   4.690   5.175 -0.0472  0.0189  0.4256
 9068TIP3    H127168   6.635   4.762   5.134  1.2429 -0.9331  0.2119
 9068TIP3    H227169   6.514   4.674   5.117  0.9231 -0.3216 -0.7340
 9069TIP3   OH227170   2.625   6.475   4.998  0.1747  0.3507 -0.5099
 9069TIP3    H127171   2.691   6.434   5.054 -0.2652 -2.7077 -2.0123
 9069TIP3    H227172   2.544   6.467   5.048  0.6460  3.3454  0.9675
 9070TIP3   OH227173   6.323   2.842   1.763 -0.5106 -0.4736  0.1135
 9070TIP3    H127174   6.354   2.932   1.757 -1.3707 -0.2548 -1.5286
 9070TIP3    H227175   6.326   2.822   1.857  0.7637  0.8512  0.3962
 9071TIP3   OH227176   5.909   1.548   0.365 -0.1196 -0.2745  0.0955
 9071TIP3    H127177   5.933   1.487   0.295 -1.0443 -0.9802  0.3694
 9071TIP3    H227178   5.813   1.546   0.366 -0.3029  2.5388 -1.0647
 9072TIP3   OH227179   5.294   2.116   1.043 -0.2530  0.1198 -0.0961
 9072TIP3    H127180   5.362   2.170   1.082  0.8883 -0.4607 -1.2010
 9072TIP3    H227181   5.215   2.139   1.090  0.4044  1.9498  0.1889
 9073TIP3   OH227182   0.433   4.549   2.054 -0.5108  0.0938 -0.4831
 9073TIP3    H127183   0.354   4.499   2.034  0.6106 -2.4370  0.9598
 9073TIP3    H227184   0.415   4.589   2.139 -0.1540 -0.7375 -0.0081
 9074TIP3   OH227185   0.652   3.281   0.911 -0.0423  0.4512  0.5990
 9074TIP3    H127186   0.560   3.263   0.930 -0.0227  0.5979  0.8361
 9074TIP3    H227187   0.651   3.359   0.857 -0.1921 -0.8032 -1.2984
 9075TIP3   OH227188   1.393   5.864   1.738 -0.0189  0.2216 -0.4608
 9075TIP3    H127189   1.421   5.953   1.716 -0.8562  0.2526 -1.4757
 9075TIP3    H227190   1.303   5.874   1.770  0.2161 -0.1630  0.3771
 9076TIP3   OH227191   2.845   2.351   4.242  0.1771 -0.0610  0.4585
 9076TIP3    H127192   2.828   2.437   4.281  0.5995  0.3423 -0.2151
 9076TIP3    H227193   2.903   2.307   4.304  1.3011  0.7879  0.0355
 9077TIP3   OH227194   4.955   0.092   5.049 -0.3850 -0.9611 -0.0496
 9077TIP3    H127195   4.897   0.126   5.118 -0.0028  0.6577 -0.4793
 9077TIP3    H227196   5.008   0.025   5.092  0.1553  0.3253  1.3720
 9078TIP3   OH227197   5.261   4.126   5.472 -0.0012 -0.1525  0.0738
 9078TIP3    H127198   5.209   4.070   5.530 -1.3738  1.6036  0.6494
 9078TIP3    H227199   5.199   4.154   5.404  0.5142  0.9732  0.0432
 9079TIP3   OH227200   6.384   0.696   1.291 -0.3130 -0.2428  0.5291
 9079TIP3    H127201   6.307   0.748   1.314 -1.9541 -2.0860 -0.5232
 9079TIP3    H227202   6.419   0.739   1.213 -0.5826  0.3150  0.7053
 9080TIP3   OH227203   2.949   5.908   2.408 -0.4435  0.3571 -0.0650
 9080TIP3    H127204   2.888   5.920   2.335  0.2416  0.7032 -0.5952
 9080TIP3    H227205   2.965   5.996   2.441  0.0537  0.3088 -0.1681
 9081TIP3   OH227206   2.476   5.464   5.289  0.2888  0.0185  0.0040
 9081TIP3    H127207   2.404   5.453   5.227 -0.6641  0.6311  0.9671
 9081TIP3    H227208   2.522   5.542   5.259  0.7931 -0.5870 -0.8295
 9082TIP3   OH227209   1.773   6.734   3.860  0.3534  0.0926  0.2576
 9082TIP3    H127210   1.841   6.784   3.905  0.3157  0.9237 -0.5850
 9082TIP3    H227211   1.738   6.675   3.927  1.4451  0.1165  0.8661
 9083TIP3   OH227212   0.287   0.590   0.357 -0.3983  0.1559  0.3020
 9083TIP3    H127213   0.265   0.683   0.364 -1.3991 -0.0638  0.1899
 9083TIP3    H227214   0.343   0.584   0.280 -1.1168  0.5401 -0.2621
 9084TIP3   OH227215   6.564   4.011   2.932  0.3974 -0.0204 -0.2757
 9084TIP3    H127216   6.532   4.089   2.887  1.3934  1.1643  0.9844
 9084TIP3    H227217   6.503   3.997   3.004 -1.6947 -2.4174 -2.3087
 9085TIP3   OH227218   0.156   3.431   3.753  0.2911 -0.1014  0.0733
 9085TIP3    H127219   0.159   3.485   3.831 -1.6239  0.1168  0.0593
 9085TIP3    H227220   0.161   3.341   3.785 -1.2464 -0.0440  0.5723
 9086TIP3   OH227221   3.123   2.550   0.450  0.0216  0.0763 -0.2796
 9086TIP3    H127222   3.204   2.523   0.406 -0.6192 -0.7847 -0.9810
 9086TIP3    H227223   3.151   2.611   0.518  1.2592 -0.2255 -0.5002
 9087TIP3   OH227224   2.913   0.698   5.814 -0.0718  0.5354 -0.3709
 9087TIP3    H127225   2.855   0.726   5.884  1.9810 -1.3219  2.2661
 9087TIP3    H227226   2.931   0.778   5.765  0.0837  2.4477  2.5659
 9088TIP3   OH227227   4.985   1.409   2.554 -0.6307 -0.1093 -0.3119
 9088TIP3    H127228   5.077   1.381   2.553 -0.6517 -0.2231 -1.7098
 9088TIP3    H227229   4.948   1.369   2.632  0.8609  1.1603  1.1241
 9089TIP3   OH227230   4.817   4.429   1.239  0.3589  0.4424 -0.0969
 9089TIP3    H127231   4.735   4.385   1.215 -0.0356  1.5692 -0.8955
 9089TIP3    H227232   4.885   4.366   1.214 -0.2368 -1.4766  2.6100
 9090TIP3   OH227233   6.629   3.172   4.964  0.0119 -0.1999  0.0761
 9090TIP3    H127234   6.554   3.173   4.904  0.0065 -0.0333  0.0849
 9090TIP3    H227235   6.693   3.230   4.923  1.2332 -2.3841 -1.3284
 9091TIP3   OH227236   6.950   5.676   4.173  0.8243 -0.1383  0.5686
 9091TIP3    H127237   6.862   5.712   4.180  1.1169  1.3672 -2.0028
 9091TIP3    H227238   7.000   5.721   4.241  0.5941  2.6510 -0.9508
 9092TIP3   OH227239   6.588   5.530   3.375 -0.3564 -1.0155 -0.0152
 9092TIP3    H127240   6.672   5.543   3.330 -0.6064 -2.2619 -0.9233
 9092TIP3    H227241   6.611   5.521   3.467  0.2837  0.6325  0.0155
 9093TIP3   OH227242   5.836   0.389   2.365 -0.6998  0.3979  0.3433
 9093TIP3    H127243   5.770   0.351   2.423 -0.4122 -0.9391 -0.1570
 9093TIP3    H227244   5.856   0.319   2.303  0.2296  1.2275 -0.3230
 9094TIP3   OH227245   3.514   3.910   1.089  0.4659  0.5865  0.1192
 9094TIP3    H127246   3.427   3.946   1.104 -0.0317  0.1714 -1.5297
 9094TIP3    H227247   3.560   3.921   1.172 -0.6859  2.1185  0.5925
 9095TIP3   OH227248   5.807   6.399   4.406 -0.0500  0.6555  0.2931
 9095TIP3    H127249   5.860   6.392   4.326  2.5605  0.1157  1.9286
 9095TIP3    H227250   5.718   6.414   4.375  0.7166 -0.2810 -2.7143
 9096TIP3   OH227251   3.639   3.632   2.069 -0.0978  0.3515  0.5197
 9096TIP3    H127252   3.544   3.637   2.083 -0.0261 -0.8630  1.7039
 9096TIP3    H227253   3.657   3.538   2.058  0.7315  0.7152 -1.8206
 9097TIP3   OH227254   3.731   6.222   4.082  0.0138  0.2822  0.1923
 9097TIP3    H127255   3.682   6.211   4.000 -0.0983 -0.8316  0.3898
 9097TIP3    H227256   3.810   6.270   4.057  0.7680 -1.4323 -0.8973
 9098TIP3   OH227257   6.288   1.484   2.191  0.1494  0.3690 -0.1184
 9098TIP3    H127258   6.344   1.409   2.171 -0.6337 -0.1335 -0.4786
 9098TIP3    H227259   6.236   1.496   2.112 -0.4377  0.6599  0.3091
 9099TIP3   OH227260   0.794   0.882   2.274 -0.2740 -0.5099 -0.2045
 9099TIP3    H127261   0.724   0.821   2.250 -1.3736  0.7384 -0.2754
 9099TIP3    H227262   0.749   0.957   2.312  1.0439  0.3041 -0.1791
 9100TIP3   OH227263   5.618   2.994   3.457 -0.5751  0.6622 -0.3942
 9100TIP3    H127264   5.696   2.944   3.436 -0.1149  1.7452 -1.3925
 9100TIP3    H227265   5.651   3.080   3.484 -1.4392  1.6234 -2.2541
 9101TIP3   OH227266   4.875   0.454   0.628 -1.0446 -0.0251 -0.2846
 9101TIP3    H127267   4.908   0.536   0.664 -0.0916  0.2044 -1.6378
 9101TIP3    H227268   4.866   0.397   0.705  2.0943  0.0345  0.2662
 9102TIP3   OH227269   6.751   6.649   2.225 -0.7876 -0.0133 -0.0696
 9102TIP3    H127270   6.657   6.663   2.234 -0.9609 -0.4048 -1.1250
 9102TIP3    H227271   6.791   6.720   2.274 -1.6369  0.3399  0.1236
 9103TIP3   OH227272   5.607   4.792   5.575  0.1702 -0.5251  1.2267
 9103TIP3    H127273   5.618   4.873   5.526 -3.4697 -0.1857  0.6512
 9103TIP3    H227274   5.693   4.752   5.576  1.0021  0.5926 -3.4193
 9104TIP3   OH227275   6.526   0.640   5.869  0.7284  0.1523  0.3559
 9104TIP3    H127276   6.439   0.676   5.855  0.0371 -1.6836 -0.4428
 9104TIP3    H227277   6.514   0.545   5.862  2.7338 -0.1639  0.5542
 9105TIP3   OH227278   2.829   2.727   1.850 -0.4485  0.5436  0.3328
 9105TIP3    H127279   2.798   2.806   1.806 -2.7340 -0.6138 -0.2758
 9105TIP3    H227280   2.898   2.693   1.792 -1.4817  0.5419 -0.9390
 9106TIP3   OH227281   2.071   4.178   0.509  0.2813 -0.2866 -0.0480
 9106TIP3    H127282   1.982   4.168   0.476 -0.0271 -1.0580  0.9746
 9106TIP3    H227283   2.059   4.199   0.602  1.1642 -1.1058  0.2636
 9107TIP3   OH227284   1.228   4.499   1.197  0.0792 -0.0390 -0.3042
 9107TIP3    H127285   1.186   4.467   1.277  1.6262 -1.4527 -0.0115
 9107TIP3    H227286   1.163   4.558   1.158 -0.5634  1.0261  2.1757
 9108TIP3   OH227287   2.057   1.780   1.664  0.7151 -0.3789  0.2279
 9108TIP3    H127288   2.105   1.854   1.627 -0.8327  0.5030 -0.1141
 9108TIP3    H227289   2.083   1.705   1.610  1.2342  0.1839 -0.3222
 9109TIP3   OH227290   5.359   1.092   1.911 -0.4074 -0.0720  0.5640
 9109TIP3    H127291   5.312   1.147   1.974 -1.0491  0.4560 -0.3418
 9109TIP3    H227292   5.306   1.013   1.905  0.1028 -0.4790  1.2953
 9110TIP3   OH227293   6.928   5.032   2.346  0.2116 -0.3815 -0.2463
 9110TIP3    H127294   6.899   5.122   2.334 -0.8925 -0.7316 -0.2964
 9110TIP3    H227295   6.988   5.036   2.420  0.7650  0.5056 -0.7279
 9111TIP3   OH227296   2.496   6.537   3.344 -0.0686 -0.1149  0.3134
 9111TIP3    H127297   2.409   6.538   3.384 -0.3932  0.2259 -0.3850
 9111TIP3    H227298   2.482   6.572   3.256  0.6844 -0.5520  0.0103
 9112TIP3   OH227299   6.715   6.552   5.680 -0.7883  0.0435  0.1824
 9112TIP3    H127300   6.654   6.614   5.721 -0.4085 -0.9918  2.4595
 9112TIP3    H227301   6.794   6.603   5.665 -1.4630  0.8433 -0.7553
 9113TIP3   OH227302   6.388   4.916   1.262 -0.0490  0.2283 -0.3374
 9113TIP3    H127303   6.329   4.880   1.196  1.0394  0.7091 -1.6177
 9113TIP3    H227304   6.346   4.997   1.291 -1.2565 -0.7208  0.6923
 9114TIP3   OH227305   1.295   5.952   3.602 -0.2095  0.3133 -0.2805
 9114TIP3    H127306   1.253   6.019   3.656  0.4203 -1.7071  3.0056
 9114TIP3    H227307   1.227   5.887   3.586  0.3993 -0.7502  1.1563
 9115TIP3   OH227308   5.285   2.646   3.472 -0.1815  0.8624 -0.4116
 9115TIP3    H127309   5.319   2.712   3.533 -1.8637  1.6570 -0.2755
 9115TIP3    H227310   5.298   2.684   3.386  1.1504  0.2293 -0.5288
 9116TIP3   OH227311   5.533   6.505   0.034 -0.1918  0.4261 -0.2012
 9116TIP3    H127312   5.491   6.563   0.098  0.5757 -0.1443  0.8690
 9116TIP3    H227313   5.619   6.544   0.018  0.4419 -0.5191  0.7426
 9117TIP3   OH227314   6.796   6.537   4.404 -0.6471  0.1989 -0.4147
 9117TIP3    H127315   6.760   6.470   4.347 -1.1403  0.3244 -0.2560
 9117TIP3    H227316   6.840   6.489   4.473 -0.2926  0.0445 -0.7469
 9118TIP3   OH227317   3.625   6.507   3.957 -0.3193  0.0079  0.4612
 9118TIP3    H127318   3.567   6.487   4.031  0.4949  0.1064  1.1406
 9118TIP3    H227319   3.692   6.563   3.994  1.2536 -1.5723  0.1248
 9119TIP3   OH227320   5.554   3.990   5.580 -0.0386  0.1363  0.4456
 9119TIP3    H127321   5.556   3.914   5.522  0.3478 -1.4240  2.3951
 9119TIP3    H227322   5.473   4.035   5.558 -0.9867 -1.6277  0.1885
 9120TIP3   OH227323   1.706   4.071   3.629  0.6266  0.3702 -0.2321
 9120TIP3    H127324   1.767   4.108   3.692 -0.1951 -1.2833  1.6193
 9120TIP3    H227325   1.630   4.130   3.631  0.2318 -0.1551  1.0380
 9121TIP3   OH227326   4.904   4.585   4.256 -0.0490 -0.1856 -0.0278
 9121TIP3    H127327   4.935   4.537   4.179  0.9388  0.9371 -0.3621
 9121TIP3    H227328   4.931   4.531   4.330  3.2686  0.8760 -0.2546
 9122TIP3   OH227329   4.958   6.079   3.533 -0.3904 -0.4467  0.5840
 9122TIP3    H127330   4.883   6.107   3.584 -0.8231  0.6149 -0.5905
 9122TIP3    H227331   4.932   6.093   3.442 -0.0196 -3.1656 -0.0432
 9123TIP3   OH227332   3.981   3.127   3.527 -0.5897 -0.2858  0.4414
 9123TIP3    H127333   3.935   3.204   3.492 -2.6941 -1.3893  0.6051
 9123TIP3    H227334   3.987   3.143   3.621  0.6932  0.4796  0.2634
 9124TIP3   OH227335   6.956   0.940   3.744  0.1225 -0.1075  0.4698
 9124TIP3    H127336   6.946   0.851   3.710 -1.2311  0.2437 -0.1221
 9124TIP3    H227337   6.982   0.992   3.668  2.3716 -0.2031  1.0998
 9125TIP3   OH227338   5.800   3.691   1.688 -0.3922 -0.2362 -0.2074
 9125TIP3    H127339   5.849   3.753   1.635  0.8941 -0.8513  0.2107
 9125TIP3    H227340   5.714   3.687   1.647 -0.0820  0.8384 -1.0058
 9126TIP3   OH227341   4.746   2.434   2.874 -0.1654  0.7398 -0.1158
 9126TIP3    H127342   4.737   2.522   2.837 -0.7175  1.6243  2.0139
 9126TIP3    H227343   4.828   2.438   2.924 -0.2355  0.0530  0.0596
 9127TIP3   OH227344   2.843   3.910   3.828  0.5678 -0.3949  0.2266
 9127TIP3    H127345   2.839   3.816   3.808  0.2598 -0.2992 -0.1779
 9127TIP3    H227346   2.852   3.913   3.924  0.2560 -0.8364  0.2770
 9128TIP3   OH227347   4.115   2.137   2.760 -0.5033 -0.2682  0.7108
 9128TIP3    H127348   4.156   2.089   2.688 -3.4718  1.4688 -2.4911
 9128TIP3    H227349   4.172   2.213   2.773  0.1792 -0.7078  0.3499
 9129TIP3   OH227350   4.743   6.685   0.444  0.0722 -0.3103 -0.3470
 9129TIP3    H127351   4.701   6.769   0.424  1.9291  0.2866 -2.1171
 9129TIP3    H227352   4.777   6.696   0.533 -1.0862  0.1774  0.0591
 9130TIP3   OH227353   5.451   0.035   2.528  0.0997 -0.1359 -0.3657
 9130TIP3    H127354   5.361   0.005   2.539 -0.4004  1.4206  0.0991
 9130TIP3    H227355   5.498  -0.002   2.603 -0.4646  0.1206  0.1237
 9131TIP3   OH227356   3.222   4.530   2.666 -0.3313 -0.4827 -0.5225
 9131TIP3    H127357   3.260   4.549   2.752  0.2614 -0.2704 -0.8239
 9131TIP3    H227358   3.136   4.573   2.668 -0.8194 -1.4706  0.3808
 9132TIP3   OH227359   5.714   0.450   1.479  0.4230  0.1834  0.1845
 9132TIP3    H127360   5.656   0.517   1.443 -2.5367 -1.7690  0.9862
 9132TIP3    H227361   5.751   0.407   1.402 -1.6376 -0.4693 -0.5064
 9133TIP3   OH227362   0.386   2.807   5.744 -0.3430 -0.1392  0.0542
 9133TIP3    H127363   0.345   2.770   5.666  0.5432 -0.9344 -0.0459
 9133TIP3    H227364   0.313   2.824   5.803 -1.0237  0.4256 -0.9189
 9134TIP3   OH227365   5.078   5.721   4.840  0.0139  0.6538 -0.2843
 9134TIP3    H127366   5.073   5.793   4.776 -0.4154  1.3304  0.4961
 9134TIP3    H227367   5.164   5.730   4.880  0.3162  0.1794 -0.8058
 9135TIP3   OH227368   1.688   1.414   5.026  0.3323  0.0695  0.3449
 9135TIP3    H127369   1.622   1.390   5.091  0.5822  0.4531  0.7533
 9135TIP3    H227370   1.638   1.451   4.953  0.0825  0.1156  0.5386
 9136TIP3   OH227371   0.936   6.329   1.931 -0.0090  0.4156  0.1644
 9136TIP3    H127372   0.859   6.302   1.881 -0.8320  0.3108  1.4258
 9136TIP3    H227373   0.997   6.363   1.866 -1.3377  0.9934 -0.8324
 9137TIP3   OH227374   0.581   5.807   2.411  0.0301  0.9555 -0.1428
 9137TIP3    H127375   0.597   5.851   2.328  1.3459  1.8395  0.5377
 9137TIP3    H227376   0.503   5.850   2.447  0.4608  1.7436 -0.1468
 9138TIP3   OH227377   1.908   3.308   0.332 -0.3751  1.0223  0.3677
 9138TIP3    H127378   1.870   3.370   0.394 -2.1630 -0.2822  0.6663
 9138TIP3    H227379   1.988   3.277   0.375 -0.5491  1.5896  1.1226
 9139TIP3   OH227380   2.108   4.125   2.187 -0.1485 -0.1992  0.9129
 9139TIP3    H127381   2.075   4.099   2.101  0.2397 -0.3535  0.8073
 9139TIP3    H227382   2.076   4.058   2.247  0.3965 -0.6291  0.7293
 9140TIP3   OH227383   0.733   5.648   5.844 -0.0245 -0.5804 -0.2325
 9140TIP3    H127384   0.782   5.661   5.764  0.0130  1.1664  0.0404
 9140TIP3    H227385   0.800   5.633   5.911  0.3802  2.9789  0.3726
 9141TIP3   OH227386   4.059   1.074   5.010  0.1985 -0.6565 -0.3495
 9141TIP3    H127387   4.082   1.146   4.952  2.4018 -0.5825  0.4988
 9141TIP3    H227388   4.048   1.114   5.096  0.2087 -1.1487 -0.1134
 9142TIP3   OH227389   0.282   0.543   4.058 -0.1502  0.2633  0.5693
 9142TIP3    H127390   0.334   0.539   4.138  0.8181  0.8923 -0.0156
 9142TIP3    H227391   0.215   0.476   4.070  1.8250 -1.8165  0.6167
 9143TIP3   OH227392   0.518   5.818   5.171 -0.0503  0.6217  0.1574
 9143TIP3    H127393   0.429   5.807   5.205  0.4175  1.7639  1.8750
 9143TIP3    H227394   0.526   5.751   5.103 -2.2810  0.6288 -0.1783
 9144TIP3   OH227395   0.868   2.550   0.533  0.2980 -0.1005  0.6892
 9144TIP3    H127396   0.791   2.604   0.551  0.7023  0.2229  1.4912
 9144TIP3    H227397   0.887   2.508   0.616 -0.5703 -2.2482 -0.1333
 9145TIP3   OH227398   5.024   6.821   2.440 -0.3399  0.2181  0.1069
 9145TIP3    H127399   5.117   6.813   2.419 -0.1097  0.5402  0.9860
 9145TIP3    H227400   4.985   6.743   2.401  0.2790  0.1231 -0.3500
 9146TIP3   OH227401   5.809   6.787   0.164 -0.6887 -0.0342  0.0886
 9146TIP3    H127402   5.891   6.751   0.130  0.5587  1.4876  1.3350
 9146TIP3    H227403   5.763   6.819   0.086 -0.4678 -1.5219 -0.7068
 9147TIP3   OH227404   6.366   4.503   1.522 -0.0795 -0.3555 -0.6596
 9147TIP3    H127405   6.374   4.589   1.563  2.8565 -0.7045 -0.2962
 9147TIP3    H227406   6.289   4.511   1.467  0.4106  2.7240 -1.1171
 9148TIP3   OH227407   1.772   1.446   1.769  0.0677 -0.5411 -0.1374
 9148TIP3    H127408   1.714   1.510   1.810  0.8776 -0.0605  0.2732
 9148TIP3    H227409   1.860   1.476   1.789  0.4747 -1.1074 -1.0035
 9149TIP3   OH227410   4.557   3.200   2.991 -0.2461 -0.2583  0.3168
 9149TIP3    H127411   4.637   3.247   3.016  0.0160 -0.7917  0.5071
 9149TIP3    H227412   4.486   3.258   3.018  0.0741  0.1321  0.3361
 9150TIP3   OH227413   2.936   1.742   3.198  0.3802  0.9297  0.4906
 9150TIP3    H127414   2.875   1.702   3.136 -0.2500  0.3916  1.4259
 9150TIP3    H227415   2.984   1.806   3.147  1.3966 -0.9760 -1.0889
 9151TIP3   OH227416   1.261   1.972   5.436  0.6468 -0.1643 -0.0605
 9151TIP3    H127417   1.217   1.991   5.353  0.1080 -0.8281  0.0667
 9151TIP3    H227418   1.326   2.042   5.445 -1.1676  1.5768  0.3339
 9152TIP3   OH227419   4.618   1.691   5.711 -0.0828 -0.2185  0.2462
 9152TIP3    H127420   4.627   1.605   5.752  0.0670 -0.4919 -0.3369
 9152TIP3    H227421   4.652   1.753   5.774 -1.2091 -0.4679  1.1365
 9153TIP3   OH227422   5.471   5.675   3.307 -0.3022  0.0955 -0.5937
 9153TIP3    H127423   5.482   5.769   3.290 -1.3754  0.1004 -1.3728
 9153TIP3    H227424   5.417   5.671   3.386  0.0115  0.1295 -0.3773
 9154TIP3   OH227425   3.083   5.672   5.009  0.4896 -0.0380 -0.1201
 9154TIP3    H127426   3.087   5.761   4.976  0.1745  0.0451  0.0673
 9154TIP3    H227427   2.991   5.647   5.002  0.2349  0.2889  1.4779
 9155TIP3   OH227428   2.805   4.979   2.049 -0.3666 -0.7725  0.3571
 9155TIP3    H127429   2.742   4.963   1.979  0.3065  0.5590 -0.5851
 9155TIP3    H227430   2.805   5.074   2.060 -0.9590 -0.9616  2.6654
 9156TIP3   OH227431   2.100   5.150   0.097  0.5812 -0.0332 -0.3292
 9156TIP3    H127432   2.113   5.224   0.155  0.1747  0.0366 -0.3198
 9156TIP3    H227433   2.182   5.142   0.048  0.7567  0.1905 -0.0708
 9157TIP3   OH227434   3.673   1.779   2.824 -0.3027 -0.6383  0.3247
 9157TIP3    H127435   3.594   1.731   2.798  0.3734 -1.1043 -0.9443
 9157TIP3    H227436   3.708   1.814   2.742  0.0974  0.6919  1.0310
 9158TIP3   OH227437   4.923   3.461   5.848  0.2586 -0.1679  0.1261
 9158TIP3    H127438   4.829   3.440   5.851 -0.0042  0.9116  3.2469
 9158TIP3    H227439   4.928   3.542   5.797 -0.6834  0.3710  0.8590
 9159TIP3   OH227440   5.936   4.364   3.580 -0.0431  0.1584  0.3874
 9159TIP3    H127441   6.003   4.315   3.628 -0.3059 -0.5836  0.0119
 9159TIP3    H227442   5.979   4.389   3.498 -0.7834 -1.9920 -0.7165
 9160TIP3   OH227443   6.178   3.057   5.347  0.0737 -0.1282  0.4014
 9160TIP3    H127444   6.189   3.133   5.291  0.0988  0.5102  1.2570
 9160TIP3    H227445   6.226   2.987   5.303 -0.4280  0.1924 -0.6841
 9161TIP3   OH227446   4.737   5.325   4.971  0.5396 -0.4272  0.3902
 9161TIP3    H127447   4.735   5.371   5.055 -0.6931 -0.5691  0.4594
 9161TIP3    H227448   4.681   5.377   4.913 -1.4427 -2.1139  0.6622
 9162TIP3   OH227449   2.797   3.502   2.713  0.2335  0.2761 -0.5590
 9162TIP3    H127450   2.892   3.508   2.728  0.1959  2.2056 -0.7509
 9162TIP3    H227451   2.759   3.546   2.789 -0.6931 -2.5693  0.7610
 9163TIP3   OH227452   2.801   5.948   4.435 -0.2421  0.1802 -0.2330
 9163TIP3    H127453   2.797   6.023   4.375 -0.6972  2.0610  1.9971
 9163TIP3    H227454   2.790   5.987   4.522 -0.0333 -2.4649  1.0606
 9164TIP3   OH227455   3.762   2.523   3.656 -0.0839  0.1510 -0.3553
 9164TIP3    H127456   3.749   2.509   3.562 -0.3498 -1.0460 -0.1587
 9164TIP3    H227457   3.698   2.591   3.679 -0.9621 -0.5089 -0.7951
 9165TIP3   OH227458   4.927   1.439   0.388  0.0223 -0.0145  0.5024
 9165TIP3    H127459   4.848   1.385   0.396 -0.4539  0.6317  0.1704
 9165TIP3    H227460   4.915   1.488   0.307 -1.2637  3.3580  2.5577
 9166TIP3   OH227461   3.163   3.249   1.591  0.0382 -0.6669 -0.2243
 9166TIP3    H127462   3.130   3.337   1.610  0.6044 -0.3634 -0.6398
 9166TIP3    H227463   3.129   3.195   1.663  1.4987  0.3173  1.2994
 9167TIP3   OH227464   5.172   1.465   0.001  0.2865  0.2079 -0.5175
 9167TIP3    H127465   5.214   1.483   0.085  1.4258 -1.9338 -0.5507
 9167TIP3    H227466   5.100   1.529  -0.004  0.0393  0.2786  2.1691
 9168TIP3   OH227467   5.762   5.457   4.155  0.0113 -0.4357  0.2255
 9168TIP3    H127468   5.691   5.449   4.219  1.1434 -2.6373  1.3410
 9168TIP3    H227469   5.739   5.396   4.085 -0.1784  0.3847 -0.4412
 9169TIP3   OH227470   2.540   4.771   1.693  0.0523 -0.2236 -0.2760
 9169TIP3    H127471   2.589   4.813   1.623  0.5935 -0.7898 -0.2420
 9169TIP3    H227472   2.586   4.688   1.709 -1.5362 -1.2980 -1.0094
 9170TIP3   OH227473   6.103   5.327   0.377 -0.1998  0.3095  0.1963
 9170TIP3    H127474   6.059   5.251   0.340 -0.4889 -0.0109  1.1881
 9170TIP3    H227475   6.034   5.377   0.420  0.3180  0.0331  1.3726
 9171TIP3   OH227476   5.936   5.223   2.897  0.0634  0.4845  0.2981
 9171TIP3    H127477   5.984   5.305   2.885  0.8926  0.1319  1.0496
 9171TIP3    H227478   5.989   5.158   2.851 -0.5892  0.3713 -0.2908
 9172TIP3   OH227479   7.003   2.174   5.256 -0.0513  0.1641  0.2113
 9172TIP3    H127480   6.989   2.156   5.163  3.4345  1.9098 -0.8187
 9172TIP3    H227481   7.021   2.088   5.295 -0.3068 -0.4424 -0.9572
 9173TIP3   OH227482   5.279   0.265   2.610 -0.3240  0.1141 -0.6578
 9173TIP3    H127483   5.333   0.302   2.680 -0.0342 -1.1064 -0.2116
 9173TIP3    H227484   5.340   0.218   2.554 -0.6672  0.3878 -1.2751
 9174TIP3   OH227485   4.658   5.830   1.447  0.7941  0.0036 -0.1544
 9174TIP3    H127486   4.750   5.853   1.463  1.0607 -0.4775 -0.9312
 9174TIP3    H227487   4.621   5.907   1.404  1.4908 -0.6547 -2.0743
 9175TIP3   OH227488   3.587   1.577   1.845 -0.5156 -0.2465  0.2783
 9175TIP3    H127489   3.563   1.484   1.837 -0.3120 -0.2372 -0.5369
 9175TIP3    H227490   3.505   1.624   1.829 -0.1857 -0.2397 -1.5377
 9176TIP3   OH227491   1.138   6.296   1.153  0.1230  0.2967 -0.1806
 9176TIP3    H127492   1.230   6.287   1.126 -0.5128 -1.2481 -2.0893
 9176TIP3    H227493   1.096   6.217   1.119 -1.5802  0.0852  2.2347
 9177TIP3   OH227494   4.731   2.609   1.235 -0.5118 -0.4817 -0.0283
 9177TIP3    H127495   4.671   2.667   1.281 -2.5656  0.3247 -3.4060
 9177TIP3    H227496   4.693   2.522   1.246 -2.7643  0.0698 -2.5087
 9178TIP3   OH227497   0.934   1.948   5.734  0.4594 -0.6046 -0.3790
 9178TIP3    H127498   0.932   1.899   5.816 -2.6285 -0.8099 -0.4674
 9178TIP3    H227499   0.950   2.038   5.760 -0.5228 -0.6587  0.4726
 9179TIP3   OH227500   5.831   2.514   0.737 -0.0980  0.6440  0.3281
 9179TIP3    H127501   5.905   2.527   0.678 -0.5989  0.7641 -0.2720
 9179TIP3    H227502   5.786   2.436   0.704 -0.8933  1.2275  0.0055
 9180TIP3   OH227503   1.759   6.015   2.131  0.1300  0.4603  0.0125
 9180TIP3    H127504   1.825   6.034   2.064 -0.9724  1.4942 -0.8363
 9180TIP3    H227505   1.780   5.926   2.161  2.0590  0.8603  0.0010
 9181TIP3   OH227506   0.865   0.930   3.100 -0.0296 -0.0867 -0.6540
 9181TIP3    H127507   0.814   0.903   3.024 -0.0212 -1.2954 -0.2387
 9181TIP3    H227508   0.814   0.901   3.175  1.1827 -1.2157 -0.2244
 9182TIP3   OH227509   1.778   0.571   2.322  0.3259 -0.0717  0.2473
 9182TIP3    H127510   1.844   0.634   2.295  0.0896  0.1636  0.2216
 9182TIP3    H227511   1.695   0.606   2.289  0.2780 -0.7360 -0.3634
 9183TIP3   OH227512   4.424   1.039   0.824 -0.3344 -0.1189 -0.5229
 9183TIP3    H127513   4.433   0.944   0.819 -0.7029 -0.1355 -0.8991
 9183TIP3    H227514   4.331   1.054   0.840 -0.0946  0.1404  0.7658
 9184TIP3   OH227515   1.210   1.753   3.628  0.5307  0.0241 -0.2269
 9184TIP3    H127516   1.205   1.672   3.680 -0.7531 -0.3714 -0.9346
 9184TIP3    H227517   1.230   1.821   3.693  3.0545 -1.0025  0.2048
 9185TIP3   OH227518   7.166   5.823   5.852 -0.0262  0.2597 -0.0775
 9185TIP3    H127519   7.231   5.888   5.824 -1.2121  2.0950  1.2000
 9185TIP3    H227520   7.183   5.810   5.945  1.6601 -3.1360 -0.7139
 9186TIP3   OH227521   3.076   0.829   2.741  0.8072 -0.0832 -0.1809
 9186TIP3    H127522   3.170   0.814   2.732  0.8571  0.2361 -0.2282
 9186TIP3    H227523   3.045   0.842   2.651  0.3897 -1.9895 -0.3400
 9187TIP3   OH227524   1.736   4.592   2.047  0.7702  0.0769 -0.6038
 9187TIP3    H127525   1.830   4.576   2.040  0.5542 -1.2030 -0.8699
 9187TIP3    H227526   1.715   4.575   2.139  0.5851 -0.9580 -0.8293
 9188TIP3   OH227527   1.607   1.906   5.704 -0.0478 -0.2651  0.3914
 9188TIP3    H127528   1.601   1.981   5.645 -0.2445 -1.4041 -1.0768
 9188TIP3    H227529   1.686   1.860   5.676 -0.5129 -1.1951  0.5755
 9189TIP3   OH227530   2.421   1.769   5.522  0.5996 -0.4491  0.0223
 9189TIP3    H127531   2.449   1.854   5.488  1.6945 -0.5687  0.5824
 9189TIP3    H227532   2.407   1.716   5.444  1.9205 -0.3656 -0.2900
 9190TIP3   OH227533   6.613   0.546   5.473  0.2196  0.2833 -0.3689
 9190TIP3    H127534   6.540   0.485   5.482 -0.1918  0.9927  1.6336
 9190TIP3    H227535   6.581   0.627   5.514  2.2433  0.4767  0.9558
 9191TIP3   OH227536   3.100   6.680   5.535  0.3049  0.6141 -0.6934
 9191TIP3    H127537   3.145   6.598   5.557 -1.0739  0.4980  2.0992
 9191TIP3    H227538   3.168   6.736   5.499  1.9242 -0.7014  0.1848
 9192TIP3   OH227539   5.895   3.943   5.156  0.0920 -0.3545  0.0026
 9192TIP3    H127540   5.949   4.019   5.177  0.7534 -1.3023  2.0925
 9192TIP3    H227541   5.805   3.972   5.171  0.2873  0.2274  0.0744
 9193TIP3   OH227542   5.807   2.684   5.456 -0.3686  0.1069 -0.0680
 9193TIP3    H127543   5.830   2.776   5.441 -2.5168  0.5438 -1.0708
 9193TIP3    H227544   5.891   2.638   5.455  0.6831  1.9340 -0.4570
 9194TIP3   OH227545   3.498   3.345   5.413  0.0714 -0.1563  0.4882
 9194TIP3    H127546   3.466   3.408   5.477  0.1350 -0.5382  0.8988
 9194TIP3    H227547   3.576   3.306   5.454 -0.3171 -0.9403  0.5053
 9195TIP3   OH227548   4.120   5.898   0.972  0.0091 -0.2315 -0.0750
 9195TIP3    H127549   4.159   5.984   0.960  1.4436 -0.7743  0.5297
 9195TIP3    H227550   4.025   5.914   0.971  0.2358  1.1798 -1.0611
 9196TIP3   OH227551   4.891   1.797   3.514  0.7180 -0.3778  0.0500
 9196TIP3    H127552   4.898   1.775   3.607  0.4980 -1.3488 -0.1596
 9196TIP3    H227553   4.799   1.822   3.502  0.7199 -0.3654  0.0625
 9197TIP3   OH227554   3.291   3.204   2.818 -0.8547  0.2604 -0.1199
 9197TIP3    H127555   3.202   3.181   2.789 -1.4850  1.7498  0.5047
 9197TIP3    H227556   3.304   3.154   2.899 -0.9442 -0.3025 -0.4502
 9198TIP3   OH227557   2.142   6.750   1.485  0.5887  0.2002  0.1264
 9198TIP3    H127558   2.197   6.726   1.410 -0.0210  0.4344 -0.3984
 9198TIP3    H227559   2.089   6.673   1.502  0.8388  0.0890  0.4334
 9199TIP3   OH227560   4.801   1.982   2.680 -0.5397 -0.6151  0.7832
 9199TIP3    H127561   4.838   1.901   2.644  1.7010 -0.0107  1.5882
 9199TIP3    H227562   4.710   1.981   2.650 -0.1304 -2.5897 -0.6429
 9200TIP3   OH227563   3.685   6.814   4.583 -0.3254  0.1063 -0.0632
 9200TIP3    H127564   3.633   6.741   4.618  0.0819 -0.1846 -0.0611
 9200TIP3    H227565   3.771   6.776   4.565 -0.3955  0.3625 -0.9704
 9201TIP3   OH227566   0.253   4.369   5.813 -0.6434  0.1657  0.3884
 9201TIP3    H127567   0.328   4.312   5.794  1.1039  2.8325 -1.3830
 9201TIP3    H227568   0.180   4.327   5.768  0.4751 -0.8929 -0.5311
 9202TIP3   OH227569   2.553   2.933   1.567  0.3778 -0.5911  0.1467
 9202TIP3    H127570   2.606   2.881   1.506 -2.1291 -1.3485 -1.5699
 9202TIP3    H227571   2.499   2.988   1.510  3.0369  4.3289  1.8445
 9203TIP3   OH227572   0.157   5.606   4.546 -0.4660  0.1479 -0.0521
 9203TIP3    H127573   0.157   5.617   4.451 -1.2956 -1.4581 -0.2657
 9203TIP3    H227574   0.134   5.515   4.560 -0.4882  0.3856  1.7146
 9204TIP3   OH227575   2.255   4.390   5.243  0.0968  0.6213 -0.2049
 9204TIP3    H127576   2.257   4.471   5.295  0.0529  0.3853  0.1740
 9204TIP3    H227577   2.204   4.330   5.297 -0.7665  0.6593 -0.9563
 9205TIP3   OH227578   0.204   2.821   0.645  0.9189 -0.1911  0.6516
 9205TIP3    H127579   0.136   2.858   0.701  0.8986 -0.5751  0.8809
 9205TIP3    H227580   0.283   2.821   0.700  0.5011 -2.2978  1.3543
 9206TIP3   OH227581   0.984   6.376   5.703 -0.5322  0.1627 -0.1422
 9206TIP3    H127582   0.963   6.311   5.770  0.6946  0.5125  0.6136
 9206TIP3    H227583   0.903   6.387   5.653 -1.3394 -0.4244  1.0085
 9207TIP3   OH227584   1.936   4.053   0.147  0.1292 -0.1970  0.1364
 9207TIP3    H127585   1.889   4.056   0.063 -0.2304  0.6282  0.3549
 9207TIP3    H227586   1.951   3.960   0.162  0.9879 -0.3244 -1.2748
 9208TIP3   OH227587   3.067   3.225   1.314  0.1804  0.5360 -0.0910
 9208TIP3    H127588   3.142   3.264   1.269  1.2666  0.3411  1.4950
 9208TIP3    H227589   3.101   3.197   1.398 -1.0887 -1.8430 -0.2844
 9209TIP3   OH227590   4.205   6.361   0.573 -0.6356 -0.3531 -0.2438
 9209TIP3    H127591   4.152   6.440   0.559  0.0397  0.1499 -0.0391
 9209TIP3    H227592   4.257   6.353   0.493 -0.1411 -0.1353  0.0492
 9210TIP3   OH227593   2.562   2.020   1.527  0.1085 -0.0688  0.0661
 9210TIP3    H127594   2.555   2.099   1.581  0.1219  0.1349 -0.2311
 9210TIP3    H227595   2.636   1.973   1.564 -0.6193 -0.5282  1.0044
 9211TIP3   OH227596   5.799   4.933   2.994  0.5957 -0.2952  0.0695
 9211TIP3    H127597   5.868   4.870   2.976  0.2777 -0.8652  0.7669
 9211TIP3    H227598   5.844   5.008   3.032  0.9381 -0.2459 -0.4288
 9212TIP3   OH227599   1.939   0.981   4.394 -0.2698  0.1100 -0.0428
 9212TIP3    H127600   1.866   0.955   4.449  0.8210 -2.3128  0.3905
 9212TIP3    H227601   1.998   1.028   4.452 -0.7707  0.7505 -0.0421
 9213TIP3   OH227602   0.601   2.565   1.163  0.0597 -0.5598  0.3924
 9213TIP3    H127603   0.543   2.494   1.135  0.0350  0.1140 -1.4212
 9213TIP3    H227604   0.654   2.585   1.085  1.3680  0.1555  1.4218
 9214TIP3   OH227605   6.689   3.529   0.677  0.2811 -0.4874  0.3148
 9214TIP3    H127606   6.625   3.524   0.607 -0.8225 -0.8680  1.3336
 9214TIP3    H227607   6.772   3.548   0.632 -0.0357 -2.5319 -1.2660
 9215TIP3   OH227608   0.816   4.980   4.674  0.2624 -0.7285  0.3259
 9215TIP3    H127609   0.896   4.989   4.726  1.0502 -0.2077 -0.9382
 9215TIP3    H227610   0.748   5.023   4.727  1.4613  1.7045  0.0224
 9216TIP3   OH227611   2.777   5.157   5.082 -0.6679  0.1198  0.5372
 9216TIP3    H127612   2.823   5.225   5.032  0.6317 -0.1767  1.2738
 9216TIP3    H227613   2.712   5.123   5.021  1.2401 -0.6329 -1.2057
 9217TIP3   OH227614   4.330   5.740   3.799 -0.0494 -0.1262  1.0560
 9217TIP3    H127615   4.422   5.752   3.775 -0.2740 -0.5602 -0.0794
 9217TIP3    H227616   4.311   5.812   3.859  0.8759  0.3085  0.8332
 9218TIP3   OH227617   1.430   5.363   4.563 -0.2359  0.3245  0.5465
 9218TIP3    H127618   1.424   5.414   4.483 -0.9886 -0.3334  0.1742
 9218TIP3    H227619   1.420   5.427   4.634 -0.9081  0.7279  0.0946
 9219TIP3   OH227620   5.261   1.412   1.886 -0.1234 -0.0749  0.1594
 9219TIP3    H127621   5.226   1.343   1.830  0.6176 -0.7426  0.5076
 9219TIP3    H227622   5.206   1.410   1.964 -1.6725  1.3868 -0.8198
 9220TIP3   OH227623   6.906   5.870   0.017  0.2451  0.0039  0.3096
 9220TIP3    H127624   6.906   5.918  -0.066 -0.2084  0.2499  0.4491
 9220TIP3    H227625   6.870   5.931   0.080 -2.3598 -1.1620  0.0917
 9221TIP3   OH227626   6.906   5.617   1.660  0.3682 -0.5253 -0.2287
 9221TIP3    H127627   6.866   5.559   1.595  1.0345  0.9231 -2.0371
 9221TIP3    H227628   6.840   5.685   1.674  0.4635 -0.5159  0.1743
 9222TIP3   OH227629   3.601   5.330   4.726  0.5448 -0.4634 -0.3919
 9222TIP3    H127630   3.652   5.257   4.690  0.3606 -0.8512  0.1237
 9222TIP3    H227631   3.511   5.314   4.698  0.7233  0.3254 -1.4643
 9223TIP3   OH227632   0.562   4.014   5.233  0.1429  0.2159 -0.1783
 9223TIP3    H127633   0.526   3.927   5.251  0.2066  0.3828  0.8468
 9223TIP3    H227634   0.657   3.999   5.225  0.0182 -0.0044 -1.4037
 9224TIP3   OH227635   2.180   1.613   1.450  0.3324  0.7847  0.0379
 9224TIP3    H127636   2.242   1.620   1.377 -0.4338 -1.4061 -0.9047
 9224TIP3    H227637   2.095   1.597   1.408 -0.2364  0.1146  1.3721
 9225TIP3   OH227638   0.753   4.717   5.807 -0.0210 -0.2015  0.2595
 9225TIP3    H127639   0.782   4.760   5.888  0.2589  0.7585 -0.3400
 9225TIP3    H227640   0.670   4.760   5.786 -0.5395 -1.0667  0.5085
 9226TIP3   OH227641   7.172   6.440   2.362 -0.2484 -0.4723 -0.5567
 9226TIP3    H127642   7.152   6.407   2.449  0.2748  2.3380  0.7469
 9226TIP3    H227643   7.183   6.362   2.308 -0.1077 -2.3154  1.9782
 9227TIP3   OH227644   1.931   0.811   3.491 -0.5643 -0.0062 -0.1155
 9227TIP3    H127645   1.930   0.832   3.397 -1.9835  1.4085  0.1756
 9227TIP3    H227646   1.976   0.886   3.531 -0.2462 -0.4515  0.3713
 9228TIP3   OH227647   3.633   5.356   4.994 -0.1359 -0.5423 -0.0535
 9228TIP3    H127648   3.594   5.341   4.908 -0.9627 -1.2685  0.4266
 9228TIP3    H227649   3.688   5.434   4.982  2.2593 -2.3638 -2.0056
 9229TIP3   OH227650   5.570   5.455   4.342  0.1429  0.2644  0.5798
 9229TIP3    H127651   5.575   5.398   4.419  0.9518 -0.0969  0.2659
 9229TIP3    H227652   5.478   5.483   4.339 -0.4612 -1.6070  0.3126
 9230TIP3   OH227653   3.271   4.960   3.141 -0.5738  0.2468  0.1461
 9230TIP3    H127654   3.189   4.925   3.106 -0.8554 -1.0306  1.9250
 9230TIP3    H227655   3.246   5.042   3.183 -0.8217  0.1860  0.1207
 9231TIP3   OH227656   2.587   1.773   3.796 -0.1203  0.5619 -0.0137
 9231TIP3    H127657   2.653   1.721   3.750 -2.6909 -0.0715 -3.4018
 9231TIP3    H227658   2.623   1.862   3.797  0.6455  0.3221 -2.1012
 9232TIP3   OH227659   4.605   4.990   5.738 -0.3251 -0.3133 -0.6649
 9232TIP3    H127660   4.549   4.966   5.664  0.4266 -1.0843 -1.0001
 9232TIP3    H227661   4.570   4.940   5.811 -1.0891  0.4729 -0.4874
 9233TIP3   OH227662   1.531   3.998   2.083  0.1657 -0.5851 -0.0001
 9233TIP3    H127663   1.445   4.018   2.047 -0.6221 -2.1570  0.8968
 9233TIP3    H227664   1.582   4.078   2.069 -1.1973  0.1217 -1.2120
 9234TIP3   OH227665   2.051   6.206   3.846  0.0702  0.1700 -0.1592
 9234TIP3    H127666   2.037   6.172   3.934 -0.7348  0.6282 -0.0981
 9234TIP3    H227667   1.976   6.264   3.831 -0.1504 -0.3950 -1.3775
 9235TIP3   OH227668   1.034   2.414   0.351 -0.4147 -1.1596 -0.3356
 9235TIP3    H127669   0.989   2.459   0.422  1.5362  1.1096 -0.4182
 9235TIP3    H227670   1.123   2.399   0.384  1.1659  1.6701 -2.7626
 9236TIP3   OH227671   4.980   6.465   0.651  0.0032  0.2187  0.2533
 9236TIP3    H127672   4.987   6.461   0.556  0.2108  2.3104  0.1149
 9236TIP3    H227673   5.026   6.387   0.683 -1.5420 -1.4122 -1.3615
 9237TIP3   OH227674   1.136   0.042   3.976 -0.2670  0.0161 -0.4087
 9237TIP3    H127675   1.070   0.047   4.045  0.3312 -2.1828  0.4080
 9237TIP3    H227676   1.219   0.063   4.020 -0.1120  0.5686 -0.9364
 9238TIP3   OH227677   0.236   3.881   0.968  0.1857  0.2029 -0.3577
 9238TIP3    H127678   0.224   3.860   1.060  0.7863 -0.3811 -0.4021
 9238TIP3    H227679   0.299   3.816   0.937 -0.1737  0.2641 -1.2318
 9239TIP3   OH227680   4.045   6.280   0.252 -0.1435  0.4905  0.4854
 9239TIP3    H127681   4.001   6.361   0.280 -2.8619 -0.6475 -0.1421
 9239TIP3    H227682   4.018   6.270   0.160 -0.2748 -1.3505  0.6935
 9240TIP3   OH227683   1.021   0.837   1.411 -0.7154 -0.1907 -0.1954
 9240TIP3    H127684   1.012   0.926   1.445  3.6095  0.3578  0.0116
 9240TIP3    H227685   1.006   0.845   1.317 -1.8391  0.4053  0.0188
 9241TIP3   OH227686   5.549   5.671   1.550  0.8432  0.6661  0.4778
 9241TIP3    H127687   5.471   5.719   1.576 -0.2216 -0.1312 -1.0987
 9241TIP3    H227688   5.547   5.671   1.454  2.2374 -0.2417  0.4090
 9242TIP3   OH227689   0.526   5.535   5.644 -0.0528  0.2781  0.1453
 9242TIP3    H127690   0.578   5.588   5.703  1.0520  0.7736 -1.2180
 9242TIP3    H227691   0.589   5.477   5.601 -0.4449  1.3734 -2.0450
 9243TIP3   OH227692   0.415   1.195   2.339 -0.7958  0.2099 -0.2101
 9243TIP3    H127693   0.402   1.206   2.244  0.4835  2.6632 -0.1629
 9243TIP3    H227694   0.509   1.179   2.349 -0.8692  0.2732  0.6560
 9244TIP3   OH227695   7.195   3.494   1.469  0.7807 -0.1749  0.0598
 9244TIP3    H127696   7.267   3.509   1.530  0.4643  1.0608  0.1572
 9244TIP3    H227697   7.122   3.543   1.506  0.0804 -0.8365 -0.4069
 9245TIP3   OH227698   6.984   3.328   1.079 -0.3123  0.0233  0.3858
 9245TIP3    H127699   6.967   3.330   1.173 -1.7221 -0.2306  0.1593
 9245TIP3    H227700   6.927   3.396   1.043 -1.5643 -1.4431 -0.5150
 9246TIP3   OH227701  -0.009   5.547   5.728 -0.1536  0.0808 -0.1721
 9246TIP3    H127702  -0.021   5.639   5.753 -0.4640  0.2325 -0.8525
 9246TIP3    H227703   0.085   5.532   5.739 -0.1290  0.4315  0.1198
 9247TIP3   OH227704   3.550   3.529   0.966  0.1123  0.2652  0.1505
 9247TIP3    H127705   3.500   3.464   0.916  0.0059 -0.5194  1.2442
 9247TIP3    H227706   3.617   3.477   1.012  0.4698  1.0232  0.4974
 9248TIP3   OH227707   2.624   4.863   2.311 -0.0328  0.0945  0.0264
 9248TIP3    H127708   2.652   4.882   2.400 -0.7061  0.4992  0.1582
 9248TIP3    H227709   2.703   4.833   2.267  0.3417  0.0554  0.7131
 9249TIP3   OH227710   6.166   4.797   1.573 -0.1072 -0.2561 -0.2938
 9249TIP3    H127711   6.136   4.837   1.491  1.0955  0.4708 -0.4088
 9249TIP3    H227712   6.124   4.848   1.642 -0.4616 -0.3375 -0.4440
 9250TIP3   OH227713   3.646   1.333   0.327  0.0560  0.0973  0.2995
 9250TIP3    H127714   3.628   1.306   0.417 -2.6581  1.0196  0.1142
 9250TIP3    H227715   3.687   1.419   0.335 -0.5802  0.3723  0.6603
 9251TIP3   OH227716   4.500   5.967   5.337  0.1431 -0.2621 -0.2462
 9251TIP3    H127717   4.507   5.923   5.253  0.2977  1.5493 -1.2138
 9251TIP3    H227718   4.576   6.024   5.342  0.2340 -0.4506  1.2129
 9252TIP3   OH227719   3.058   3.712   4.609 -0.6987  0.2139  0.0300
 9252TIP3    H127720   3.146   3.708   4.644 -0.6107 -0.5888 -0.2748
 9252TIP3    H227721   3.012   3.637   4.647 -1.1133  0.3550 -0.1780
 9253TIP3   OH227722   2.224   6.656   4.049 -0.3460  0.1125  0.0410
 9253TIP3    H127723   2.270   6.690   4.125  0.6684  0.9919 -0.9477
 9253TIP3    H227724   2.143   6.708   4.044  0.9396  2.1097 -1.1498
 9254TIP3   OH227725   5.565   1.595   4.358  0.1661  0.0930  0.0809
 9254TIP3    H127726   5.625   1.627   4.291  0.5184  1.4287  0.9891
 9254TIP3    H227727   5.494   1.658   4.360  0.2957  0.2280  1.1361
 9255TIP3   OH227728   3.828   0.740   4.633 -0.2841  0.6069  0.8948
 9255TIP3    H127729   3.819   0.776   4.544  0.2103  1.4610  1.1833
 9255TIP3    H227730   3.888   0.800   4.677 -0.9096  0.4736  1.9607
 9256TIP3   OH227731   2.260   5.778   5.191 -0.4054 -0.2126  0.4868
 9256TIP3    H127732   2.263   5.698   5.138  0.7422  0.2803 -0.2468
 9256TIP3    H227733   2.195   5.833   5.148  0.4709  0.1578 -0.4048
 9257TIP3   OH227734   7.044   4.452   1.580 -0.5475  0.2354  0.5180
 9257TIP3    H127735   7.042   4.539   1.541 -1.2595  0.6487  1.4355
 9257TIP3    H227736   7.042   4.392   1.506 -0.4921  1.0048 -0.1107
 9258TIP3   OH227737   4.423   0.992   3.202  0.2333 -0.2286  0.4535
 9258TIP3    H127738   4.504   1.024   3.241 -0.4349  1.7036  0.3712
 9258TIP3    H227739   4.394   1.064   3.145 -1.9594 -0.5157  1.1141
 9259TIP3   OH227740   4.189   0.897   3.498 -0.6338  0.0570 -0.6833
 9259TIP3    H127741   4.237   0.935   3.571 -0.3001 -0.1983 -0.7675
 9259TIP3    H227742   4.244   0.824   3.468  0.5492  1.7394 -2.8793
 9260TIP3   OH227743   0.219   5.201   3.747 -0.3077  0.3098 -0.2923
 9260TIP3    H127744   0.290   5.149   3.785 -1.6487 -0.3488  1.4551
 9260TIP3    H227745   0.160   5.218   3.820 -0.8707  2.7616 -1.1987
 9261TIP3   OH227746   6.261   2.290   5.851 -0.2707  0.3608 -0.1811
 9261TIP3    H127747   6.212   2.371   5.861  0.2768  0.7533 -0.5749
 9261TIP3    H227748   6.303   2.298   5.765  0.5577  0.0854  0.1796
 9262TIP3   OH227749   4.148   3.983   1.825 -0.0841  0.4274 -0.4097
 9262TIP3    H127750   4.198   3.917   1.778  1.0895  1.3651 -0.5405
 9262TIP3    H227751   4.157   3.959   1.917  0.8975  0.7431 -0.4069
 9263TIP3   OH227752   2.654   1.548   2.552  0.7690 -0.2947  0.1751
 9263TIP3    H127753   2.609   1.571   2.471  1.6045 -1.0924 -0.5392
 9263TIP3    H227754   2.587   1.507   2.606  0.1828  0.3308 -0.0638
 9264TIP3   OH227755   6.603   0.660   1.881  0.2182  0.1597  0.0486
 9264TIP3    H127756   6.517   0.634   1.913  1.5993 -1.6981  2.6893
 9264TIP3    H227757   6.653   0.678   1.961  2.2507  1.3698 -1.4079
 9265TIP3   OH227758   5.052   4.225   1.506 -0.0799  0.1602 -0.0353
 9265TIP3    H127759   5.143   4.215   1.478  0.1730  0.0353  0.8063
 9265TIP3    H227760   5.042   4.319   1.523 -0.3505  0.3017 -0.8814
 9266TIP3   OH227761   2.934   0.676   2.941  0.1814 -0.2365 -0.3420
 9266TIP3    H127762   2.898   0.738   3.005 -0.5223  0.5356 -1.4535
 9266TIP3    H227763   3.000   0.727   2.894  0.1486 -0.5692 -0.7488
 9267TIP3   OH227764   5.494   4.547   2.467  0.0330 -0.7101  0.2391
 9267TIP3    H127765   5.539   4.469   2.436  0.9933  0.5203 -1.7089
 9267TIP3    H227766   5.555   4.588   2.528  0.4559 -0.3904 -0.3918
 9268TIP3   OH227767   2.801   0.938   4.497 -0.1767  0.2415 -0.1504
 9268TIP3    H127768   2.718   0.894   4.477 -0.3476  0.8335 -0.8008
 9268TIP3    H227769   2.846   0.879   4.556  0.3600 -1.6443 -2.3100
 9269TIP3   OH227770   7.160   5.767   3.985 -0.0082  0.3599  0.2074
 9269TIP3    H127771   7.127   5.857   3.984  1.9089  1.1225  1.1075
 9269TIP3    H227772   7.105   5.721   4.048 -2.8744  0.0430 -2.2649
 9270TIP3   OH227773   6.823   6.079   0.950  0.3012  0.1782 -0.5369
 9270TIP3    H127774   6.856   5.996   0.984 -0.8298 -0.4795 -0.9779
 9270TIP3    H227775   6.748   6.100   1.006  1.3255  1.5682  0.3645
 9271TIP3   OH227776   3.079   1.954   1.499  0.2241  0.3128  0.3854
 9271TIP3    H127777   3.060   2.033   1.550 -0.3201 -0.4170  1.3621
 9271TIP3    H227778   3.123   1.896   1.561 -0.1130 -0.4606 -0.0862
 9272TIP3   OH227779   0.159   5.488   3.335 -0.0931  0.4332  0.6226
 9272TIP3    H127780   0.105   5.533   3.400  0.7021  0.6060  1.1736
 9272TIP3    H227781   0.121   5.400   3.329 -1.4207  1.0286 -0.1801
 9273TIP3   OH227782   5.007   1.669   5.718 -1.0437  0.1147  0.1469
 9273TIP3    H127783   5.004   1.758   5.755  0.0008 -0.0161  0.5828
 9273TIP3    H227784   4.992   1.612   5.793 -1.2958 -0.0883 -0.0580
 9274TIP3   OH227785   6.144   2.359   2.362  0.7040  0.0716 -0.1516
 9274TIP3    H127786   6.141   2.266   2.386 -1.2723 -0.0613 -0.7607
 9274TIP3    H227787   6.213   2.396   2.418  1.2093 -1.6621  0.4241
 9275TIP3   OH227788   1.212   0.293   2.746 -0.2514  0.3604 -0.0378
 9275TIP3    H127789   1.298   0.330   2.765  0.2374 -0.3652 -0.7833
 9275TIP3    H227790   1.223   0.199   2.760 -0.4585  0.0593 -1.7005
 9276TIP3   OH227791   2.080   3.012   3.989  0.3758  0.0793  0.3721
 9276TIP3    H127792   2.144   3.010   4.060 -0.1102  1.8792  0.9210
 9276TIP3    H227793   2.026   3.089   4.008 -2.8153 -2.0355  0.6875
 9277TIP3   OH227794   3.723   3.715   4.985 -0.3121  0.4105  0.1150
 9277TIP3    H127795   3.743   3.780   4.917 -1.0380  0.3122 -0.2045
 9277TIP3    H227796   3.755   3.633   4.948  2.0155  0.7570  1.1549
 9278TIP3   OH227797   5.203   1.534   3.793 -0.5309  0.2319  0.7340
 9278TIP3    H127798   5.284   1.586   3.783 -0.5982  0.0245 -1.3366
 9278TIP3    H227799   5.219   1.479   3.869  0.2841  1.9688  1.8673
 9279TIP3   OH227800   0.048   3.632   5.084 -0.2430 -0.5135  0.4297
 9279TIP3    H127801   0.043   3.579   5.004  1.1312  0.0743 -0.0780
 9279TIP3    H227802  -0.028   3.605   5.135 -1.1411 -0.9309 -1.0586
 9280TIP3   OH227803   4.722   2.677   5.550  0.6661 -0.2829 -0.1058
 9280TIP3    H127804   4.781   2.646   5.618  0.6305  2.4685  1.3485
 9280TIP3    H227805   4.778   2.719   5.486  0.4595  1.2963  0.6885
 9281TIP3   OH227806   5.212   4.361   3.872  0.0736  0.4538 -0.6110
 9281TIP3    H127807   5.202   4.397   3.960  1.1174 -1.6819  0.4607
 9281TIP3    H227808   5.162   4.279   3.874  1.5768 -0.5387 -1.3870
 9282TIP3   OH227809   5.245   5.082   2.885  0.1393  0.2965 -0.1291
 9282TIP3    H127810   5.150   5.082   2.870  0.4057 -0.4896 -2.1365
 9282TIP3    H227811   5.272   4.991   2.870  1.0706  0.2706  1.5564
 9283TIP3   OH227812   4.459   6.128   1.666 -0.3667 -0.1490 -0.3980
 9283TIP3    H127813   4.446   6.223   1.664  1.6232  0.1778 -0.8055
 9283TIP3    H227814   4.427   6.098   1.582  0.4367  0.4314 -0.9356
 9284TIP3   OH227815   0.317   3.362   2.052  0.6939 -0.3318  0.2242
 9284TIP3    H127816   0.411   3.372   2.042  0.4236  1.5102 -1.0085
 9284TIP3    H227817   0.297   3.400   2.137  0.8949  0.8396 -0.2314
 9285TIP3   OH227818   3.340   4.883   5.341 -0.0365 -0.4063 -0.0539
 9285TIP3    H127819   3.414   4.872   5.401  0.4054  0.2253 -0.4647
 9285TIP3    H227820   3.358   4.966   5.297 -0.6265 -0.6070 -0.6820
 9286TIP3   OH227821   0.324   5.414   2.534 -0.0974 -0.7667  0.4054
 9286TIP3    H127822   0.365   5.494   2.565 -0.6043  0.1046 -1.0581
 9286TIP3    H227823   0.387   5.376   2.473 -0.2998 -0.9228  0.2900
 9287TIP3   OH227824   0.504   1.680   5.315  0.2996 -0.0502 -0.1363
 9287TIP3    H127825   0.502   1.633   5.399  0.7970  1.2046  0.6112
 9287TIP3    H227826   0.597   1.692   5.296  0.1858  0.2340 -0.5355
 9288TIP3   OH227827   5.953   5.943   5.144 -0.1449  0.4000  0.4346
 9288TIP3    H127828   5.930   5.868   5.199 -1.6804  0.2529 -0.3631
 9288TIP3    H227829   5.963   5.906   5.056 -0.4759  1.0657  0.1122
 9289TIP3   OH227830   0.275   2.546   2.107  0.1351 -0.0279 -0.3138
 9289TIP3    H127831   0.180   2.554   2.102  0.2497  1.3450 -0.8985
 9289TIP3    H227832   0.291   2.452   2.107 -1.3079 -0.3704  2.2719
 9290TIP3   OH227833   6.474   4.768   2.169  0.6484  0.5178 -0.5737
 9290TIP3    H127834   6.396   4.764   2.224  1.2615 -0.3257  0.2793
 9290TIP3    H227835   6.498   4.860   2.168 -0.3814  0.7931 -0.8927
 9291TIP3   OH227836   2.690   3.956   2.742 -0.2606  0.4182  0.1508
 9291TIP3    H127837   2.781   3.979   2.761  0.0109  0.9885 -1.6798
 9291TIP3    H227838   2.645   3.962   2.826  0.9545  2.2254  0.7133
 9292TIP3   OH227839   5.202   6.724   4.681 -0.0139 -0.3724  0.5654
 9292TIP3    H127840   5.283   6.721   4.631  0.0374  0.3837  0.5898
 9292TIP3    H227841   5.217   6.790   4.749 -0.8382  0.2161  0.1995
 9293TIP3   OH227842   6.825   4.518   4.299 -0.1905 -0.3688 -0.7834
 9293TIP3    H127843   6.751   4.506   4.360 -0.8170  0.3280 -1.3848
 9293TIP3    H227844   6.786   4.507   4.212  0.2374  0.7903 -1.1440
 9294TIP3   OH227845   4.061   0.863   5.624 -0.5612 -0.2509 -0.7100
 9294TIP3    H127846   4.108   0.930   5.574 -0.1410 -1.1391 -1.5376
 9294TIP3    H227847   4.028   0.802   5.558 -1.0938 -0.7599  0.0115
 9295TIP3   OH227848   3.650   2.070   2.454 -0.4562 -0.1877  0.1012
 9295TIP3    H127849   3.679   2.159   2.435 -0.9195 -0.0849 -0.1404
 9295TIP3    H227850   3.578   2.081   2.517  0.8784 -0.5121  1.7336
 9296TIP3   OH227851   3.460   5.722   1.521 -0.2246 -0.1452  0.1517
 9296TIP3    H127852   3.539   5.768   1.548  0.9576 -1.7801 -0.3458
 9296TIP3    H227853   3.388   5.780   1.546  1.1091  1.2687  0.8518
 9297TIP3   OH227854   0.569   1.718   0.300  0.1901  0.6825  0.3698
 9297TIP3    H127855   0.616   1.774   0.361  0.0380 -0.0222  1.1510
 9297TIP3    H227856   0.488   1.695   0.346  0.3879 -0.4196  0.1886
 9298TIP3   OH227857   6.020   2.156   4.546  0.3749  0.3139  0.1202
 9298TIP3    H127858   6.037   2.138   4.454  1.1338 -1.2704  0.5317
 9298TIP3    H227859   5.968   2.081   4.575 -0.9653  1.4321  0.6895
 9299TIP3   OH227860   0.958   3.581   4.060 -0.2894 -0.0122  0.1740
 9299TIP3    H127861   0.952   3.527   3.982 -1.7226 -0.8509  0.8147
 9299TIP3    H227862   1.052   3.591   4.076  0.0071 -1.7202 -0.3663
 9300TIP3   OH227863   3.764   5.119   0.083 -0.1308  0.7654  0.2564
 9300TIP3    H127864   3.702   5.176   0.128 -1.0028 -0.6540  0.8793
 9300TIP3    H227865   3.833   5.104   0.148  0.2750  1.3537 -0.0247
 9301TIP3   OH227866   6.096   3.911   3.176 -0.0981  0.1701 -0.4470
 9301TIP3    H127867   6.018   3.893   3.229  0.2089  0.3297  0.0650
 9301TIP3    H227868   6.080   3.865   3.094  0.4420 -2.0356  0.6108
 9302TIP3   OH227869   0.941   2.461   0.785  0.2750 -0.3506  0.0735
 9302TIP3    H127870   0.995   2.394   0.745  0.4890  0.5689 -1.2557
 9302TIP3    H227871   1.000   2.536   0.797 -0.8387  1.0254 -2.3264
 9303TIP3   OH227872   3.512   6.017   4.120  0.1451  0.8106  0.3192
 9303TIP3    H127873   3.600   6.038   4.087 -0.5125 -0.4676 -2.5505
 9303TIP3    H227874   3.517   5.925   4.145 -0.3512  0.7677  0.2626
 9304TIP3   OH227875   1.213   2.427   5.207 -0.5001 -0.0185  0.0014
 9304TIP3    H127876   1.189   2.507   5.161 -1.4760 -0.9918 -1.2625
 9304TIP3    H227877   1.146   2.364   5.182  1.6559 -1.9902 -1.1942
 9305TIP3   OH227878   3.188   2.874   4.973  0.2706  0.5552  0.0569
 9305TIP3    H127879   3.246   2.946   5.000  1.5645 -0.4828  0.1718
 9305TIP3    H227880   3.105   2.892   5.015  1.3870  0.4978  2.4402
 9306TIP3   OH227881   3.356   2.168   1.500  0.2343  0.4258  0.3464
 9306TIP3    H127882   3.321   2.118   1.426  0.3826 -0.8948  1.1408
 9306TIP3    H227883   3.435   2.120   1.526  0.2890  0.9835  1.2476
 9307TIP3   OH227884   3.911   4.624   5.638 -0.1828 -0.0940  0.0943
 9307TIP3    H127885   3.845   4.663   5.582  0.9126  1.2334 -0.3280
 9307TIP3    H227886   3.914   4.681   5.715 -0.1462 -0.6530  0.5121
 9308TIP3   OH227887   2.563   6.654   5.642  0.1449  0.0186  0.2352
 9308TIP3    H127888   2.652   6.687   5.627 -0.0525  0.6605  0.4336
 9308TIP3    H227889   2.550   6.588   5.575 -0.1332  1.6776 -1.4230
 9309TIP3   OH227890   3.200   5.968   2.781 -0.1926  0.3021  0.2651
 9309TIP3    H127891   3.146   6.010   2.848 -0.8097 -0.0671 -0.0004
 9309TIP3    H227892   3.279   5.940   2.829 -0.8375 -0.3914  0.9449
 9310TIP3   OH227893   5.148   2.350   1.771  0.3777 -0.3195 -0.0024
 9310TIP3    H127894   5.223   2.410   1.767 -0.3041  0.5732  0.3846
 9310TIP3    H227895   5.143   2.325   1.863 -0.3569  0.3565  0.1508
 9311TIP3   OH227896   1.495   5.621   3.118 -0.2410 -0.4623 -0.5471
 9311TIP3    H127897   1.518   5.547   3.062  1.1722 -1.4828  1.2471
 9311TIP3    H227898   1.559   5.617   3.189 -2.0160  0.6598  1.2154
 9312TIP3   OH227899   3.857   0.005   5.671 -0.0416 -0.3484  0.7508
 9312TIP3    H127900   3.919   0.053   5.726 -1.1747  0.8910  0.9875
 9312TIP3    H227901   3.892   0.014   5.583 -0.9013  2.1119  0.5955
 9313TIP3   OH227902   6.661   3.256   4.358  0.8351  0.2238 -0.6757
 9313TIP3    H127903   6.629   3.318   4.292  1.9344  2.1200  0.4762
 9313TIP3    H227904   6.582   3.226   4.403  0.3108  1.4503 -0.7303
 9314TIP3   OH227905   4.865   5.329   1.551 -0.1020 -0.0632 -0.1303
 9314TIP3    H127906   4.900   5.255   1.601 -0.1948  0.8552  1.3226
 9314TIP3    H227907   4.942   5.375   1.519 -0.0426 -0.7841 -1.0929
 9315TIP3   OH227908   5.642   3.527   5.261 -0.5205  0.2604 -0.1681
 9315TIP3    H127909   5.566   3.551   5.208 -0.2968 -1.4231 -1.3574
 9315TIP3    H227910   5.713   3.582   5.228 -0.7828  0.4382 -0.4337
 9316TIP3   OH227911   2.957   1.534   1.927  0.4672 -0.2417 -0.4867
 9316TIP3    H127912   2.931   1.543   2.018  2.6088  0.8546  0.0734
 9316TIP3    H227913   2.902   1.597   1.880  1.1412  1.0967  0.4622
 9317TIP3   OH227914   5.138   1.496   2.911 -0.1351  0.0974  0.2531
 9317TIP3    H127915   5.203   1.499   2.841 -1.6732  0.5008 -1.2294
 9317TIP3    H227916   5.107   1.406   2.911 -0.5605  0.2397 -0.0107
 9318TIP3   OH227917   1.931   5.327   0.260  0.0612  0.3486  0.2343
 9318TIP3    H127918   1.950   5.387   0.187  0.7556 -0.1726 -0.0255
 9318TIP3    H227919   1.867   5.266   0.224  1.9574 -1.2307 -0.6906
 9319TIP3   OH227920   3.218   4.656   0.249 -0.3640  0.0951 -0.0376
 9319TIP3    H127921   3.173   4.665   0.333  0.2199 -1.3469  0.4500
 9319TIP3    H227922   3.296   4.604   0.268 -0.0501  0.0084 -1.4195
 9320TIP3   OH227923   4.145   2.058   3.223  0.2553 -0.3471  0.4965
 9320TIP3    H127924   4.071   2.006   3.191  0.4359 -1.6007  1.9720
 9320TIP3    H227925   4.222   2.017   3.184  0.2161  0.9323 -1.0070
 9321TIP3   OH227926   5.223   6.397   3.027 -0.3528  0.0620 -0.2937
 9321TIP3    H127927   5.207   6.470   2.968 -0.8085 -0.3841 -0.7401
 9321TIP3    H227928   5.136   6.374   3.060 -0.3511 -0.8592 -0.8811
 9322TIP3   OH227929   6.225   0.558   3.606 -0.0880 -0.0038  0.1776
 9322TIP3    H127930   6.176   0.634   3.637  1.0390 -0.1222  2.5327
 9322TIP3    H227931   6.174   0.523   3.533 -0.5758  3.0328 -1.0608
 9323TIP3   OH227932   3.114   5.704   5.377  0.1691 -0.4715  0.6249
 9323TIP3    H127933   3.084   5.774   5.318  0.2197 -0.9332  0.0435
 9323TIP3    H227934   3.198   5.676   5.339  0.0695 -0.9601  0.7678
 9324TIP3   OH227935   2.002   2.227   2.509  0.2502 -0.1549 -0.3225
 9324TIP3    H127936   2.032   2.308   2.467 -0.1369  0.2738  0.2174
 9324TIP3    H227937   1.915   2.212   2.472  0.5619 -0.6537 -0.8655
 9325TIP3   OH227938   6.534   3.925   3.434  0.1175 -0.2126 -0.2263
 9325TIP3    H127939   6.476   3.916   3.358  1.0928  1.2226 -1.1841
 9325TIP3    H227940   6.486   3.983   3.493 -0.0253 -0.1623 -0.3877
 9326TIP3   OH227941   2.941   0.338   4.603 -0.1551 -0.7578 -0.5123
 9326TIP3    H127942   3.008   0.368   4.664 -0.6080  2.1033 -1.2942
 9326TIP3    H227943   2.990   0.312   4.524  0.1443 -0.1457 -0.5323
 9327TIP3   OH227944   0.527   0.449   3.083 -0.2408  0.7087  0.5372
 9327TIP3    H127945   0.471   0.526   3.093 -0.2400  0.7077  0.5500
 9327TIP3    H227946   0.480   0.393   3.021  0.5300  1.4496 -0.7656
 9328TIP3   OH227947   2.154   2.743   3.186  0.2404 -0.0144  0.4139
 9328TIP3    H127948   2.078   2.739   3.243  0.2873 -0.3660  0.4523
 9328TIP3    H227949   2.117   2.752   3.098  0.1368 -0.9019  0.3623
 9329TIP3   OH227950   2.345   0.255   1.126  0.1477 -0.5061  0.4074
 9329TIP3    H127951   2.422   0.283   1.174 -0.1898 -1.8408  1.8153
 9329TIP3    H227952   2.379   0.194   1.060  0.3765 -0.4625  0.4858
 9330TIP3   OH227953   3.858   0.409   2.762  0.1189 -0.7473  0.3425
 9330TIP3    H127954   3.820   0.479   2.709  0.4908 -1.0497 -0.3427
 9330TIP3    H227955   3.918   0.452   2.822 -1.0380 -0.2920  1.2201
 9331TIP3   OH227956   5.940   3.723   3.842  0.0968  0.6854  0.3064
 9331TIP3    H127957   6.000   3.756   3.909  0.0045  2.9651 -0.6621
 9331TIP3    H227958   5.856   3.714   3.887  0.4600  0.3928  0.9392
 9332TIP3   OH227959   7.223   6.034   2.527  0.5671  0.2183 -0.2944
 9332TIP3    H127960   7.233   6.127   2.543 -1.3390  0.3147  0.6003
 9332TIP3    H227961   7.131   6.023   2.502  0.4990 -1.5296  0.5500
 9333TIP3   OH227962   2.280   1.709   5.274 -0.1018  0.3289  0.0932
 9333TIP3    H127963   2.254   1.638   5.216 -1.2729  1.7760 -1.2475
 9333TIP3    H227964   2.312   1.777   5.215  1.5975  0.7230  1.3783
 9334TIP3   OH227965   4.569   3.885   2.080 -0.2109  0.5853 -0.1881
 9334TIP3    H127966   4.561   3.948   2.151  0.1418 -0.1872  0.5465
 9334TIP3    H227967   4.488   3.835   2.083 -0.8006  1.4137 -1.2105
 9335TIP3   OH227968   5.047   5.420   5.126  0.4595 -0.3950  0.4142
 9335TIP3    H127969   4.985   5.349   5.114  0.7976 -0.3614 -2.2276
 9335TIP3    H227970   5.121   5.397   5.070  1.1773  1.3494  0.5638
 9336TIP3   OH227971   0.238   4.922   0.977 -0.6004  0.1443 -0.2082
 9336TIP3    H127972   0.173   4.985   1.009  0.0117  0.0872  1.2645
 9336TIP3    H227973   0.235   4.850   1.041  2.1077  0.9351  0.9660
 9337TIP3   OH227974   1.583   2.861   5.032 -0.2475  0.0828 -0.1721
 9337TIP3    H127975   1.507   2.829   4.983 -0.9350  1.4543 -0.0452
 9337TIP3    H227976   1.652   2.868   4.967 -0.0803 -1.5245 -0.2234
 9338TIP3   OH227977   7.049   1.395   0.240  0.5201 -0.6584  0.0234
 9338TIP3    H127978   6.968   1.438   0.214  0.1291 -0.0756  2.0034
 9338TIP3    H227979   7.061   1.324   0.177  0.0089  0.9858 -1.9925
 9339TIP3   OH227980   2.493   1.746   0.607 -0.3499  0.6875  0.2352
 9339TIP3    H127981   2.479   1.839   0.585 -0.0281  0.4651 -0.9638
 9339TIP3    H227982   2.576   1.724   0.565 -1.6998 -0.8386 -1.7899
 9340TIP3   OH227983   5.399   0.149   0.650 -0.1172  0.3280 -0.5007
 9340TIP3    H127984   5.453   0.108   0.582  0.2054  2.3411 -1.5362
 9340TIP3    H227985   5.452   0.142   0.730  1.1572  1.1596 -1.2377
 9341TIP3   OH227986   0.303   5.591   4.286 -0.6083 -0.3046 -0.1062
 9341TIP3    H127987   0.366   5.532   4.326  0.4579  0.1974 -0.9911
 9341TIP3    H227988   0.240   5.534   4.243 -0.0705 -0.8027 -0.2366
 9342TIP3   OH227989   0.322   0.680   4.674  0.5665 -0.1930  0.7386
 9342TIP3    H127990   0.349   0.751   4.615 -1.0095  0.2837  0.5489
 9342TIP3    H227991   0.402   0.657   4.722  1.1143  1.8009  0.8913
 9343TIP3   OH227992   2.803   1.894   0.939  0.1402 -0.1547 -0.4664
 9343TIP3    H127993   2.830   1.968   0.884 -1.3963  0.1479 -0.8405
 9343TIP3    H227994   2.808   1.819   0.881  0.5854 -0.1750 -0.4076
 9344TIP3   OH227995   4.420   6.131   4.457  0.2167 -0.2630 -0.1514
 9344TIP3    H127996   4.332   6.170   4.455 -0.1238 -1.0217 -0.0792
 9344TIP3    H227997   4.439   6.113   4.365 -0.5455 -1.9472 -0.0073
 9345TIP3   OH227998   0.903   3.385   1.575  0.3803 -0.2811 -0.1521
 9345TIP3    H127999   0.876   3.311   1.521 -1.2428  0.7620 -0.8372
 9345TIP3    H228000   0.996   3.398   1.553  0.2363 -1.0535 -1.2827
 9346TIP3   OH228001   1.002   3.629   1.324  0.1469  0.2540 -0.3487
 9346TIP3    H128002   0.963   3.679   1.253  0.2083  0.5571 -0.1688
 9346TIP3    H228003   1.048   3.557   1.280  1.2137  1.1259 -0.6929
 9347TIP3   OH228004   4.717   5.952   3.985  0.4049 -0.2586 -0.0476
 9347TIP3    H128005   4.672   5.930   3.904  1.3380 -1.1057 -0.3586
 9347TIP3    H228006   4.742   5.867   4.022 -0.1813  0.0988  1.2419
 9348TIP3   OH228007   0.115   4.948   1.781 -0.0885  0.1040  0.0747
 9348TIP3    H128008   0.052   5.015   1.808 -0.1746 -0.1574  0.5349
 9348TIP3    H228009   0.182   4.949   1.850  1.1465  1.3203 -1.0767
 9349TIP3   OH228010   2.644   3.898   1.139 -0.0918  0.5582 -0.1875
 9349TIP3    H128011   2.688   3.866   1.217 -1.2286  2.0204  1.1248
 9349TIP3    H228012   2.600   3.821   1.102  2.3304 -0.6293 -0.7574
 9350TIP3   OH228013   3.752   1.790   1.771  0.1884  0.5197  0.5919
 9350TIP3    H128014   3.845   1.771   1.770  0.2625  0.8689  0.4591
 9350TIP3    H228015   3.711   1.715   1.814  0.2555 -0.7986 -1.4782
 9351TIP3   OH228016   5.876   1.565   5.826  0.0855  0.4769  0.3634
 9351TIP3    H128017   5.839   1.479   5.807  0.5142  0.3374  0.1542
 9351TIP3    H228018   5.970   1.555   5.811 -0.1048  1.6217 -2.1260
 9352TIP3   OH228019   2.637   4.018   2.451  0.0141  0.2396  0.4501
 9352TIP3    H128020   2.631   3.991   2.543 -1.2604  0.4398  0.4496
 9352TIP3    H228021   2.685   3.947   2.408 -0.7791 -0.6505  0.9806
 9353TIP3   OH228022   0.921   1.633   1.684  0.8373  0.0080 -0.2047
 9353TIP3    H128023   0.934   1.540   1.668  1.1671 -0.3251  1.7507
 9353TIP3    H228024   0.981   1.676   1.623  3.3424 -1.1996  1.2573
 9354TIP3   OH228025   2.776   1.201  -0.022  0.1478  0.7147  0.3968
 9354TIP3    H128026   2.786   1.106  -0.010 -2.5198  0.2586 -0.4590
 9354TIP3    H228027   2.744   1.233   0.062 -0.2812  0.6325  0.2643
 9355TIP3   OH228028   4.825   1.500   5.547  0.6741  0.1533 -0.2798
 9355TIP3    H128029   4.731   1.520   5.543  0.2202 -1.6059  0.2776
 9355TIP3    H228030   4.854   1.537   5.630  0.5354  0.9190 -0.5690
 9356TIP3   OH228031   3.840   4.308   3.763  0.3271  0.0867 -0.1427
 9356TIP3    H128032   3.866   4.378   3.703  2.4293  0.1674  0.7637
 9356TIP3    H228033   3.814   4.354   3.843 -0.0746 -0.1048 -0.1620
 9357TIP3   OH228034   4.334   0.574   2.416 -0.2045  0.0083 -0.7580
 9357TIP3    H128035   4.289   0.601   2.496 -0.3315 -0.5348 -0.6363
 9357TIP3    H228036   4.313   0.641   2.351 -0.5568  0.1596 -0.4878
 9358TIP3   OH228037   1.681   4.396   4.746 -0.3939  0.2420 -0.1766
 9358TIP3    H128038   1.696   4.332   4.675  0.7438  0.1278  0.1492
 9358TIP3    H228039   1.682   4.343   4.826  1.2326  0.7301  0.1558
 9359TIP3   OH228040   2.323   5.018   3.456  0.2971 -0.1599  0.2153
 9359TIP3    H128041   2.303   5.080   3.526 -2.4967  0.3502 -0.8953
 9359TIP3    H228042   2.320   5.071   3.376  1.3739 -1.1096 -0.4964
 9360TIP3   OH228043   1.446   4.923   2.483 -0.4870 -0.6755 -0.3879
 9360TIP3    H128044   1.364   4.893   2.445 -1.2426 -1.0433  1.4300
 9360TIP3    H228045   1.421   4.992   2.544  0.6779 -0.0890 -0.5353
 9361TIP3   OH228046   5.165   2.765   2.364 -0.1645 -0.1442  0.2801
 9361TIP3    H128047   5.260   2.761   2.354 -0.2343 -1.0312 -0.2047
 9361TIP3    H228048   5.150   2.836   2.426  0.8190 -0.0537  0.4329
 9362TIP3   OH228049   1.175   6.621   2.106 -1.0180 -0.1956  0.1763
 9362TIP3    H128050   1.231   6.548   2.131 -1.8322 -0.6906  0.5857
 9362TIP3    H228051   1.150   6.662   2.189  0.1932  1.1535 -0.0804
 9363TIP3   OH228052   3.773   6.050   1.816  0.5108 -0.4494 -0.0700
 9363TIP3    H128053   3.711   6.045   1.889  2.1858  0.6657  1.5125
 9363TIP3    H228054   3.799   6.142   1.813  2.5042 -0.9716 -0.2850
 9364TIP3   OH228055   5.216   4.534   1.191  0.0732  0.7451 -0.7226
 9364TIP3    H128056   5.168   4.571   1.264  1.1353 -1.3319  1.1393
 9364TIP3    H228057   5.160   4.462   1.159  1.2653 -0.8797  0.6590
 9365TIP3   OH228058   1.958   1.857   3.699 -0.4132 -0.0892 -0.0552
 9365TIP3    H128059   1.868   1.829   3.682 -0.1888  0.0032 -1.5434
 9365TIP3    H228060   1.951   1.916   3.773 -1.3712 -1.2466  0.8088
 9366TIP3   OH228061   3.147   4.223   5.586  0.1856  0.0344  0.2147
 9366TIP3    H128062   3.173   4.144   5.538  0.4086  0.8658 -1.0811
 9366TIP3    H228063   3.224   4.246   5.638  1.7249  1.7004 -2.5596
 9367TIP3   OH228064   5.021   5.137   2.408  0.4283  0.0589  0.2693
 9367TIP3    H128065   5.070   5.181   2.338 -0.2426 -0.3114 -0.4360
 9367TIP3    H228066   5.077   5.147   2.485  1.1276  0.5671 -0.2886
 9368TIP3   OH228067   4.217   0.391   1.533 -0.6922  0.5381 -0.0988
 9368TIP3    H128068   4.280   0.318   1.528 -0.9952  0.3153 -0.6406
 9368TIP3    H228069   4.182   0.385   1.622 -0.9444 -0.1725 -0.2422
 9369TIP3   OH228070   2.431   5.965   0.005 -0.7967  0.3889  0.2037
 9369TIP3    H128071   2.505   6.014   0.041 -1.2685  1.1349  0.1775
 9369TIP3    H228072   2.396   5.916   0.079  0.7481 -1.3434 -0.1176
 9370TIP3   OH228073   0.520  -0.002   0.998 -0.0253  0.1972 -0.7079
 9370TIP3    H128074   0.440  -0.017   1.048  0.1675  0.6987 -0.2459
 9370TIP3    H228075   0.560   0.075   1.038  0.7321 -0.0969 -0.8821
 9371TIP3   OH228076   2.702   4.144   4.920  0.0349  0.1458 -0.3063
 9371TIP3    H128077   2.687   4.135   4.826  1.8910 -2.0174 -0.4839
 9371TIP3    H228078   2.664   4.229   4.942 -1.9673 -0.0219 -2.6521
 9372TIP3   OH228079   4.774   1.329   1.938  0.4874  0.2845  0.0496
 9372TIP3    H128080   4.733   1.368   2.016  1.3869  1.2229  0.0743
 9372TIP3    H228081   4.807   1.404   1.889  0.9759 -0.3784 -0.6448
 9373TIP3   OH228082   3.260   1.521   0.863 -0.0986 -0.1680 -0.0337
 9373TIP3    H128083   3.329   1.493   0.804 -0.3148 -0.6389 -0.0689
 9373TIP3    H228084   3.223   1.600   0.822  1.1491  0.7521  0.5519
 9374TIP3   OH228085   6.167   6.534   2.053 -0.2107 -0.2150 -0.3095
 9374TIP3    H128086   6.245   6.487   2.084 -0.0311 -0.1000 -0.5871
 9374TIP3    H228087   6.200   6.599   1.991 -0.2777  1.3246  1.1769
 9375TIP3   OH228088   5.325   3.204   0.790  0.1614 -0.0368 -0.0669
 9375TIP3    H128089   5.250   3.155   0.757 -0.1286  0.0271  0.4893
 9375TIP3    H228090   5.357   3.153   0.864  0.2466  0.2845  0.1229
 9376TIP3   OH228091   7.117   2.288   4.812 -0.1623  0.0665 -0.0452
 9376TIP3    H128092   7.073   2.373   4.810  0.8831  0.7484  2.3536
 9376TIP3    H228093   7.209   2.308   4.793  0.4183 -0.1804  2.1404
 9377TIP3   OH228094   5.594   0.749   0.885 -0.1775  0.1404 -0.0630
 9377TIP3    H128095   5.578   0.757   0.979  0.5664 -0.1491  0.0906
 9377TIP3    H228096   5.668   0.807   0.867  1.3602 -1.6889  0.0035
 9378TIP3   OH228097   2.529   2.853   2.775  0.5907 -0.2439  0.9238
 9378TIP3    H128098   2.538   2.939   2.734 -1.7575 -0.2639  0.2386
 9378TIP3    H228099   2.528   2.791   2.702 -0.3381 -0.5883  1.2133
 9379TIP3   OH228100   2.381   3.241   5.291 -0.2953  0.4570 -0.0345
 9379TIP3    H128101   2.409   3.280   5.209 -2.8272 -2.3163 -2.4971
 9379TIP3    H228102   2.429   3.158   5.295 -0.9366  0.1146  0.7672
 9380TIP3   OH228103   5.448   5.091   1.048  0.3017  0.7028  0.1413
 9380TIP3    H128104   5.370   5.038   1.068  1.3279 -1.0142 -0.1903
 9380TIP3    H228105   5.503   5.081   1.125  2.1154 -1.8702 -1.3236
 9381TIP3   OH228106   3.577   4.508   3.422  0.5251  0.7564  0.7387
 9381TIP3    H128107   3.601   4.445   3.491 -0.9800 -0.7955 -0.0820
 9381TIP3    H228108   3.488   4.535   3.445  0.2680  0.7479 -0.2277
 9382TIP3   OH228109   2.773   4.142   3.347  0.1742  0.2791  0.2136
 9382TIP3    H128110   2.702   4.079   3.341  0.5798 -0.1320 -0.3724
 9382TIP3    H228111   2.832   4.119   3.276  1.5813 -0.2433  1.4950
 9383TIP3   OH228112   2.432   3.930   5.376 -0.3146 -0.4761  0.2584
 9383TIP3    H128113   2.517   3.895   5.403  1.0650  2.0765 -0.4069
 9383TIP3    H228114   2.427   3.910   5.282 -0.5578 -0.8069  0.3404
 9384TIP3   OH228115   2.930   3.114   4.422  0.0705  0.2819 -0.1789
 9384TIP3    H128116   2.915   3.038   4.365  1.6039 -0.2869  0.1231
 9384TIP3    H228117   3.019   3.141   4.403 -0.1863  1.5439  0.2953
 9385TIP3   OH228118   1.750   4.838   1.889 -0.3585 -0.1060  0.2005
 9385TIP3    H128119   1.723   4.785   1.964  0.9740 -0.7947  0.2272
 9385TIP3    H228120   1.759   4.775   1.817  0.9843  0.1099  0.1619
 9386TIP3   OH228121   5.615   1.297   4.897  0.1106  0.2930  0.7985
 9386TIP3    H128122   5.686   1.350   4.935  0.6561 -0.8411  1.3962
 9386TIP3    H228123   5.537   1.353   4.906  1.3185  2.9385 -2.7310
 9387TIP3   OH228124   6.588   4.752   2.554  0.9713 -0.2945  0.5777
 9387TIP3    H128125   6.639   4.682   2.514 -0.9485 -1.1651 -0.4713
 9387TIP3    H228126   6.618   4.832   2.511  0.7010 -0.9179 -0.8212
 9388TIP3   OH228127   1.906   2.762   5.904  0.0061  0.0573  0.2029
 9388TIP3    H128128   1.848   2.716   5.842 -0.1797 -0.8702  1.0352
 9388TIP3    H228129   1.992   2.758   5.863 -0.2680  0.2308 -0.4083
 9389TIP3   OH228130   6.085   6.449   5.213 -0.0478  0.1831 -0.1105
 9389TIP3    H128131   6.036   6.367   5.211 -0.3429  0.1187  3.1280
 9389TIP3    H228132   6.156   6.432   5.276  0.5345  2.0836 -0.2019
 9390TIP3   OH228133   4.407   5.494   0.399  0.1634 -0.0853 -0.2172
 9390TIP3    H128134   4.430   5.457   0.485  1.2359 -0.6219 -0.7033
 9390TIP3    H228135   4.414   5.419   0.339  0.0792  0.4229 -0.8683
 9391TIP3   OH228136   5.027   1.113   4.631 -0.6146 -0.1486  0.4574
 9391TIP3    H128137   5.085   1.171   4.679 -1.1465  2.2041 -1.5499
 9391TIP3    H228138   4.948   1.165   4.615 -1.3106 -1.5628 -1.0451
 9392TIP3   OH228139   6.102   6.692   4.585 -0.5021 -0.2667 -0.0754
 9392TIP3    H128140   6.129   6.653   4.668 -1.4083 -0.2080  0.2553
 9392TIP3    H228141   6.134   6.782   4.589  0.4367 -0.5752 -0.2797
 9393TIP3   OH228142   6.426   2.357   0.105 -0.2530 -0.0394  0.0680
 9393TIP3    H128143   6.376   2.431   0.141 -1.4082 -0.3827 -0.7468
 9393TIP3    H228144   6.473   2.395   0.031  3.0409  0.9340  2.4389
 9394TIP3   OH228145   3.385   0.479   4.380  0.8331 -0.1182 -0.1675
 9394TIP3    H128146   3.373   0.496   4.286 -1.2176  1.2837  0.2784
 9394TIP3    H228147   3.421   0.560   4.415  0.1120 -0.0813  0.5044
 9395TIP3   OH228148   5.531   2.951   5.832  0.2040  0.4091  0.1690
 9395TIP3    H128149   5.590   2.886   5.795 -0.0872  0.4344 -0.3453
 9395TIP3    H228150   5.494   2.997   5.756 -0.5791  0.2963  0.4730
 9396TIP3   OH228151   4.791   4.273   2.547  0.2190 -0.1512 -0.2766
 9396TIP3    H128152   4.786   4.213   2.621  0.6933  0.4624  0.2656
 9396TIP3    H228153   4.726   4.240   2.485  0.2436 -1.0234  0.1502
 9397TIP3   OH228154   6.205   3.285   1.490 -0.0160  0.3883  0.0115
 9397TIP3    H128155   6.264   3.345   1.535 -1.9862  0.9456  2.0166
 9397TIP3    H228156   6.262   3.218   1.453  1.9633  1.7356  0.4938
 9398TIP3   OH228157   0.997   0.879   2.708  0.0480  0.1370  0.2257
 9398TIP3    H128158   0.964   0.930   2.782 -1.3973 -1.8725  1.0546
 9398TIP3    H228159   1.010   0.791   2.743  0.0106 -0.6976 -1.7326
 9399TIP3   OH228160   6.682   2.588   1.014 -0.1772 -0.2968  0.0733
 9399TIP3    H128161   6.667   2.574   0.921 -0.2875  1.3459 -0.1725
 9399TIP3    H228162   6.675   2.682   1.027  2.5106 -0.1566  1.2741
 9400TIP3   OH228163   3.995   5.649   3.295  0.6132 -0.0914 -0.2704
 9400TIP3    H128164   3.945   5.574   3.328  0.0370 -0.3536 -1.6609
 9400TIP3    H228165   3.974   5.720   3.355  0.2175 -0.7445  0.3825
 9401TIP3   OH228166   6.424   1.375   2.915 -0.3953  0.2115  0.5611
 9401TIP3    H128167   6.342   1.380   2.866 -1.1796 -1.0516  1.6833
 9401TIP3    H228168   6.421   1.450   2.974 -0.5200  0.4127  0.3044
 9402TIP3   OH228169   1.178   4.354   0.356  0.3447 -0.8612 -0.2609
 9402TIP3    H128170   1.131   4.382   0.434  2.1312 -1.4861  1.1203
 9402TIP3    H228171   1.220   4.433   0.323  0.2232 -0.7431 -0.1320
 9403TIP3   OH228172   3.588   6.167   2.916 -0.0912 -0.3398  0.1302
 9403TIP3    H128173   3.627   6.110   2.982 -3.0025 -1.3551  1.1594
 9403TIP3    H228174   3.523   6.219   2.965  0.0052  1.3190 -1.4019
 9404TIP3   OH228175   2.536   1.697   1.494 -0.1793 -0.3653  0.0906
 9404TIP3    H128176   2.472   1.745   1.440 -0.3791 -0.2215  0.4513
 9404TIP3    H228177   2.605   1.761   1.511 -1.2566  0.3961  2.0253
 9405TIP3   OH228178   6.074   4.690   0.184 -0.4387  0.1171  0.1197
 9405TIP3    H128179   5.986   4.727   0.191  0.2306  1.5583  1.3684
 9405TIP3    H228180   6.105   4.716   0.097 -1.4730 -1.0348 -0.6422
 9406TIP3   OH228181   6.047   4.425   2.990 -0.3970 -0.2148 -0.2318
 9406TIP3    H128182   6.104   4.500   3.007  0.0132 -0.2466 -1.4175
 9406TIP3    H228183   6.076   4.359   3.053  0.4744 -0.0160 -0.4092
 9407TIP3   OH228184   6.803   1.573   3.200 -0.0283  0.8570 -0.2466
 9407TIP3    H128185   6.762   1.487   3.195 -0.9402  1.2377  0.3749
 9407TIP3    H228186   6.837   1.589   3.112  1.1257 -0.5855 -0.1051
 9408TIP3   OH228187   6.993   0.278   2.337 -0.4538  0.1702 -0.1608
 9408TIP3    H128188   7.052   0.203   2.349 -0.2701  0.6644  2.5194
 9408TIP3    H228189   6.908   0.238   2.315  0.2024 -0.6627 -1.3273
 9409TIP3   OH228190   4.028   3.227   4.744 -0.5806  0.1329  0.3184
 9409TIP3    H128191   3.978   3.243   4.824 -0.9686  0.3185  0.0370
 9409TIP3    H228192   4.012   3.135   4.724  0.1417 -0.1298  0.8820
 9410TIP3   OH228193   4.331   1.270   4.118  0.5839  0.5982  0.4933
 9410TIP3    H128194   4.255   1.328   4.129  0.1715 -0.0332  1.0166
 9410TIP3    H228195   4.345   1.232   4.204  0.4666 -0.5489  0.0170
 9411TIP3   OH228196   6.061   1.973   1.782 -0.1194  0.5425  0.5198
 9411TIP3    H128197   6.047   1.881   1.759 -1.0278  0.7765  0.0667
 9411TIP3    H228198   6.124   2.005   1.717 -1.4527  0.7818 -0.7103
 9412TIP3   OH228199   1.683   4.911   1.505 -0.2742 -0.0449  0.4800
 9412TIP3    H128200   1.697   4.828   1.551  1.6249 -0.4915 -0.7562
 9412TIP3    H228201   1.670   4.976   1.574 -1.0330 -1.2344  1.4883
 9413TIP3   OH228202   0.645   1.576   2.055 -0.2833  1.1404 -0.0409
 9413TIP3    H128203   0.684   1.549   2.138  1.2920  0.8464 -0.8357
 9413TIP3    H228204   0.697   1.653   2.028 -0.7718  1.2299 -0.7484
 9414TIP3   OH228205   6.053   5.301   2.345  0.1228 -0.3756 -0.2841
 9414TIP3    H128206   6.095   5.338   2.423  1.8897 -1.5334 -0.6409
 9414TIP3    H228207   5.989   5.238   2.380 -0.6593  0.6676  0.2375
 9415TIP3   OH228208   2.225   0.119   3.982 -0.0579 -0.5729  0.3855
 9415TIP3    H128209   2.295   0.183   3.993  0.4765 -0.7697 -1.5725
 9415TIP3    H228210   2.269   0.034   3.982 -0.3784 -0.7440 -0.0863
 9416TIP3   OH228211   2.787   1.312   4.606 -0.1692 -0.1140 -0.1054
 9416TIP3    H128212   2.806   1.373   4.677 -0.2719 -0.9404  0.6649
 9416TIP3    H228213   2.729   1.247   4.646  0.9921 -1.4546 -0.5179
 9417TIP3   OH228214   3.345   5.690   0.211 -0.0922  0.3349 -0.0429
 9417TIP3    H128215   3.321   5.620   0.272 -1.2290  0.3368 -0.4730
 9417TIP3    H228216   3.360   5.645   0.128  3.5920  0.0226  0.6212
 9418TIP3   OH228217   4.002   1.633   3.289  0.2017  0.2274 -0.3877
 9418TIP3    H128218   4.056   1.574   3.341  1.2070  1.4673  0.0252
 9418TIP3    H228219   4.023   1.610   3.198  0.6002 -0.0248 -0.2334
 9419TIP3   OH228220   1.449   6.048   5.723 -0.4688  0.2658  0.2178
 9419TIP3    H128221   1.416   6.045   5.633  0.7399  0.8559 -0.2588
 9419TIP3    H228222   1.379   6.090   5.773 -0.9510  0.3741 -0.5372
 9420TIP3   OH228223   1.758   2.140   2.403  0.3921 -0.5581 -0.5197
 9420TIP3    H128224   1.719   2.066   2.357 -2.5945 -0.0056  0.9057
 9420TIP3    H228225   1.731   2.129   2.494  0.8891  1.6479 -0.0519
 9421TIP3   OH228226   1.879   0.723   4.611 -0.5782 -0.3947  0.0473
 9421TIP3    H128227   1.937   0.694   4.541 -1.3353 -0.4500 -0.5619
 9421TIP3    H228228   1.841   0.643   4.646  0.0290 -0.3928  0.7379
 9422TIP3   OH228229   5.261   3.767   0.666 -0.4865 -0.1467 -0.2099
 9422TIP3    H128230   5.183   3.782   0.719 -0.3261 -2.2328  0.7245
 9422TIP3    H228231   5.232   3.704   0.600  0.4106 -1.0579  0.2418
 9423TIP3   OH228232   0.444   0.060   4.949  0.1533 -0.5359  0.3082
 9423TIP3    H128233   0.355   0.092   4.964 -0.2276 -0.6244 -1.5830
 9423TIP3    H228234   0.483   0.057   5.037 -2.0953 -1.7157  1.3688
 9424TIP3   OH228235   1.599   5.225   4.814 -0.0593 -0.3922  0.2908
 9424TIP3    H128236   1.623   5.148   4.763 -1.1632 -0.4001 -0.2306
 9424TIP3    H228237   1.659   5.223   4.889  1.1532 -0.7388 -0.6382
 9425TIP3   OH228238   0.531   0.635   3.929 -0.1738 -0.0304 -0.6757
 9425TIP3    H128239   0.481   0.581   3.991  0.1897  2.1004  1.6294
 9425TIP3    H228240   0.622   0.621   3.955 -0.0915  1.8294  0.1426
 9426TIP3   OH228241   0.456   4.337   3.765  0.0512  0.3419  0.2485
 9426TIP3    H128242   0.547   4.342   3.795 -0.1326  0.4279  0.7839
 9426TIP3    H228243   0.450   4.250   3.724  0.8809  1.0450 -1.4630
 9427TIP3   OH228244   5.617   4.052   2.178 -0.2481 -0.3320 -0.2281
 9427TIP3    H128245   5.589   3.962   2.166 -0.7060  0.0356 -2.2394
 9427TIP3    H228246   5.599   4.095   2.095 -0.5549  1.7769  0.8417
 9428TIP3   OH228247   0.348   2.748   1.305 -0.4194  0.0735  0.4039
 9428TIP3    H128248   0.345   2.652   1.308 -0.5216  0.0284 -0.6370
 9428TIP3    H228249   0.315   2.776   1.390 -1.0214 -0.8101  0.4737
 9429TIP3   OH228250   0.604   6.059   1.673 -0.1833 -0.0285  0.2789
 9429TIP3    H128251   0.608   6.134   1.732  0.4458  0.3640 -0.2450
 9429TIP3    H228252   0.687   6.062   1.625 -0.2857 -0.8830  0.0340
 9430TIP3   OH228253   1.519   6.654   2.692  0.3432  0.2289 -0.6949
 9430TIP3    H128254   1.426   6.670   2.681 -0.0743 -0.7860  0.9563
 9430TIP3    H228255   1.542   6.705   2.770  0.9707 -0.2082 -0.5900
 9431TIP3   OH228256   0.964   4.532   1.674  0.5151 -0.3883 -0.0420
 9431TIP3    H128257   1.008   4.578   1.746  0.9815  0.1935 -0.6806
 9431TIP3    H228258   0.962   4.441   1.701  1.9103 -0.3887  0.1159
 9432TIP3   OH228259   5.721   0.737   4.662 -0.3431  0.0638 -0.7917
 9432TIP3    H128260   5.654   0.806   4.661 -0.4327 -0.0302 -1.4347
 9432TIP3    H228261   5.752   0.732   4.571  0.2471 -0.1770 -0.5839
 9433TIP3   OH228262   3.284   6.675   5.847  0.3326 -0.3880 -0.2060
 9433TIP3    H128263   3.213   6.690   5.909 -1.4221 -1.8617 -1.7266
 9433TIP3    H228264   3.254   6.600   5.795  2.8476 -0.7917 -1.1791
 9434TIP3   OH228265   4.694   4.591   3.642 -0.1418 -0.1229 -0.2840
 9434TIP3    H128266   4.659   4.565   3.727 -1.4546 -0.8260 -1.0097
 9434TIP3    H228267   4.696   4.510   3.591  3.9996 -0.4741  0.1156
 9435TIP3   OH228268   5.716   2.830   2.991  0.5826 -0.4862 -0.0012
 9435TIP3    H128269   5.682   2.759   3.046 -1.7918  0.8006  0.3074
 9435TIP3    H228270   5.693   2.910   3.039  0.0908  0.6104 -1.9838
 9436TIP3   OH228271   4.599   2.644   4.272  0.7459  0.1695 -0.5659
 9436TIP3    H128272   4.519   2.640   4.219 -0.2847  4.5874  0.1998
 9436TIP3    H228273   4.651   2.714   4.232  2.4236  0.0126  1.1821
 9437TIP3   OH228274   3.194   4.713   4.725 -0.1648  0.0747 -0.3992
 9437TIP3    H128275   3.241   4.630   4.715  1.0218  0.6108  0.4559
 9437TIP3    H228276   3.207   4.737   4.816 -2.0340  0.3241 -0.1745
 9438TIP3   OH228277   0.468   3.487   2.466  0.1954 -0.1433 -0.0627
 9438TIP3    H128278   0.535   3.555   2.475 -1.0539  1.2660 -0.9550
 9438TIP3    H228279   0.463   3.448   2.552  0.9372  0.9189  0.4942
 9439TIP3   OH228280   2.347   0.119   5.545  0.1855  0.2829 -0.1317
 9439TIP3    H128281   2.364   0.189   5.481  0.1063  0.6899  0.2825
 9439TIP3    H228282   2.402   0.047   5.517 -0.0139  0.3760 -0.7933
 9440TIP3   OH228283   5.382   0.526   3.773 -0.1945  0.0095 -0.4824
 9440TIP3    H128284   5.423   0.456   3.824 -0.3496  1.2588  1.4597
 9440TIP3    H228285   5.423   0.520   3.686 -0.1880 -2.4242 -0.3788
 9441TIP3   OH228286   2.300   5.294   0.250 -0.3584  0.6285 -0.3805
 9441TIP3    H128287   2.341   5.380   0.246 -0.0791  0.6236  1.2780
 9441TIP3    H228288   2.358   5.243   0.308 -1.4485 -0.1195  0.0946
 9442TIP3   OH228289   2.002   2.999   2.911  0.0233  0.1084 -0.0244
 9442TIP3    H128290   1.921   3.033   2.870  0.8108 -0.0690 -1.8355
 9442TIP3    H228291   2.036   2.937   2.847  1.5932  0.1694  0.7169
 9443TIP3   OH228292   4.057   2.081   3.634 -0.2164  0.0793 -0.4824
 9443TIP3    H128293   4.069   1.994   3.596 -2.0419 -0.5708  0.3439
 9443TIP3    H228294   4.093   2.141   3.569 -0.2572 -1.2014 -1.7219
 9444TIP3   OH228295   2.902   1.951   2.454 -0.5527  0.1257 -0.1348
 9444TIP3    H128296   2.973   1.976   2.513  1.0705 -0.7728 -1.5942
 9444TIP3    H228297   2.898   1.856   2.461 -1.2596  0.1311 -0.4517
 9445TIP3   OH228298   3.913   1.875   4.975  0.0014 -0.0990 -0.8814
 9445TIP3    H128299   4.003   1.842   4.967 -0.3314 -0.8662 -1.6249
 9445TIP3    H228300   3.914   1.960   4.930  0.3905 -0.0229 -0.7339
 9446TIP3   OH228301   2.740   2.850   4.695  0.4042 -0.3850  0.5955
 9446TIP3    H128302   2.718   2.882   4.782 -2.0266 -0.7124  0.1933
 9446TIP3    H228303   2.789   2.769   4.710  1.4540  0.4129  1.6185
 9447TIP3   OH228304   4.899   2.753   4.203 -0.1360  0.0472 -0.2194
 9447TIP3    H128305   4.976   2.740   4.149  0.4136 -1.5532  0.8731
 9447TIP3    H228306   4.929   2.807   4.276 -0.2493  0.1124 -0.2202
 9448TIP3   OH228307   4.077   5.849   5.584 -0.6729  0.1256 -0.2809
 9448TIP3    H128308   4.135   5.798   5.527 -0.0163  2.6175 -1.9890
 9448TIP3    H228309   4.048   5.786   5.650  1.0368 -2.1278 -1.5180
 9449TIP3   OH228310   1.909   5.905   2.681 -0.3154 -0.9259 -0.4610
 9449TIP3    H128311   1.971   5.970   2.648 -0.5993 -0.7646 -0.6815
 9449TIP3    H228312   1.841   5.900   2.614 -1.3703  0.0757  0.5075
 9450TIP3   OH228313   5.370   0.997   3.618  0.2560 -0.0720 -0.7916
 9450TIP3    H128314   5.293   0.960   3.662 -0.2802  1.9077  0.0394
 9450TIP3    H228315   5.437   0.929   3.627 -0.2963 -0.3830  1.8009
 9451TIP3   OH228316   0.606   2.847   3.573  0.3318  0.1412  0.0659
 9451TIP3    H128317   0.537   2.851   3.638 -1.1491 -0.4553 -1.3877
 9451TIP3    H228318   0.575   2.903   3.502  1.4834  0.0972 -0.4913
 9452TIP3   OH228319   4.135   3.185   0.311  0.3467  0.5880 -0.2877
 9452TIP3    H128320   4.097   3.145   0.389 -1.2335 -1.0315 -1.8041
 9452TIP3    H228321   4.068   3.246   0.281  0.9921  1.2780 -0.3652
 9453TIP3   OH228322   3.963   5.648   0.576  0.0470  0.0842 -0.5501
 9453TIP3    H128323   4.053   5.677   0.568  0.5385 -1.2402 -0.0517
 9453TIP3    H228324   3.964   5.557   0.546 -0.8488 -0.3661  0.6861
 9454TIP3   OH228325   4.899   3.119   1.915 -0.2254 -0.0508 -0.5037
 9454TIP3    H128326   4.949   3.040   1.937 -0.7784 -0.3376 -0.2477
 9454TIP3    H228327   4.866   3.151   1.999 -0.7039 -0.0270 -0.6967
 9455TIP3   OH228328   5.258   1.461   5.820 -0.0269 -0.0834  0.2041
 9455TIP3    H128329   5.293   1.443   5.733  0.3945 -0.4008  0.4353
 9455TIP3    H228330   5.182   1.403   5.828 -0.1797  0.0857 -0.0256
 9456TIP3   OH228331   2.357   3.261   2.676 -0.2751  0.2821 -0.2716
 9456TIP3    H128332   2.295   3.260   2.749  0.3648 -1.3163  0.2856
 9456TIP3    H228333   2.344   3.347   2.635 -0.6798  1.2053  1.6839
 9457TIP3   OH228334   3.186   0.035   1.831  0.1129 -0.1564  0.0099
 9457TIP3    H128335   3.115   0.053   1.892  0.7977  0.1548  0.7318
 9457TIP3    H228336   3.237  -0.035   1.872 -0.1585 -0.8567 -0.8240
 9458TIP3   OH228337   0.871   2.976   5.663  0.5143 -0.3468 -0.1439
 9458TIP3    H128338   0.964   2.993   5.648  0.3991  1.3412  0.7455
 9458TIP3    H228339   0.826   3.022   5.592  0.3360 -0.5177 -0.1411
 9459TIP3   OH228340   0.832   0.950   0.099  0.4265 -0.2455 -0.6868
 9459TIP3    H128341   0.754   0.928   0.151  0.4056  1.2190 -0.0448
 9459TIP3    H228342   0.798   1.006   0.029  1.1406  2.6938  1.1255
 9460TIP3   OH228343   6.886   2.143   3.855  0.2609 -0.5377 -0.6302
 9460TIP3    H128344   6.922   2.200   3.787  0.9705 -0.7409 -0.4374
 9460TIP3    H228345   6.821   2.197   3.900 -0.3336 -0.4597 -1.5676
 9461TIP3   OH228346   1.654   4.206   1.097 -0.1552  0.2164  0.2739
 9461TIP3    H128347   1.627   4.273   1.159 -0.5896  0.0138  0.3055
 9461TIP3    H228348   1.600   4.222   1.019  0.2451  0.3467  0.0180
 9462TIP3   OH228349   0.078   1.395   4.489  0.2159 -0.0517 -0.0061
 9462TIP3    H128350   0.032   1.311   4.495 -1.4042  0.8675  1.6398
 9462TIP3    H228351   0.167   1.375   4.516 -0.2188 -1.2042  0.6678
 9463TIP3   OH228352   0.521   4.562   3.434 -0.5081 -0.0955 -0.0152
 9463TIP3    H128353   0.481   4.599   3.355 -1.3273  0.2089  0.5391
 9463TIP3    H228354   0.460   4.583   3.504 -0.0932 -0.9209  0.6039
 9464TIP3   OH228355   4.811   4.794   3.429  0.1074 -0.1338  0.5295
 9464TIP3    H128356   4.776   4.873   3.387  1.5921  0.9872  1.3200
 9464TIP3    H228357   4.739   4.763   3.485 -0.1880  1.2000  0.9187
 9465TIP3   OH228358   4.050   0.046   5.014  0.9370  0.0679  0.4971
 9465TIP3    H128359   4.082  -0.010   4.943  0.1304 -0.3054  0.4181
 9465TIP3    H228360   3.959   0.019   5.027  1.1873 -0.1614  1.9640
 9466TIP3   OH228361   0.523   4.175   2.786 -0.1061 -0.1596 -0.4366
 9466TIP3    H128362   0.462   4.104   2.803  0.5404 -0.5416  0.3300
 9466TIP3    H228363   0.593   4.163   2.850  0.6000  0.4768 -1.0646
 9467TIP3   OH228364   6.833   5.822   1.446  0.4005 -0.7280  0.2784
 9467TIP3    H128365   6.855   5.798   1.536  0.2023 -1.3169  0.1769
 9467TIP3    H228366   6.910   5.796   1.395  0.9419  0.5550  0.4063
 9468TIP3   OH228367   6.084   4.961   1.787 -0.0359 -0.0913 -0.1456
 9468TIP3    H128368   6.007   4.970   1.844 -1.0699  0.0292 -1.5169
 9468TIP3    H228369   6.159   4.969   1.847 -1.0683 -1.0376  1.3447
 9469TIP3   OH228370   3.590   0.676   3.211  0.4248 -0.5151 -0.0376
 9469TIP3    H128371   3.637   0.632   3.140  1.0904 -0.6769  0.4989
 9469TIP3    H228372   3.502   0.692   3.175  0.8526 -0.2830 -1.0159
 9470TIP3   OH228373   6.558   1.908   4.005 -0.1325  0.2885  0.2594
 9470TIP3    H128374   6.594   1.847   4.069 -1.6795 -0.5258  0.4024
 9470TIP3    H228375   6.633   1.934   3.952  0.4881 -2.2233 -0.2196
 9471TIP3   OH228376   2.702   4.913   5.848 -0.7321 -0.3358 -0.2027
 9471TIP3    H128377   2.643   4.894   5.775  0.5289 -0.4157 -1.2335
 9471TIP3    H228378   2.763   4.978   5.813 -0.0163 -0.4795  0.7341
 9472TIP3   OH228379   4.933   1.858   5.199  0.3982  0.5184 -0.4816
 9472TIP3    H128380   5.020   1.846   5.237 -0.2865  0.3640  1.0835
 9472TIP3    H228381   4.892   1.772   5.204 -0.5894  1.0281  0.7391
 9473TIP3   OH228382   4.551   4.013   4.259 -0.4895  0.3771 -0.1689
 9473TIP3    H128383   4.531   3.931   4.214 -1.1211 -0.0126  0.7997
 9473TIP3    H228384   4.603   4.063   4.195  0.9060 -1.2248 -0.3682
 9474TIP3   OH228385   1.037   6.291   3.092 -0.4865  0.5364 -0.5076
 9474TIP3    H128386   1.040   6.378   3.132 -0.1257  0.4792 -0.4111
 9474TIP3    H228387   1.089   6.301   3.012 -0.4740  0.4141 -0.5135
 9475TIP3   OH228388   4.605   1.722   3.845 -0.9126  0.0023 -0.2122
 9475TIP3    H128389   4.535   1.751   3.903 -1.0327  2.4536 -1.4727
 9475TIP3    H228390   4.682   1.715   3.902 -1.1295  1.8893  0.3826
 9476TIP3   OH228391   4.889   3.858   0.858 -0.3209 -0.0050 -0.2180
 9476TIP3    H128392   4.816   3.892   0.806 -0.4568 -2.7724 -2.0336
 9476TIP3    H228393   4.951   3.825   0.793  1.0510 -0.6608  1.3580
 9477TIP3   OH228394   3.507   4.098   5.697 -0.0213 -0.1704 -0.8217
 9477TIP3    H128395   3.486   4.035   5.628 -0.5683  0.3851 -1.1837
 9477TIP3    H228396   3.602   4.094   5.705  0.0290 -0.4348 -1.4338
 9478TIP3   OH228397   0.968   1.315   5.617  0.2963  0.3822  0.9848
 9478TIP3    H128398   0.951   1.369   5.694 -0.7002 -0.1688  1.1628
 9478TIP3    H228399   1.042   1.260   5.643  0.3324  0.5924  1.3452
 9479TIP3   OH228400   0.025   4.489   0.274  0.0653 -0.1509 -0.2894
 9479TIP3    H128401   0.013   4.558   0.340 -0.4274  1.8891 -2.3705
 9479TIP3    H228402   0.116   4.462   0.285  1.2458  2.9656 -1.1797
 9480TIP3   OH228403   1.484   0.090   5.427 -0.2406  0.3632 -0.2431
 9480TIP3    H128404   1.465   0.171   5.474  1.0796  0.2025  0.6304
 9480TIP3    H228405   1.450   0.020   5.484  2.8746  0.0503  1.4962
 9481TIP3   OH228406   1.218   6.192   3.753 -0.1375 -0.1209  0.1634
 9481TIP3    H128407   1.238   6.284   3.770  1.1724 -0.1777 -0.8798
 9481TIP3    H228408   1.189   6.157   3.837 -0.0974  1.1059  0.7008
 9482TIP3   OH228409   6.045   0.448  -0.007  0.1314 -0.3475  0.3358
 9482TIP3    H128410   6.052   0.543   0.000 -2.5710 -0.0674  0.6321
 9482TIP3    H228411   6.126   0.414   0.030  0.9697  1.8390  0.6159
 9483TIP3   OH228412   1.889   1.001   5.278  0.3014  0.1613 -0.3315
 9483TIP3    H128413   1.856   1.014   5.189  0.2180  1.2582 -0.1512
 9483TIP3    H228414   1.955   1.069   5.289 -0.4744  0.7375  0.8296
 9484TIP3   OH228415   5.951   6.358   1.968  0.0202 -0.2897  0.5582
 9484TIP3    H128416   5.973   6.432   2.025 -0.3118  0.5699 -0.4039
 9484TIP3    H228417   5.856   6.349   1.976 -0.2700  0.9035 -1.0822
 9485TIP3   OH228418   1.267   2.588   3.583 -0.0782  0.0253 -0.1195
 9485TIP3    H128419   1.182   2.618   3.615 -0.3269 -1.0050  0.2024
 9485TIP3    H228420   1.324   2.589   3.660  1.0201  3.2992 -0.7771
 9486TIP3   OH228421   2.236   3.741   1.078  0.3553 -0.2111 -0.7089
 9486TIP3    H128422   2.278   3.804   1.020  1.2528 -1.2727 -1.2377
 9486TIP3    H228423   2.282   3.750   1.161  0.1406  0.1797 -0.6300
 9487TIP3   OH228424   0.706   6.242   2.542 -0.5201 -0.4291  0.6412
 9487TIP3    H128425   0.734   6.328   2.573 -1.7149 -0.2218  1.2133
 9487TIP3    H228426   0.759   6.226   2.464 -1.7377  1.7871 -0.7429
 9488TIP3   OH228427   2.869   1.601   4.506  0.5107 -0.3242 -0.4680
 9488TIP3    H128428   2.898   1.536   4.570 -2.1236 -0.8245  0.3514
 9488TIP3    H228429   2.943   1.610   4.445  1.2576 -3.5944 -0.2485
 9489TIP3   OH228430   0.331   5.611   2.227  0.6605  0.7494 -0.1657
 9489TIP3    H128431   0.335   5.634   2.134  3.4619  1.4041  0.0280
 9489TIP3    H228432   0.238   5.595   2.243  0.0369  0.8811 -2.9900
 9490TIP3   OH228433   0.846   1.723   1.931 -0.2977 -0.0024 -0.0494
 9490TIP3    H128434   0.870   1.685   1.847  1.0101  0.2889  0.1839
 9490TIP3    H228435   0.863   1.817   1.922  1.0166 -0.1195  0.9137
 9491TIP3   OH228436   3.649   5.137   5.183  0.7145 -0.2623 -0.1186
 9491TIP3    H128437   3.663   5.201   5.112  0.4051 -0.1750 -0.1040
 9491TIP3    H228438   3.678   5.183   5.262 -0.6194  0.3094  0.0593
 9492TIP3   OH228439   6.458   3.660   3.982 -0.6688  0.1636  0.0295
 9492TIP3    H128440   6.408   3.711   3.918 -0.0741  1.1693  0.3465
 9492TIP3    H228441   6.470   3.719   4.056  0.7197 -0.1525  0.0829
 9493TIP3   OH228442   3.421   2.135   4.769  0.3623 -0.4946  0.0963
 9493TIP3    H128443   3.491   2.098   4.822  0.0995 -1.3811 -0.1599
 9493TIP3    H228444   3.422   2.229   4.789  1.9276 -0.4086 -0.2650
 9494TIP3   OH228445   1.698   0.556   5.722 -0.2306 -0.1090  0.1085
 9494TIP3    H128446   1.641   0.632   5.730 -1.9130 -1.4132  1.1938
 9494TIP3    H228447   1.643   0.481   5.746  1.3973 -1.6765 -0.7281
 9495TIP3   OH228448   3.022   0.239  -0.002 -0.1918  0.0969 -0.1986
 9495TIP3    H128449   2.989   0.163   0.046  1.8971 -0.6069  0.2392
 9495TIP3    H228450   3.086   0.279   0.058  1.6962 -0.1740 -1.9056
 9496TIP3   OH228451   1.176   2.856   2.372  0.2381 -0.5691 -0.4085
 9496TIP3    H128452   1.147   2.840   2.462  0.6608  0.1913 -0.1348
 9496TIP3    H228453   1.235   2.931   2.378  0.3335 -0.5595 -1.3120
 9497TIP3   OH228454   4.648   1.958   4.674 -0.4618 -0.4762  0.4476
 9497TIP3    H128455   4.693   2.042   4.678  1.4905 -1.4935  1.3322
 9497TIP3    H228456   4.682   1.916   4.595 -0.8663 -0.7249  0.4032
 9498TIP3   OH228457   4.718   4.291   5.207 -0.3862 -0.5879 -0.0290
 9498TIP3    H128458   4.745   4.203   5.180  0.4375 -0.0690 -0.9536
 9498TIP3    H228459   4.689   4.333   5.127 -0.4625  0.0908  0.3502
 9499TIP3   OH228460   1.482   0.887   3.701  0.0436  0.8099 -0.2472
 9499TIP3    H128461   1.487   0.979   3.678  2.9286  0.3575 -1.9011
 9499TIP3    H228462   1.574   0.859   3.710 -0.7251 -1.2928  2.9422
 9500TIP3   OH228463   5.593   2.000   2.971 -0.1662  0.6772  0.1405
 9500TIP3    H128464   5.517   2.057   2.967 -0.1450  0.6907 -0.0965
 9500TIP3    H228465   5.569   1.931   3.033  0.2093  1.5268  1.2654
 9501TIP3   OH228466   7.181   2.142   4.100  0.2951 -0.3125  0.5754
 9501TIP3    H128467   7.145   2.099   4.178 -0.5631  0.2037  0.4697
 9501TIP3    H228468   7.182   2.235   4.123  0.5665 -0.2174  0.1751
 9502TIP3   OH228469   2.035   3.249   3.207 -0.0524  0.1385 -0.4922
 9502TIP3    H128470   1.993   3.334   3.191  0.4604  0.1547 -1.8561
 9502TIP3    H228471   2.071   3.223   3.122  0.6292 -1.0024  0.1165
 9503TIP3   OH228472   4.281   0.219   4.700 -0.2127 -0.7053  0.0514
 9503TIP3    H128473   4.232   0.210   4.618  0.1567  0.0818 -0.2664
 9503TIP3    H228474   4.362   0.169   4.685 -0.5225 -1.2778  0.2580
 9504TIP3   OH228475   7.222   1.570   1.813  0.4071  0.0081 -0.5370
 9504TIP3    H128476   7.178   1.647   1.777  0.9399  0.2376 -0.6962
 9504TIP3    H228477   7.160   1.536   1.879  0.0279  0.3739 -0.6996
 9505TIP3   OH228478   0.995   5.135   5.214  0.0744 -0.0154  0.2842
 9505TIP3    H128479   0.924   5.188   5.250 -0.3252 -0.3147 -0.0513
 9505TIP3    H228480   1.024   5.183   5.137  0.8886  0.5940  0.9512
 9506TIP3   OH228481   6.856   0.505   0.475 -0.1230 -0.3368 -0.2435
 9506TIP3    H128482   6.905   0.515   0.394  1.5399 -1.4384  0.5727
 9506TIP3    H228483   6.786   0.570   0.469  0.3764  0.0846 -2.2247
 9507TIP3   OH228484   5.066   2.020   1.857 -0.1417  0.1234 -0.2988
 9507TIP3    H128485   4.995   2.083   1.847 -0.1505  0.0229 -0.9706
 9507TIP3    H228486   5.060   1.990   1.948 -0.4216  0.7465 -0.1100
 9508TIP3   OH228487   5.562   1.548   4.656 -0.0147  0.0722  0.5502
 9508TIP3    H128488   5.512   1.588   4.585 -0.2751  0.1898  0.7959
 9508TIP3    H228489   5.646   1.524   4.617 -0.3450 -0.3229  0.0778
 9509TIP3   OH228490   5.081   3.954   2.827 -0.2995 -0.3019  0.0739
 9509TIP3    H128491   5.001   3.901   2.818 -1.8936  1.9521 -0.0372
 9509TIP3    H228492   5.110   3.939   2.917 -1.2211 -0.7021  0.3178
 9510TIP3   OH228493   6.273   5.509   3.691  0.0706  0.2171  0.1834
 9510TIP3    H128494   6.218   5.556   3.753 -0.8865 -0.6125  0.0046
 9510TIP3    H228495   6.310   5.437   3.742 -1.3147 -0.9119 -0.3403
 9511TIP3   OH228496   3.039   5.650   0.517 -0.0283  0.1061 -0.1786
 9511TIP3    H128497   3.054   5.609   0.602  1.4085 -1.0222 -0.9286
 9511TIP3    H228498   3.109   5.715   0.509 -2.1129  2.6706  0.8756
 9512TIP3   OH228499   5.189   1.227   2.097  0.7528  0.4273  0.2580
 9512TIP3    H128500   5.265   1.260   2.145  0.3705 -1.0954  2.0099
 9512TIP3    H228501   5.119   1.223   2.162  0.0813 -1.3440 -0.4987
 9513TIP3   OH228502   1.001   2.578   4.656 -0.3843 -0.0898  0.1325
 9513TIP3    H128503   0.992   2.512   4.587 -1.2970  1.5235 -1.3754
 9513TIP3    H228504   0.914   2.586   4.694 -0.1243 -0.2031  0.7765
 9514TIP3   OH228505   3.985   3.328   2.418  0.2627 -0.3475 -0.4238
 9514TIP3    H128506   3.894   3.357   2.406  0.1359  0.4322  2.0791
 9514TIP3    H228507   3.980   3.233   2.407 -0.2935 -0.1102 -3.0823
 9515TIP3   OH228508   2.469   0.916   1.854  0.0309  0.1826 -0.0503
 9515TIP3    H128509   2.542   0.955   1.806  1.2380  0.7517  2.1458
 9515TIP3    H228510   2.496   0.918   1.945 -1.7156 -1.8708  0.5918
 9516TIP3   OH228511   3.728   2.691   4.619 -0.6012  0.4227  0.1423
 9516TIP3    H128512   3.716   2.786   4.618 -1.3316  0.3491  0.7356
 9516TIP3    H228513   3.663   2.659   4.682  0.2413 -0.3872  0.6270
 9517TIP3   OH228514   5.641   6.221   3.651  0.1049  0.8250 -0.2082
 9517TIP3    H128515   5.570   6.178   3.699  1.7825  0.6687  2.3252
 9517TIP3    H228516   5.645   6.175   3.567 -2.3717  0.4845 -0.2004
 9518TIP3   OH228517   3.471   6.671   1.880  0.5776 -0.0031 -0.4118
 9518TIP3    H128518   3.504   6.607   1.943 -0.7849 -0.0547  0.2826
 9518TIP3    H228519   3.549   6.702   1.834  1.3131 -1.8458 -0.4811
 9519TIP3   OH228520   3.662   3.229   3.546  0.5137  0.2290  0.3732
 9519TIP3    H128521   3.647   3.147   3.498  0.8036  1.1685 -1.3993
 9519TIP3    H228522   3.719   3.281   3.489  1.0159  1.3518  1.8297
 9520TIP3   OH228523   4.373   1.621   3.140 -0.7006  0.1167 -0.0237
 9520TIP3    H128524   4.430   1.549   3.114 -1.4827 -0.0478 -1.3557
 9520TIP3    H228525   4.285   1.588   3.126 -1.1305  0.5684  1.4763
 9521TIP3   OH228526   5.011   4.386   5.170  0.3785  0.0640  0.3210
 9521TIP3    H128527   4.972   4.325   5.233 -2.7999  0.7197 -0.8398
 9521TIP3    H228528   5.052   4.329   5.105  0.9796 -0.6815  1.3125
 9522TIP3   OH228529   5.755   4.589   3.602  0.3237 -0.0348  0.4487
 9522TIP3    H128530   5.813   4.514   3.585 -0.5583 -0.5302 -0.4820
 9522TIP3    H228531   5.693   4.557   3.667 -1.4334 -0.9072 -1.5399
 9523TIP3   OH228532   5.729   5.364   2.231  0.3927 -0.1612  0.0056
 9523TIP3    H128533   5.701   5.346   2.321 -1.8424  1.5365 -0.2569
 9523TIP3    H228534   5.654   5.337   2.177  1.2755 -0.1613 -1.2587
 9524TIP3   OH228535   4.199   2.465   1.031  0.0370 -0.0897 -0.0081
 9524TIP3    H128536   4.244   2.549   1.018  0.8985 -0.7230 -1.4295
 9524TIP3    H228537   4.269   2.400   1.024 -0.9149 -1.0400 -1.1191
 9525TIP3   OH228538   3.832   1.656   1.077  0.4302  0.6031  0.6138
 9525TIP3    H128539   3.822   1.749   1.058 -1.5898  0.5723  1.2179
 9525TIP3    H228540   3.745   1.628   1.105  0.9580 -1.5081  0.3373
 9526TIP3   OH228541   5.338   6.155   5.649 -0.1977  0.3666 -0.3952
 9526TIP3    H128542   5.355   6.135   5.741  0.2359  0.5292 -0.4396
 9526TIP3    H228543   5.245   6.178   5.647 -0.1754  0.5151  0.0288
 9527TIP3   OH228544   6.920   1.132   3.515  0.3975 -0.2923  0.2368
 9527TIP3    H128545   6.977   1.178   3.454  0.6439  0.0406  0.7115
 9527TIP3    H228546   6.851   1.195   3.536 -0.5022 -0.8843 -0.7887
 9528TIP3   OH228547   4.984   3.385   1.376 -0.0395 -0.7291 -0.2668
 9528TIP3    H128548   5.069   3.363   1.336 -0.0089 -2.0556  0.4684
 9528TIP3    H228549   5.001   3.384   1.470 -0.5709  0.3410 -0.1548
 9529TIP3   OH228550   5.213   6.024   2.995  0.3885  0.4867  0.4602
 9529TIP3    H128551   5.247   5.936   3.010 -2.1666 -0.9032 -1.1245
 9529TIP3    H228552   5.205   6.062   3.083 -0.3390 -1.6337  1.3744
 9530TIP3   OH228553   5.495   0.423   5.778 -0.6397  0.0432 -0.3452
 9530TIP3    H128554   5.409   0.402   5.814  0.4698 -1.6823  1.4722
 9530TIP3    H228555   5.511   0.353   5.714  0.1341 -0.7414  0.6643
 9531TIP3   OH228556   3.669   2.789   5.727  0.5296 -0.1023  0.4237
 9531TIP3    H128557   3.715   2.765   5.807 -1.6553 -1.0609  1.4712
 9531TIP3    H228558   3.682   2.714   5.668 -1.0044 -1.1109  1.3271
 9532TIP3   OH228559   5.412   2.876   4.713  0.5755  0.0118  0.0287
 9532TIP3    H128560   5.471   2.948   4.735  0.1988  0.4726 -0.4371
 9532TIP3    H228561   5.391   2.888   4.620 -0.6213  0.1454  0.2908
 9533TIP3   OH228562   2.281   4.661   5.350 -0.1139 -0.1215  0.1377
 9533TIP3    H128563   2.340   4.736   5.341 -0.6941  0.5171  1.3908
 9533TIP3    H228564   2.196   4.700   5.374 -0.6914 -1.1156 -0.2356
 9534TIP3   OH228565   2.986   4.057   1.407  0.4586  0.3853  0.1949
 9534TIP3    H128566   2.987   3.969   1.369 -2.3831  0.4561 -0.2657
 9534TIP3    H228567   2.994   4.043   1.501  0.1369 -0.3679  0.1126
 9535TIP3   OH228568   0.527   3.110   0.483  0.0196 -0.3375  0.1596
 9535TIP3    H128569   0.591   3.090   0.551 -0.0080  1.1223  0.6583
 9535TIP3    H228570   0.515   3.028   0.436  2.4571 -0.6126 -0.1181
 9536TIP3   OH228571   5.549   3.724   0.555  0.6474 -0.1832 -0.9087
 9536TIP3    H128572   5.556   3.634   0.521  0.2123  0.9434 -4.3771
 9536TIP3    H228573   5.638   3.745   0.584  0.6091 -1.9087  0.6809
 9537TIP3   OH228574   6.131   4.595   4.349 -0.0134 -0.4032  0.1006
 9537TIP3    H128575   6.131   4.605   4.254  0.3113 -1.4707 -0.0260
 9537TIP3    H228576   6.039   4.589   4.373 -0.0761 -0.6014 -0.1986
 9538TIP3   OH228577   1.819   3.025   3.598 -0.1270 -0.1152 -0.1888
 9538TIP3    H128578   1.739   2.972   3.600  0.1827 -0.6230 -0.7348
 9538TIP3    H228579   1.834   3.041   3.505 -0.1563  0.8597 -0.0331
 9539TIP3   OH228580   4.211   3.780   1.657 -0.7770 -0.2594 -0.2862
 9539TIP3    H128581   4.296   3.765   1.698 -0.6475  1.3703  0.1190
 9539TIP3    H228582   4.164   3.697   1.667  0.1274 -0.6476  1.0604
 9540TIP3   OH228583   2.304   2.194   4.442 -0.4107  0.3796  0.0392
 9540TIP3    H128584   2.286   2.119   4.386 -0.2391 -1.6129  2.4737
 9540TIP3    H228585   2.259   2.174   4.525  3.4972  0.5387  2.4803
 9541TIP3   OH228586   4.941   1.947   3.093 -0.0514 -0.6616  0.6719
 9541TIP3    H128587   4.973   2.011   3.029 -0.3972 -1.1304  0.0207
 9541TIP3    H228588   4.971   1.862   3.060  0.0279 -0.8844  1.2982
 9542TIP3   OH228589   4.090   0.866   3.171 -0.2853  0.4956  0.0634
 9542TIP3    H128590   3.999   0.838   3.159 -0.0487 -0.8028  1.0302
 9542TIP3    H228591   4.097   0.888   3.264  0.0105  2.1274 -0.3224
 9543TIP3   OH228592   6.566   6.571   4.142  0.0349  0.8226 -0.2371
 9543TIP3    H128593   6.473   6.559   4.127  0.1496  1.7078 -1.8936
 9543TIP3    H228594   6.571   6.643   4.205 -0.3920 -0.3237  1.1649
 9544TIP3   OH228595   3.119   2.610   5.129 -0.0492 -0.4394 -0.1737
 9544TIP3    H128596   3.174   2.686   5.150 -0.2547 -0.2818 -0.2113
 9544TIP3    H228597   3.181   2.537   5.124  0.0277 -0.4643  0.8810
 9545TIP3   OH228598   5.968   0.196   5.454  0.6258 -0.0142 -0.5623
 9545TIP3    H128599   6.047   0.228   5.411  0.1494  1.2945 -0.5053
 9545TIP3    H228600   6.001   0.140   5.524  1.8279  3.8044  2.2881
 9546TIP3   OH228601   1.349   2.215   3.313 -0.0043 -0.3943  0.1139
 9546TIP3    H128602   1.294   2.199   3.390 -1.9811 -1.2188 -1.3922
 9546TIP3    H228603   1.386   2.129   3.291  0.6773 -0.1324  0.1975
 9547TIP3   OH228604   1.484   1.249   1.003 -0.2417 -0.1497  0.6147
 9547TIP3    H128605   1.487   1.166   0.955 -1.3099  0.3834 -0.4055
 9547TIP3    H228606   1.569   1.290   0.986 -0.8224  0.3187 -1.3775
 9548TIP3   OH228607   4.213   1.633   1.911 -0.1428  0.1306  0.0388
 9548TIP3    H128608   4.259   1.637   1.827 -0.0086 -1.8358 -0.0125
 9548TIP3    H228609   4.279   1.605   1.974 -0.8523 -1.0327  0.2875
 9549TIP3   OH228610   5.127   4.026   0.727 -0.4470  0.0874  0.2192
 9549TIP3    H128611   5.131   3.976   0.808  0.1932  1.5141  1.1275
 9549TIP3    H228612   5.197   4.091   0.736 -2.2879  2.2519 -0.0995
 9550TIP3   OH228613   3.233   4.871   0.901 -0.2804  0.4979 -0.5580
 9550TIP3    H128614   3.322   4.837   0.904 -0.3111  0.1976 -2.1195
 9550TIP3    H228615   3.181   4.806   0.949  0.4389  1.1072  1.0972
 9551TIP3   OH228616   6.198   4.632   3.091  0.6585  0.3988  0.0608
 9551TIP3    H128617   6.274   4.589   3.129  1.4548  1.1821 -0.6061
 9551TIP3    H228618   6.162   4.685   3.162 -0.4412 -1.4204  0.9525
 9552TIP3   OH228619   0.079   3.930   2.734  0.0128  0.9148  0.0658
 9552TIP3    H128620   0.039   4.011   2.703  0.0877  0.4541 -1.3157
 9552TIP3    H228621   0.007   3.879   2.770  0.1947  2.2201  2.4823
 9553TIP3   OH228622   4.362   4.951   4.570  0.2537 -0.3748  0.0563
 9553TIP3    H128623   4.382   4.931   4.662 -1.1147 -4.5759 -0.3580
 9553TIP3    H228624   4.444   4.936   4.524  0.9310  1.6922  0.4729
 9554TIP3   OH228625   1.535   0.329   4.857  0.1399  0.5114 -0.3173
 9554TIP3    H128626   1.519   0.263   4.790  0.9678 -0.5477  0.4818
 9554TIP3    H228627   1.583   0.282   4.925 -3.0604  0.7452  2.3798
 9555TIP3   OH228628   3.983   4.371   4.539  0.0133 -0.5366 -0.1505
 9555TIP3    H128629   3.944   4.382   4.452  0.1496 -1.1866 -0.3027
 9555TIP3    H228630   4.062   4.424   4.537  0.2131 -0.8473 -0.5536
 9556TIP3   OH228631   5.813   1.328   4.040 -0.2512  0.0579  0.3073
 9556TIP3    H128632   5.905   1.335   4.015 -0.5764 -2.0400 -1.8466
 9556TIP3    H228633   5.769   1.395   3.987  0.0134  1.1815  1.4682
 9557TIP3   OH228634   0.596   4.089   1.487 -0.3887  0.4301 -0.2895
 9557TIP3    H128635   0.531   4.149   1.452  0.0914  0.1572 -1.7097
 9557TIP3    H228636   0.575   4.005   1.447 -0.5077 -0.1691  0.9810
 9558TIP3   OH228637   1.171   3.416   1.220  0.2855  0.1395 -0.2047
 9558TIP3    H128638   1.192   3.453   1.134  1.1836 -0.1917 -0.1456
 9558TIP3    H228639   1.257   3.404   1.262 -0.1171 -0.1233  0.5571
 9559TIP3   OH228640   5.326   6.442   4.977  0.5714 -0.0992  0.8471
 9559TIP3    H128641   5.370   6.358   4.976 -0.7611 -0.8395 -0.4803
 9559TIP3    H228642   5.244   6.426   5.024 -0.1284  0.1891 -0.2402
 9560TIP3   OH228643   6.487   2.489   3.338 -0.2582 -0.3101  0.0629
 9560TIP3    H128644   6.467   2.422   3.404 -1.3779 -3.0020 -2.7926
 9560TIP3    H228645   6.581   2.482   3.326 -0.2076 -0.5975  0.5619
 9561TIP3   OH228646   5.924   5.017   3.336  0.4848 -0.0955 -0.4773
 9561TIP3    H128647   5.880   4.984   3.413 -0.3536  2.8947  0.4818
 9561TIP3    H228648   6.012   4.980   3.340 -0.0326 -1.2417  1.0139
 9562TIP3   OH228649   2.250   1.619   0.425  0.2208  0.3546 -0.0068
 9562TIP3    H128650   2.305   1.616   0.346  0.9047  2.1247  0.3533
 9562TIP3    H228651   2.308   1.654   0.493 -1.4095  2.6273  0.3025
 9563TIP3   OH228652   6.578   4.673   1.104  0.4328 -0.2224 -0.0291
 9563TIP3    H128653   6.633   4.604   1.065 -1.9952 -1.6611 -1.1297
 9563TIP3    H228654   6.532   4.629   1.175 -0.3449  0.5645 -0.0362
 9564TIP3   OH228655   6.167   6.437   1.039  0.1298 -0.3056  0.1381
 9564TIP3    H128656   6.132   6.442   1.127  0.2567  0.1627  0.1658
 9564TIP3    H228657   6.109   6.376   0.993  0.3758 -0.9739  0.6850
 9565TIP3   OH228658   1.117   4.298   4.127  0.4360 -0.3544 -0.6327
 9565TIP3    H128659   1.023   4.305   4.142  0.3549 -0.6787 -0.9695
 9565TIP3    H228660   1.124   4.254   4.042  0.8853  0.4720 -1.0315
 9566TIP3   OH228661   6.137   0.438   2.902 -0.0945  0.4281  0.2118
 9566TIP3    H128662   6.195   0.436   2.979 -0.1483  0.4996  0.2539
 9566TIP3    H228663   6.181   0.382   2.838 -0.9729 -1.1596  0.9455
 9567TIP3   OH228664   3.760   3.135   5.204  0.5117  0.3111 -0.1375
 9567TIP3    H128665   3.826   3.192   5.244  0.8553 -1.2081  1.6434
 9567TIP3    H228666   3.676   3.171   5.233  0.7541 -0.7759  2.1508
 9568TIP3   OH228667   5.484   6.506   3.408  0.4968 -0.6010 -0.3137
 9568TIP3    H128668   5.489   6.517   3.313  0.5793 -2.3031 -0.5450
 9568TIP3    H228669   5.575   6.497   3.436  0.8607  3.6170  0.5406
 9569TIP3   OH228670   0.808   2.863   0.758  0.0060  0.2837  0.4234
 9569TIP3    H128671   0.836   2.877   0.848  0.9829 -3.4942  0.8465
 9569TIP3    H228672   0.889   2.845   0.710 -0.6208  1.1045 -1.0251
 9570TIP3   OH228673   2.215   6.314   3.392  0.5322 -0.4792  0.0727
 9570TIP3    H128674   2.231   6.315   3.486  1.2343 -1.1283 -0.0311
 9570TIP3    H228675   2.184   6.402   3.372 -0.1684 -0.5006  0.9972
 9571TIP3   OH228676   5.762   0.389   3.684 -0.1883  0.2736  0.1167
 9571TIP3    H128677   5.696   0.328   3.717 -1.4990  1.7264  0.3126
 9571TIP3    H228678   5.820   0.405   3.759  0.2678 -0.8331  0.0116
 9572TIP3   OH228679   5.720   1.843   1.769  0.2650  0.0126 -0.6553
 9572TIP3    H128680   5.643   1.786   1.773  1.5702 -1.8309 -0.4883
 9572TIP3    H228681   5.718   1.879   1.680 -0.1455 -0.9960 -1.0748
 9573TIP3   OH228682   2.851   2.455   5.645  0.1650  0.3391  0.0349
 9573TIP3    H128683   2.876   2.512   5.718 -1.9133 -0.0241  1.0974
 9573TIP3    H228684   2.857   2.511   5.568  1.9155  0.8726  0.5261
 9574TIP3   OH228685   1.874   1.443   2.603  0.2973 -0.0545  0.4431
 9574TIP3    H128686   1.845   1.357   2.573  0.1982 -0.1421  0.7886
 9574TIP3    H228687   1.835   1.504   2.540  2.6742 -0.4147 -1.5204
 9575TIP3   OH228688   4.249   3.036   4.051  0.5445 -0.0550 -0.0218
 9575TIP3    H128689   4.232   2.943   4.067  0.1985  0.4500  3.2232
 9575TIP3    H228690   4.329   3.037   3.998 -0.3153 -2.1818 -1.4880
 9576TIP3   OH228691   0.805   5.644   5.557  0.4956 -0.2991 -0.3621
 9576TIP3    H128692   0.776   5.710   5.494 -1.5377  0.3623  1.1568
 9576TIP3    H228693   0.900   5.659   5.565  0.6270  0.2461 -2.4709
 9577TIP3   OH228694   0.130   3.911   4.919 -0.0695  0.2330 -0.4873
 9577TIP3    H128695   0.073   3.988   4.927 -0.0044  0.1716  0.7676
 9577TIP3    H228696   0.219   3.947   4.913  0.0742  0.2459  1.3782
 9578TIP3   OH228697   6.959   4.559   3.858 -0.6940 -0.2978  0.1340
 9578TIP3    H128698   6.920   4.555   3.770 -1.8781 -1.1639  0.6694
 9578TIP3    H228699   7.052   4.540   3.844 -0.7021  0.3883 -1.0147
 9579TIP3   OH228700   5.159   6.456   4.764  0.1080 -0.4552  0.4140
 9579TIP3    H128701   5.160   6.544   4.726 -1.4262 -0.0827  1.2127
 9579TIP3    H228702   5.229   6.458   4.830 -1.3202  0.8799  1.9632
 9580TIP3   OH228703   5.792   1.439   4.555  0.1452  0.1666  0.2920
 9580TIP3    H128704   5.810   1.388   4.476  2.0224  1.1968 -0.0237
 9580TIP3    H228705   5.868   1.422   4.611  1.3897  3.2908 -0.2531
 9581TIP3   OH228706   0.595   0.180   1.360 -0.0452 -0.1995 -0.0520
 9581TIP3    H128707   0.600   0.162   1.266 -0.6394  0.0935 -0.1442
 9581TIP3    H228708   0.616   0.273   1.368  2.2775 -0.7096  0.3489
 9582TIP3   OH228709   0.060   6.512   0.165  0.4782  0.2941  0.1503
 9582TIP3    H128710   0.090   6.529   0.255  0.3668  2.7893 -0.2188
 9582TIP3    H228711  -0.032   6.490   0.175  0.6459 -0.1804  0.7078
 9583TIP3   OH228712   6.224   1.232   5.057  0.2768 -0.4012 -0.1158
 9583TIP3    H128713   6.283   1.285   5.004  2.3600 -2.5522 -0.1125
 9583TIP3    H228714   6.258   1.143   5.049 -1.0375 -1.2465  2.5394
 9584TIP3   OH228715   3.903   1.545   4.182  0.2926  0.7535 -0.0623
 9584TIP3    H128716   3.889   1.590   4.265  0.4504  1.7904 -0.5834
 9584TIP3    H228717   3.825   1.492   4.169  0.2048  0.6969  0.6739
 9585TIP3   OH228718   6.275   6.737   1.887  0.0767 -0.3789 -0.1156
 9585TIP3    H128719   6.347   6.678   1.912  0.0761 -0.8624 -1.2303
 9585TIP3    H228720   6.315   6.824   1.890  0.4319 -0.5484  0.2756
 9586TIP3   OH228721   0.973   1.968   1.788 -0.5743 -0.3829  0.3412
 9586TIP3    H128722   1.048   1.909   1.776  1.2113  1.3142  2.1872
 9586TIP3    H228723   0.988   2.007   1.875 -3.0496  0.8486  0.2914
 9587TIP3   OH228724   4.419   1.629   1.733  0.1957  0.0372 -0.5336
 9587TIP3    H128725   4.404   1.580   1.652  2.3313 -1.5283 -0.0692
 9587TIP3    H228726   4.501   1.595   1.767  0.4743  2.1958  1.1996
 9588TIP3   OH228727   7.125   3.792   4.768  0.2218 -0.4129 -0.2157
 9588TIP3    H128728   7.207   3.796   4.817  0.2109  0.2349 -0.2399
 9588TIP3    H228729   7.152   3.769   4.679  0.3248 -0.7353 -0.1019
 9589TIP3   OH228730   2.242   6.309   3.674  0.4331  0.4082  0.4103
 9589TIP3    H128731   2.252   6.393   3.720 -0.5472  0.1817  1.0630
 9589TIP3    H228732   2.174   6.263   3.723 -0.9826  0.3195 -1.5199
 9590TIP3   OH228733   5.486   4.826   2.167 -0.5008  0.0847  0.3860
 9590TIP3    H128734   5.458   4.829   2.259 -2.1508 -0.4122 -0.0689
 9590TIP3    H228735   5.566   4.879   2.165 -0.6733  0.4728  2.0232
 9591TIP3   OH228736   5.719   0.060   2.289 -0.2632 -0.5359  0.1952
 9591TIP3    H128737   5.812   0.072   2.267 -0.4304  2.8901  0.7847
 9591TIP3    H228738   5.720   0.018   2.375  0.7741  0.1836  0.5589
 9592TIP3   OH228739   4.286   2.830   1.007  0.6286  0.0840  0.1426
 9592TIP3    H128740   4.256   2.858   0.921  2.9186  2.1121 -0.1225
 9592TIP3    H228741   4.208   2.799   1.052 -1.0754  1.3878 -1.7639
 9593TIP3   OH228742   6.474   4.941   4.604 -0.4573 -0.3359  0.5503
 9593TIP3    H128743   6.403   4.887   4.571 -0.4082  0.1606 -0.3935
 9593TIP3    H228744   6.520   4.884   4.666 -1.9331 -0.5129  1.5312
 9594TIP3   OH228745   1.757   5.818   4.905 -0.9807  0.3278  0.0732
 9594TIP3    H128746   1.713   5.756   4.847 -0.6671  0.9176 -0.8169
 9594TIP3    H228747   1.763   5.898   4.854  1.0517  0.2946  0.1873
 9595TIP3   OH228748   0.492   6.445   4.991  0.0359 -0.3160  0.1371
 9595TIP3    H128749   0.496   6.528   5.038 -2.1258  0.6889 -1.3019
 9595TIP3    H228750   0.583   6.428   4.965  0.6415  1.1692  1.1589
 9596TIP3   OH228751   4.633   4.906   2.632  0.1947 -0.0549 -0.3861
 9596TIP3    H128752   4.665   4.982   2.582 -0.1629  1.6821  1.8522
 9596TIP3    H228753   4.632   4.936   2.723 -1.4800 -2.2450  0.4104
 9597TIP3   OH228754   5.817   1.528   1.683 -0.4274 -0.0962 -0.0714
 9597TIP3    H128755   5.740   1.546   1.737 -0.5644 -0.5766 -0.1046
 9597TIP3    H228756   5.869   1.467   1.735 -0.0869  0.1967 -0.0662
 9598TIP3   OH228757   0.791   3.318   5.205  0.6459  0.3007  0.0731
 9598TIP3    H128758   0.768   3.411   5.200 -0.5308  0.0067 -0.3964
 9598TIP3    H228759   0.795   3.290   5.113 -0.4132 -0.4132  0.2162
 9599TIP3   OH228760   2.941   2.073   1.717  0.4302 -0.0334  0.4410
 9599TIP3    H128761   2.887   2.147   1.690  0.1506 -0.4844 -0.2544
 9599TIP3    H228762   2.998   2.109   1.785  0.3881  0.8540  0.0227
 9600TIP3   OH228763   3.678   1.935   0.621  0.0804  0.3655  0.6765
 9600TIP3    H128764   3.604   1.954   0.563  1.0964 -0.8690 -1.0866
 9600TIP3    H228765   3.647   1.862   0.675  0.7207 -1.7595 -1.6608
 9601TIP3   OH228766   3.048   6.268   2.267 -0.0962 -0.2941 -0.6271
 9601TIP3    H128767   3.007   6.209   2.205  2.8846 -3.8446  0.4296
 9601TIP3    H228768   3.119   6.310   2.217  1.4822 -2.1875 -0.1263
 9602TIP3   OH228769   3.730   5.678   2.357 -0.2096 -0.1938 -0.4659
 9602TIP3    H128770   3.812   5.705   2.398 -0.1134 -0.7365 -0.2915
 9602TIP3    H228771   3.727   5.727   2.275  1.0833 -1.3326 -1.2443
 9603TIP3   OH228772   4.991   0.548   3.149 -0.3923  0.3868 -0.2465
 9603TIP3    H128773   4.910   0.557   3.099 -0.5751  0.1899  0.0096
 9603TIP3    H228774   4.979   0.467   3.198 -1.0942  1.6220  1.7231
 9604TIP3   OH228775   1.106   0.263   0.366 -0.2021 -0.3134 -0.1385
 9604TIP3    H128776   1.108   0.278   0.460  0.4594 -1.1914  0.0034
 9604TIP3    H228777   1.081   0.171   0.357 -1.3388  0.0461 -0.8641
 9605TIP3   OH228778   0.181   3.886   1.941 -0.6335 -0.4686 -0.6590
 9605TIP3    H128779   0.127   3.919   2.013 -0.2655  0.3579 -0.7417
 9605TIP3    H228780   0.181   3.957   1.877  1.2899 -0.0372 -0.2616
 9606TIP3   OH228781   1.618   2.776   1.892 -0.3328  0.2883 -0.0504
 9606TIP3    H128782   1.525   2.751   1.890 -0.6851  1.5664 -1.0044
 9606TIP3    H228783   1.627   2.840   1.821  1.8077 -1.5352 -1.6008
 9607TIP3   OH228784   4.677   6.715   1.839  0.0450  0.0322 -0.0338
 9607TIP3    H128785   4.605   6.766   1.876 -0.5136  1.2346 -2.5280
 9607TIP3    H228786   4.705   6.658   1.910 -2.4992  0.4506  1.4434
 9608TIP3   OH228787   5.223   1.456   1.366 -0.0760 -0.3328  0.2981
 9608TIP3    H128788   5.232   1.381   1.307  0.1017 -0.2427  0.2094
 9608TIP3    H228789   5.184   1.420   1.446  0.0379 -0.5249  0.2659
 9609TIP3   OH228790   4.935   6.169   4.858 -0.8157 -0.0646  0.2407
 9609TIP3    H128791   4.955   6.216   4.939  1.5281 -1.4429  0.5435
 9609TIP3    H228792   4.896   6.236   4.801  1.6882  2.1237  0.8943
 9610TIP3   OH228793   0.156   2.138   3.647  0.3103  0.5320  0.7210
 9610TIP3    H128794   0.129   2.189   3.571  0.8641  1.4012  1.0826
 9610TIP3    H228795   0.075   2.119   3.694  0.1567  2.0139  1.1328
 9611TIP3   OH228796   0.273   0.504   1.324  0.2847 -0.1265  0.5576
 9611TIP3    H128797   0.265   0.505   1.420  0.2274 -2.1882  0.6103
 9611TIP3    H228798   0.183   0.498   1.293  0.3475 -0.2142  0.3957
 9612TIP3   OH228799   6.833   0.613   1.005  0.1605  0.0992  0.0201
 9612TIP3    H128800   6.825   0.692   1.058 -1.0746 -0.0108  0.0084
 9612TIP3    H228801   6.798   0.638   0.919 -1.1529 -0.7329  0.3022
 9613TIP3   OH228802   0.474   5.248   4.177 -0.1109  0.1528 -0.0343
 9613TIP3    H128803   0.496   5.302   4.252  0.8963 -1.0756  0.5843
 9613TIP3    H228804   0.516   5.164   4.194  0.5180 -0.0259 -2.1770
 9614TIP3   OH228805   4.461   6.609   4.753  0.0033 -0.5285  0.3244
 9614TIP3    H128806   4.554   6.617   4.775 -0.5832  0.4939  2.7002
 9614TIP3    H228807   4.421   6.569   4.831 -1.8366  0.8107  0.1239
 9615TIP3   OH228808   2.150   5.138   4.456  0.2871  0.3328 -0.3820
 9615TIP3    H128809   2.124   5.066   4.398  0.6545  1.4589 -2.0155
 9615TIP3    H228810   2.246   5.133   4.457  0.2636 -0.1857  0.8450
 9616TIP3   OH228811   2.347   1.636   4.294  0.2976 -0.2778 -0.1746
 9616TIP3    H128812   2.420   1.586   4.259  1.3879  1.1069  0.0065
 9616TIP3    H228813   2.386   1.689   4.364 -0.9548  0.2001  0.1856
 9617TIP3   OH228814   3.639   4.130   1.017 -0.1239  0.1902 -0.0171
 9617TIP3    H128815   3.672   4.099   0.933  0.8205  0.2107  0.3279
 9617TIP3    H228816   3.576   4.063   1.045  0.2579 -0.2951 -0.3040
 9618TIP3   OH228817   4.622   2.234   5.782 -0.0697  0.3963  0.4936
 9618TIP3    H128818   4.611   2.299   5.712  0.8036  1.3983  1.2612
 9618TIP3    H228819   4.557   2.258   5.848  1.3118  1.5182  1.5024
 9619TIP3   OH228820   6.147   6.143   5.816 -0.2969  0.3084 -0.0172
 9619TIP3    H128821   6.184   6.085   5.749 -0.5010 -0.4669  0.5308
 9619TIP3    H228822   6.116   6.084   5.884  0.9508  1.1270  1.3173
 9620TIP3   OH228823   0.667   5.352   5.489  0.1667 -0.3528 -0.1134
 9620TIP3    H128824   0.759   5.331   5.508  0.7607  2.7526  1.0603
 9620TIP3    H228825   0.671   5.418   5.420 -1.2572 -0.7675 -0.6221
 9621TIP3   OH228826   5.747   1.403   5.499  0.1072  0.1253 -0.5181
 9621TIP3    H128827   5.717   1.494   5.503  1.4730  0.5565  1.9455
 9621TIP3    H228828   5.843   1.409   5.500  0.2210 -1.3543 -0.3357
 9622TIP3   OH228829   0.529   0.870   5.721  0.5188 -0.1366 -0.7041
 9622TIP3    H128830   0.448   0.826   5.695 -0.6383  0.0391  2.2667
 9622TIP3    H228831   0.561   0.820   5.796  1.2370  1.8479  0.3855
 9623TIP3   OH228832   7.057   2.973   4.963  0.3548  0.8113  0.1680
 9623TIP3    H128833   7.123   2.919   4.919  1.7427  1.8536  0.9218
 9623TIP3    H228834   7.002   3.006   4.892  0.1661 -0.6397 -0.4047
 9624TIP3   OH228835   5.199   1.790   0.233  0.9206  0.0106  0.0335
 9624TIP3    H128836   5.107   1.798   0.260  0.3718  0.8010 -1.8798
 9624TIP3    H228837   5.232   1.880   0.234  1.1414 -0.0525 -0.9789
 9625TIP3   OH228838   7.111   1.936   0.079  0.4932  0.2484 -0.6378
 9625TIP3    H128839   7.150   1.995   0.145  0.5836 -1.3595  0.8233
 9625TIP3    H228840   7.142   1.849   0.105 -1.7396 -0.7554 -1.1665
 9626TIP3   OH228841   4.000   4.497   1.553 -0.0737 -0.1055  0.2034
 9626TIP3    H128842   3.970   4.583   1.584 -0.9196 -0.7434  1.2217
 9626TIP3    H228843   4.088   4.487   1.591  0.8923  1.1247 -1.5540
 9627TIP3   OH228844   1.813   0.693   1.392 -0.4407 -0.2519 -0.1394
 9627TIP3    H128845   1.733   0.653   1.357 -1.6864  0.3154  1.8414
 9627TIP3    H228846   1.784   0.778   1.425  1.2046  0.3630 -0.2011
 9628TIP3   OH228847   3.086   0.022   2.781 -0.6137 -0.2411 -0.5500
 9628TIP3    H128848   3.108   0.014   2.688  0.7272  0.4802 -0.3289
 9628TIP3    H228849   3.067   0.115   2.793 -0.6776 -0.3129 -0.0848
 9629TIP3   OH228850   5.583   6.773   3.944  0.3604  0.6589  0.1898
 9629TIP3    H128851   5.651   6.754   4.009 -0.1966  1.4431  1.0291
 9629TIP3    H228852   5.533   6.691   3.938  1.2203  0.1511 -0.2642
 9630TIP3   OH228853   3.724   4.374   4.585  0.1884  0.1125 -0.8074
 9630TIP3    H128854   3.818   4.360   4.577  0.2067 -0.0843 -0.2643
 9630TIP3    H228855   3.688   4.349   4.499  0.6270  0.1985 -1.0171
 9631TIP3   OH228856   1.341   3.750   0.089  0.4128  0.8109  0.0868
 9631TIP3    H128857   1.301   3.698   0.159 -1.7189  1.2117 -0.7624
 9631TIP3    H228858   1.350   3.838   0.127  1.6576  0.4563  0.6713
 9632TIP3   OH228859   4.744   5.572   1.210  0.5581 -0.4423 -0.3974
 9632TIP3    H128860   4.711   5.535   1.293 -1.7802 -1.1004 -1.5271
 9632TIP3    H228861   4.675   5.553   1.147  1.6048  1.3861 -2.1918
 9633TIP3   OH228862   4.811   0.061   5.714 -0.1962 -0.2694 -0.7747
 9633TIP3    H128863   4.824   0.053   5.808  1.1209  1.1300 -0.7985
 9633TIP3    H228864   4.848  -0.020   5.678 -1.9732 -1.4592 -0.0369
 9634TIP3   OH228865   6.075   1.596   0.879 -0.1610  0.0722  0.0863
 9634TIP3    H128866   6.044   1.663   0.939 -0.2586  1.7240 -1.7163
 9634TIP3    H228867   6.022   1.606   0.800 -1.7509 -3.6411  0.4552
 9635TIP3   OH228868   3.406   0.153   4.915  0.1277 -0.1679 -0.1460
 9635TIP3    H128869   3.446   0.239   4.924  2.1851 -1.1506  0.6635
 9635TIP3    H228870   3.451   0.098   4.980 -2.5006 -1.4179  0.7831
 9636TIP3   OH228871   5.139   3.311   5.819 -0.1109 -0.1986  0.1023
 9636TIP3    H128872   5.065   3.370   5.830  1.0237  1.3098  0.0911
 9636TIP3    H228873   5.104   3.224   5.835 -1.7272  0.5355  0.7497
 9637TIP3   OH228874   4.989   4.694   1.278 -0.3360  0.9403  0.2702
 9637TIP3    H128875   4.940   4.613   1.266  2.0522 -0.5576  0.0499
 9637TIP3    H228876   4.982   4.739   1.194  0.4472 -0.3311 -0.5163
 9638TIP3   OH228877   0.715   0.580   0.767  0.0414  0.0002 -0.2627
 9638TIP3    H128878   0.667   0.504   0.734  1.5682 -1.3654  0.5028
 9638TIP3    H228879   0.796   0.582   0.715  1.2138 -0.5203  1.4559
 9639TIP3   OH228880   4.927   5.900   1.462  0.1902  0.1398 -0.1187
 9639TIP3    H128881   5.014   5.889   1.422 -0.5194 -0.9071 -1.4595
 9639TIP3    H228882   4.925   5.991   1.491  1.7379  0.1811 -0.0627
 9640TIP3   OH228883   0.498   6.619   3.766  0.1198  0.1300 -0.5680
 9640TIP3    H128884   0.496   6.712   3.740  0.5811 -0.0944 -1.4571
 9640TIP3    H228885   0.461   6.618   3.854  1.1478  1.3065 -0.0917
 9641TIP3   OH228886   3.924   5.888   5.278 -0.0097  0.2987 -0.2544
 9641TIP3    H128887   3.987   5.844   5.221  0.4183  1.1288 -0.4358
 9641TIP3    H228888   3.929   5.838   5.360 -0.1017 -0.4551 -0.6945
 9642TIP3   OH228889   5.163   2.975   5.491 -0.1512 -0.0455 -0.0807
 9642TIP3    H128890   5.195   3.010   5.408 -1.5848 -0.0103 -0.6531
 9642TIP3    H228891   5.198   3.034   5.557  2.4027 -1.0223 -0.4624
 9643TIP3   OH228892   1.569   6.681   0.053  0.3493 -0.1811 -0.3430
 9643TIP3    H128893   1.484   6.640   0.039  0.2151  0.3171 -0.9778
 9643TIP3    H228894   1.612   6.679  -0.032  0.9263 -0.2973 -0.0609
 9644TIP3   OH228895   6.013   3.086   1.369  0.4337  0.5130 -0.3068
 9644TIP3    H128896   6.018   2.999   1.331  1.1643 -1.0669  3.0989
 9644TIP3    H228897   6.089   3.132   1.333  0.3127 -0.3544 -1.7629
 9645TIP3   OH228898   2.962   2.252   2.602 -0.0812  0.0811 -0.1369
 9645TIP3    H128899   3.020   2.180   2.626 -0.1608  0.0482 -0.0433
 9645TIP3    H228900   3.012   2.302   2.538  0.4358  0.5963  0.6492
 9646TIP3   OH228901   0.425   2.167   2.270 -0.3765  0.0907  0.2321
 9646TIP3    H128902   0.448   2.235   2.334 -0.0277  0.8572 -0.6945
 9646TIP3    H228903   0.482   2.094   2.291 -0.2396  0.3463  0.7720
 9647TIP3   OH228904   5.357   3.106   0.478 -1.0950  0.3721  0.3742
 9647TIP3    H128905   5.370   3.049   0.554  3.0028  2.9217  1.9219
 9647TIP3    H228906   5.321   3.047   0.411 -1.5554 -2.8630  3.1618
 9648TIP3   OH228907   6.806   1.438   1.756  0.3305 -0.3691 -0.0783
 9648TIP3    H128908   6.820   1.395   1.672 -0.6317 -0.3751 -0.2544
 9648TIP3    H228909   6.841   1.526   1.744  0.3639 -0.4300 -0.4342
 9649TIP3   OH228910   3.857   0.210   5.431  0.9424  0.1526  0.3423
 9649TIP3    H128911   3.779   0.219   5.486  0.9368 -1.2617  0.5874
 9649TIP3    H228912   3.848   0.124   5.390  2.6936 -0.3133  0.8684
 9650TIP3   OH228913   4.857   3.190   3.061  0.1393  0.1236  0.5111
 9650TIP3    H128914   4.876   3.098   3.043 -2.3369 -0.3453 -0.0133
 9650TIP3    H228915   4.926   3.238   3.015  2.3299 -1.4208  1.9555
 9651TIP3   OH228916   4.756   4.103   2.766  0.0164 -0.0768 -0.1100
 9651TIP3    H128917   4.797   4.066   2.844  1.7377  1.4661 -0.2129
 9651TIP3    H228918   4.740   4.027   2.710  2.5292 -0.8585  0.0796
 9652TIP3   OH228919   0.764   2.157   2.586 -0.1581  0.2415  0.3821
 9652TIP3    H128920   0.679   2.166   2.630  0.3129  0.5090  1.2443
 9652TIP3    H228921   0.820   2.221   2.628  0.3470  0.4032 -0.5251
 9653TIP3   OH228922   5.601   1.790   3.195  0.1495  0.4658  0.0051
 9653TIP3    H128923   5.599   1.723   3.263  0.3938  0.4699  0.0175
 9653TIP3    H228924   5.667   1.760   3.133  2.2118  1.9819  1.3615
 9654TIP3   OH228925   0.389   2.619   3.563 -0.1152  0.4337 -0.3204
 9654TIP3    H128926   0.363   2.711   3.564 -3.2662 -0.2369 -2.3730
 9654TIP3    H228927   0.411   2.602   3.471 -1.1241 -1.1436 -0.3127
 9655TIP3   OH228928   6.058   1.003   2.236  0.2138 -0.3977 -0.0301
 9655TIP3    H128929   5.977   1.045   2.206  0.3708  0.1317  0.2881
 9655TIP3    H228930   6.038   0.909   2.233  0.1803 -0.3677 -1.6505
 9656TIP3   OH228931   1.009   5.188   3.232 -0.0857  0.2418  0.0802
 9656TIP3    H128932   1.054   5.104   3.239 -1.7234 -0.7106 -0.4745
 9656TIP3    H228933   1.062   5.238   3.170  0.4228 -0.7119 -0.2765
 9657TIP3   OH228934   2.481   1.854   0.184 -0.4986  0.4730  0.2082
 9657TIP3    H128935   2.389   1.846   0.156 -1.6246  0.9894  3.3862
 9657TIP3    H228936   2.510   1.937   0.147 -1.5478  0.6530 -0.2407
 9658TIP3   OH228937   0.888   3.429   3.690  0.1271  0.7830  0.3232
 9658TIP3    H128938   0.861   3.449   3.600  0.2994  0.0478  0.0929
 9658TIP3    H228939   0.826   3.361   3.718  1.0815 -0.2033  0.1448
 9659TIP3   OH228940   0.323   3.975   2.900  0.0060  0.3353  0.1799
 9659TIP3    H128941   0.252   3.958   2.838 -0.0069 -1.4300  0.6233
 9659TIP3    H228942   0.282   4.023   2.972 -0.6718 -0.3610  0.2691
 9660TIP3   OH228943   6.879   2.713   2.522  0.5178  0.1318 -0.3107
 9660TIP3    H128944   6.812   2.722   2.589 -0.6690 -1.8547 -1.1395
 9660TIP3    H228945   6.839   2.748   2.443  0.8553 -0.1003 -0.5875
 9661TIP3   OH228946   7.100   1.748   5.770  0.4982  0.0712 -0.4570
 9661TIP3    H128947   7.139   1.678   5.823  3.3342  2.1827  0.4738
 9661TIP3    H228948   7.121   1.725   5.680  1.2390 -0.3633 -0.1766
 9662TIP3   OH228949   5.248   6.098   2.013 -0.0924  0.0087  0.7169
 9662TIP3    H128950   5.334   6.139   2.015 -0.6612  1.2153  1.0440
 9662TIP3    H228951   5.189   6.167   1.982 -0.9708 -0.7576  0.6413
 9663TIP3   OH228952   0.385   0.725   1.697 -0.4449 -0.0536  0.0379
 9663TIP3    H128953   0.407   0.792   1.632  2.9494 -0.8776  0.1457
 9663TIP3    H228954   0.437   0.748   1.774  1.7984 -3.3020 -0.3031
 9664TIP3   OH228955   2.483   2.046   0.700 -0.3188  0.6950  0.2347
 9664TIP3    H128956   2.440   1.995   0.769 -0.4331 -0.6595 -0.8129
 9664TIP3    H228957   2.422   2.043   0.627  1.5448 -1.3823 -1.3393
 9665TIP3   OH228958   6.465   0.033   1.010 -0.5403  0.0855  0.1308
 9665TIP3    H128959   6.457   0.123   0.978 -3.0857 -0.4955 -1.2146
 9665TIP3    H228960   6.408   0.030   1.087 -1.7597 -0.6737 -0.7530
 9666TIP3   OH228961   2.278   4.599   4.099  0.8482  0.3993 -0.7534
 9666TIP3    H128962   2.265   4.654   4.022 -3.6246 -2.1874 -2.2018
 9666TIP3    H228963   2.295   4.511   4.063 -0.2875 -0.6819  1.1822
 9667TIP3   OH228964   2.732   4.158   5.375  0.3367 -0.1684 -0.1656
 9667TIP3    H128965   2.727   4.114   5.290  1.4569  0.9609 -0.8550
 9667TIP3    H228966   2.642   4.189   5.391  0.3049  0.4578 -1.4280
 9668TIP3   OH228967   5.994   0.692   3.716 -0.7495  0.8127  0.0627
 9668TIP3    H128968   5.965   0.667   3.803  2.0637 -1.1116  0.5903
 9668TIP3    H228969   5.985   0.787   3.713 -1.5429  0.8452  2.1934
 9669TIP3   OH228970   4.075   3.461   4.152  0.0182 -0.2818 -0.1451
 9669TIP3    H128971   4.017   3.433   4.223  0.2810 -2.6173 -0.7552
 9669TIP3    H228972   4.064   3.394   4.084  2.4209 -0.0756 -0.8366
 9670TIP3   OH228973   2.205   1.229   1.357 -0.2856 -0.6136  0.2614
 9670TIP3    H128974   2.161   1.262   1.435 -2.8833 -1.8098 -0.6096
 9670TIP3    H228975   2.140   1.175   1.313  1.0174  0.1473 -2.8495
 9671TIP3   OH228976   2.965   4.008   1.667 -0.2448  0.1229  0.3896
 9671TIP3    H128977   3.017   3.977   1.741  0.4930  1.1618  0.3300
 9671TIP3    H228978   2.879   3.968   1.680  0.5128 -1.5616  0.5464
 9672TIP3   OH228979   0.125   4.722   2.638 -0.6348 -0.0570  0.1207
 9672TIP3    H128980   0.035   4.731   2.668 -1.0133 -0.3833 -0.8741
 9672TIP3    H228981   0.140   4.800   2.585 -0.2506  0.1008  0.4525
 9673TIP3   OH228982   6.202   1.834   0.136  0.0088 -0.4138  0.5385
 9673TIP3    H128983   6.197   1.835   0.040  0.0314  3.8335  0.3982
 9673TIP3    H228984   6.292   1.861   0.155  1.2117 -4.6317  2.0066
 9674TIP3   OH228985   3.092   0.706   0.601 -0.3379  0.4063 -0.2432
 9674TIP3    H128986   3.147   0.684   0.526 -1.2284  0.7878 -1.0349
 9674TIP3    H228987   3.024   0.639   0.601 -0.5087  0.5772  0.0427
 9675TIP3   OH228988   0.045   5.172   5.876 -0.0606 -0.3194 -0.2995
 9675TIP3    H128989  -0.037   5.205   5.840  0.9160 -0.6727 -3.0681
 9675TIP3    H228990   0.101   5.155   5.800  2.9583  0.7939  1.4593
 9676TIP3   OH228991   4.754   3.517   5.644 -0.2313 -0.7254  0.1195
 9676TIP3    H128992   4.739   3.425   5.666 -1.0855 -0.6250 -0.0247
 9676TIP3    H228993   4.674   3.545   5.599  0.1947 -0.0307 -0.2270
 9677TIP3   OH228994   4.050   0.142   3.689 -0.2517  0.1699 -0.3540
 9677TIP3    H128995   4.131   0.185   3.661  0.1343 -0.5173 -0.3297
 9677TIP3    H228996   4.080   0.069   3.744 -0.8611 -0.3626 -0.7162
 9678TIP3   OH228997   6.547   1.348   5.321  0.0023  0.0195 -0.0608
 9678TIP3    H128998   6.631   1.361   5.365 -0.5166 -0.5766  1.1608
 9678TIP3    H228999   6.533   1.253   5.323 -1.3866  0.2129  1.1444
 9679TIP3   OH229000   6.052   0.066   0.048  0.1294 -0.2341  0.5057
 9679TIP3    H129001   6.096   0.144   0.013  2.5146 -1.5462  0.3404
 9679TIP3    H229002   5.975   0.055  -0.007 -1.3995  3.0056  1.7112
 9680TIP3   OH229003   1.467   1.882   0.180  0.5290 -0.1878 -0.1320
 9680TIP3    H129004   1.497   1.862   0.092 -0.6703 -1.1881 -0.3419
 9680TIP3    H229005   1.514   1.962   0.204  1.7975 -0.5821 -1.1870
 9681TIP3   OH229006   1.859   5.920   5.171 -0.1100  0.7199  0.0629
 9681TIP3    H129007   1.842   5.899   5.080 -1.0293  1.9727 -0.0827
 9681TIP3    H229008   1.912   5.847   5.203 -2.2634 -1.3043 -0.6549
 9682TIP3   OH229009   0.378   6.006   1.134 -0.0565 -0.7771  0.3924
 9682TIP3    H129010   0.473   6.006   1.124  0.0466 -1.7415  1.2298
 9682TIP3    H229011   0.356   5.915   1.155 -1.0957 -0.4463  0.7903
 9683TIP3   OH229012   1.583   0.618   3.385  0.0712 -0.7749  0.9001
 9683TIP3    H129013   1.538   0.667   3.316  1.5584 -2.1008 -1.1220
 9683TIP3    H229014   1.519   0.614   3.457 -1.4757  0.8314 -0.2949
 9684TIP3   OH229015   2.254   0.542   1.876 -0.9669  0.5047  0.0683
 9684TIP3    H129016   2.201   0.617   1.902 -1.1582 -0.0708  1.4654
 9684TIP3    H229017   2.255   0.486   1.954  1.1416  0.1779 -0.1485
 9685TIP3   OH229018   1.067   0.815   4.421  0.3270  0.8077  0.4126
 9685TIP3    H129019   1.133   0.883   4.418  0.7101  0.4185 -0.0986
 9685TIP3    H229020   1.116   0.733   4.408 -0.4529  0.6359 -1.7690
 9686TIP3   OH229021   6.881   5.811   3.427  0.9413 -0.3749  0.0949
 9686TIP3    H129022   6.852   5.726   3.459  1.6579 -0.3755  0.7521
 9686TIP3    H229023   6.816   5.873   3.462 -0.0017 -0.7059 -0.9876
 9687TIP3   OH229024   3.289   0.823   3.004 -0.1315  0.7236  0.4244
 9687TIP3    H129025   3.240   0.851   3.081  0.1216 -0.0497  0.8838
 9687TIP3    H229026   3.357   0.889   2.992  0.0286  0.6789  1.0659
 9688TIP3   OH229027   5.023   2.064   3.641  0.0130  0.6316 -0.3960
 9688TIP3    H129028   4.977   2.012   3.575 -0.0729  1.0976 -0.7038
 9688TIP3    H229029   5.092   2.110   3.593 -0.1462  1.0946 -0.1896
 9689TIP3   OH229030   4.952   5.225   4.326 -0.4632 -0.1830 -0.9032
 9689TIP3    H129031   4.981   5.294   4.385  0.4185 -2.2122  1.2302
 9689TIP3    H229032   4.916   5.158   4.385 -0.7723 -1.7721 -2.8041
 9690TIP3   OH229033   2.094   3.015   2.000  0.3669  0.0692  0.3122
 9690TIP3    H129034   2.007   2.993   1.968  0.5658  0.0048 -0.2034
 9690TIP3    H229035   2.080   3.080   2.068  0.0348  1.6955 -1.2386
 9691TIP3   OH229036   1.390   2.906   1.520  0.3825 -0.2636 -0.2439
 9691TIP3    H129037   1.340   2.988   1.516  1.1226  0.2011 -0.1936
 9691TIP3    H229038   1.329   2.839   1.490 -0.7570  0.0406  1.2891
 9692TIP3   OH229039   1.606   3.568   2.551  0.1208 -0.1690 -0.1417
 9692TIP3    H129040   1.674   3.629   2.523  0.0066  0.6487  1.2656
 9692TIP3    H229041   1.541   3.623   2.595 -2.4336 -0.6347 -2.9957
 9693TIP3   OH229042   6.367   0.127   0.531  0.2263 -0.0858  0.3693
 9693TIP3    H129043   6.313   0.201   0.557 -1.8419 -0.7755 -1.6630
 9693TIP3    H229044   6.433   0.165   0.473 -0.4199  0.2959 -0.1344
 9694TIP3   OH229045   6.944   2.203   4.240  0.3514 -0.1290  0.2081
 9694TIP3    H129046   6.889   2.238   4.170  1.1296 -1.3836 -1.0950
 9694TIP3    H229047   6.904   2.119   4.262  1.8869 -1.2583 -1.0474
 9695TIP3   OH229048   3.356   6.551   3.221 -0.0268  0.4360  0.2327
 9695TIP3    H129049   3.334   6.552   3.314  0.1501  0.2413  0.2774
 9695TIP3    H229050   3.389   6.463   3.205  1.2298  0.8731  0.2896
 9696TIP3   OH229051   3.750   3.255   5.473 -0.1795 -0.0222 -0.0497
 9696TIP3    H129052   3.770   3.166   5.501 -0.2670  0.0272  0.1725
 9696TIP3    H229053   3.816   3.310   5.516  0.7002 -0.1149 -1.2315
 9697TIP3   OH229054   6.260   6.594   4.808  0.3955 -0.1044  0.2818
 9697TIP3    H129055   6.286   6.515   4.857  0.2091  0.2461  0.9489
 9697TIP3    H229056   6.179   6.623   4.850 -0.7794 -0.8184 -1.3849
 9698TIP3   OH229057   5.346   1.129   4.159  0.9983 -0.2466 -0.4477
 9698TIP3    H129058   5.366   1.220   4.182  0.9776  0.1602 -1.9757
 9698TIP3    H229059   5.408   1.077   4.210  1.0391  0.6195  0.4075
 9699TIP3   OH229060   5.426   2.972   0.936 -0.8779 -0.2984 -0.4237
 9699TIP3    H129061   5.462   3.014   1.014 -2.2927  0.3412 -0.0703
 9699TIP3    H229062   5.425   2.878   0.958  0.6169 -0.3536 -0.5050
 9700TIP3   OH229063   2.879   1.419   2.631 -0.0920  0.1281 -0.5017
 9700TIP3    H129064   2.901   1.446   2.720  3.0028  0.5288 -1.2772
 9700TIP3    H229065   2.802   1.472   2.607  1.1260  2.5718  0.7322
 9701TIP3   OH229066   0.113   0.518   5.346  0.0249 -0.4524  0.5286
 9701TIP3    H129067   0.135   0.436   5.301 -0.2606  0.5812 -1.5775
 9701TIP3    H229068   0.026   0.501   5.384 -0.4603 -0.8425 -0.6920
 9702TIP3   OH229069   5.146   2.312   0.591  0.5879 -0.1280 -0.3729
 9702TIP3    H129070   5.239   2.313   0.614  0.4532 -0.6067  0.1995
 9702TIP3    H229071   5.102   2.280   0.670 -0.1829  1.2443 -0.2071
 9703TIP3   OH229072   3.387   5.060   0.687  0.4009  0.2684  0.1628
 9703TIP3    H129073   3.395   5.106   0.771  1.7804 -3.0722  2.0799
 9703TIP3    H229074   3.293   5.053   0.672  0.1228  0.8720  1.4616
 9704TIP3   OH229075   4.693   6.541   0.852 -0.5220  0.4245  0.8619
 9704TIP3    H129076   4.660   6.520   0.764 -1.9017  0.5511  1.3288
 9704TIP3    H229077   4.751   6.616   0.838 -1.7769  1.3143  0.1984
 9705TIP3   OH229078   2.860   1.706   1.695  0.3052  0.5459 -0.3243
 9705TIP3    H129079   2.824   1.784   1.739 -1.5076  0.1203 -0.9649
 9705TIP3    H229080   2.845   1.722   1.602  2.8159  0.7987 -0.7481
 9706TIP3   OH229081   3.091   5.140   2.360 -0.7963 -0.5876 -0.0877
 9706TIP3    H129082   3.185   5.130   2.372 -0.2205  1.3865 -2.3067
 9706TIP3    H229083   3.052   5.084   2.428  1.9323 -1.3063  1.0071
 9707TIP3   OH229084   6.533   1.266   4.768 -0.4587 -0.5057  0.2366
 9707TIP3    H129085   6.611   1.227   4.808 -1.6116 -0.8987  2.2207
 9707TIP3    H229086   6.507   1.204   4.700  1.0158 -0.2966 -0.5533
 9708TIP3   OH229087   2.247   0.813   1.097 -0.0454  0.1398 -0.4607
 9708TIP3    H129088   2.319   0.751   1.088 -0.5108 -0.6901  1.1541
 9708TIP3    H229089   2.173   0.770   1.053  0.0327  0.2819 -0.7349
 9709TIP3   OH229090   2.637   2.586   5.433  0.1213 -0.4872  0.6737
 9709TIP3    H129091   2.632   2.681   5.434 -0.5176 -0.5180  1.0989
 9709TIP3    H229092   2.685   2.564   5.353 -1.4984  0.1048 -0.5055
 9710TIP3   OH229093   1.450   1.816   2.430 -0.2082  0.4740  0.2533
 9710TIP3    H129094   1.524   1.809   2.490  0.5105  3.5511 -0.0772
 9710TIP3    H229095   1.373   1.826   2.486 -0.3035 -1.6641  0.5892
 9711TIP3   OH229096   2.981   3.390   3.818  0.1806  0.0816 -0.2378
 9711TIP3    H129097   2.933   3.377   3.899  0.8566  0.3708  0.2135
 9711TIP3    H229098   2.966   3.309   3.768 -0.2483 -0.0868  0.1574
 9712TIP3   OH229099   3.415   5.142   4.928  0.1643 -0.0049 -0.0788
 9712TIP3    H129100   3.457   5.201   4.991 -1.3735 -0.6736  1.6586
 9712TIP3    H229101   3.433   5.054   4.961 -1.6049 -0.3401  0.1165
 9713TIP3   OH229102   6.070   1.414   3.233  0.3444  0.5400 -0.1768
 9713TIP3    H129103   6.004   1.351   3.203 -1.1814  1.4649  1.0707
 9713TIP3    H229104   6.119   1.438   3.154 -1.9609  1.1099 -1.5270
 9714TIP3   OH229105   2.839   4.216   0.697 -0.3628  0.8244 -0.1309
 9714TIP3    H129106   2.923   4.180   0.671 -1.5245 -1.4310 -1.1219
 9714TIP3    H229107   2.781   4.139   0.704 -2.6828  2.3836 -0.8760
 9715TIP3   OH229108   5.057   2.570   2.745  0.1917 -0.1709  0.2398
 9715TIP3    H129109   5.101   2.633   2.802 -0.6600  0.6936 -0.0313
 9715TIP3    H229110   5.111   2.567   2.666 -0.2845  1.0165 -0.1608
 9716TIP3   OH229111   2.279   0.821   3.365 -0.1886  0.5938 -0.0409
 9716TIP3    H129112   2.330   0.772   3.300  0.9468 -0.0862  1.3043
 9716TIP3    H229113   2.307   0.912   3.352  0.2746  0.4215 -0.2951
 9717TIP3   OH229114   1.547   5.078   2.056  0.1386 -0.1374  0.6615
 9717TIP3    H129115   1.561   5.001   2.111  0.6699 -1.1906 -0.8858
 9717TIP3    H229116   1.453   5.079   2.039  0.2070 -0.8643  0.1570
 9718TIP3   OH229117   3.629   4.287   5.441 -0.4617  0.1443  0.3049
 9718TIP3    H129118   3.691   4.346   5.397 -0.3856 -0.9318 -1.1232
 9718TIP3    H229119   3.645   4.300   5.534  2.2536 -0.3760  0.0082
 9719TIP3   OH229120   3.828   6.591   2.272 -0.1467 -0.5670 -0.0754
 9719TIP3    H129121   3.904   6.605   2.215 -0.6893 -1.0736 -0.9459
 9719TIP3    H229122   3.843   6.649   2.347  0.0140  1.0086 -1.2789
 9720TIP3   OH229123   4.114   5.539   1.617 -0.2005  0.1229 -0.3654
 9720TIP3    H129124   4.099   5.470   1.682 -2.8949  0.5772 -0.4000
 9720TIP3    H229125   4.177   5.598   1.659 -1.1375 -0.1121  1.4858
 9721TIP3   OH229126   5.809   1.994   2.805  0.2268  0.3631  0.5422
 9721TIP3    H129127   5.732   1.976   2.858  0.0106 -1.3893 -0.2945
 9721TIP3    H229128   5.882   1.999   2.867 -0.4868  1.7927  1.3118
 9722TIP3   OH229129   3.700   4.061   3.813 -0.0285  0.0018  0.8583
 9722TIP3    H129130   3.764   4.123   3.777 -0.0125  0.3482  1.4657
 9722TIP3    H229131   3.752   4.005   3.871  0.5616 -2.5474 -1.8724
 9723TIP3   OH229132   4.840   6.696   1.377  0.0525  0.3146  0.1417
 9723TIP3    H129133   4.821   6.767   1.438  0.3681  0.8062 -0.3309
 9723TIP3    H229134   4.785   6.715   1.300 -0.5798 -0.4673  0.3848
 9724TIP3   OH229135   1.161   3.495   1.590 -0.6944  0.1504  0.0898
 9724TIP3    H129136   1.216   3.479   1.514  0.6074 -1.3548  1.2848
 9724TIP3    H229137   1.194   3.577   1.627 -0.4054  0.1591 -0.1831
 9725TIP3   OH229138   5.186   4.224   3.413  0.0148 -0.5420 -0.4385
 9725TIP3    H129139   5.190   4.307   3.461  2.7057 -0.5467 -0.5240
 9725TIP3    H229140   5.200   4.157   3.480 -2.6289 -1.0605 -0.2874
 9726TIP3   OH229141   5.223   3.073   3.786 -0.4295  0.2021 -0.3041
 9726TIP3    H129142   5.234   3.094   3.693 -0.1069 -0.5053 -0.4327
 9726TIP3    H229143   5.303   3.026   3.809 -0.4108  0.5761  0.3935
 9727TIP3   OH229144   4.139   3.125   1.111  0.2377 -0.4429  0.7494
 9727TIP3    H129145   4.235   3.127   1.105  0.2106  0.1748  0.4775
 9727TIP3    H229146   4.121   3.076   1.192  0.8282  1.7641  2.2873
 9728TIP3   OH229147   6.738   3.732   0.161  0.5063 -0.0881 -0.2046
 9728TIP3    H129148   6.822   3.689   0.142  0.6252  0.6786 -1.6419
 9728TIP3    H229149   6.761   3.802   0.223  0.8322 -0.2369 -0.1531
 9729TIP3   OH229150   4.395   4.037   2.465 -0.4765 -0.6051  0.0492
 9729TIP3    H129151   4.425   3.957   2.508 -0.5182  0.0139  1.2715
 9729TIP3    H229152   4.302   4.022   2.449 -1.0685  0.0772  2.4689
 9730TIP3   OH229153   6.537   1.999   2.194  0.0129 -0.7574 -0.8071
 9730TIP3    H129154   6.548   2.091   2.218 -0.3566 -1.2312  1.4198
 9730TIP3    H229155   6.448   1.994   2.159  0.1014 -0.2413 -1.1179
 9731TIP3   OH229156   2.524   1.276   3.339 -0.3415  0.0830 -0.1036
 9731TIP3    H129157   2.460   1.347   3.334  0.9085  1.4985  2.1017
 9731TIP3    H229158   2.594   1.304   3.279 -0.1500  0.4050  0.2642
 9732TIP3   OH229159   4.731   1.592   3.264 -0.1896  0.3834  0.5376
 9732TIP3    H129160   4.734   1.611   3.170  0.5275 -0.6968  0.3251
 9732TIP3    H229161   4.786   1.659   3.304 -0.3430  0.7343  0.1752
 9733TIP3   OH229162   2.122   6.175   0.251 -0.2305 -0.2505 -0.4828
 9733TIP3    H129163   2.189   6.172   0.183  2.1926 -2.5070  1.7812
 9733TIP3    H229164   2.123   6.266   0.282  1.8175 -0.2045 -0.5588
 9734TIP3   OH229165   6.796   5.768   1.086 -0.1545 -0.3580 -0.0612
 9734TIP3    H129166   6.875   5.732   1.126  0.1965 -0.0783 -0.4895
 9734TIP3    H229167   6.730   5.764   1.155  0.2339 -0.5976  0.2998
 9735TIP3   OH229168   6.346   0.573   1.932 -0.1996  0.8258  0.0441
 9735TIP3    H129169   6.299   0.521   1.997 -0.0303  1.2461  0.5056
 9735TIP3    H229170   6.322   0.534   1.848 -0.3125  0.1976  0.3663
 9736TIP3   OH229171   3.685   1.812   4.744  0.3488  0.1735  0.0208
 9736TIP3    H129172   3.669   1.895   4.789  1.7801  0.8455 -0.6315
 9736TIP3    H229173   3.766   1.827   4.694  0.1134 -1.3065 -0.8737
 9737TIP3   OH229174   7.108   2.306   2.693 -0.0889 -0.2575 -0.1255
 9737TIP3    H129175   7.015   2.320   2.680 -0.0596  0.0840  0.0196
 9737TIP3    H229176   7.113   2.244   2.766 -0.2142 -0.8844 -0.6384
 9738TIP3   OH229177   2.988   4.669   2.654 -0.5096  0.2276  0.1656
 9738TIP3    H129178   2.944   4.619   2.724 -0.4416  1.5446  1.1878
 9738TIP3    H229179   3.007   4.754   2.694  0.7597  0.5430 -1.0505
 9739TIP3   OH229180   3.057   2.855   3.640  0.5157 -0.0915 -0.1626
 9739TIP3    H129181   2.975   2.807   3.658  0.5637 -0.1883 -0.1995
 9739TIP3    H229182   3.029   2.945   3.624  0.3923 -0.1731 -0.4109
 9740TIP3   OH229183   0.484   2.436   3.747  0.2971  0.3990 -0.4777
 9740TIP3    H129184   0.574   2.453   3.777  0.2003  0.5411 -0.2654
 9740TIP3    H229185   0.465   2.509   3.688  0.0442  0.7907  0.0815
 9741TIP3   OH229186   5.283   2.284   5.339  0.1351  0.2353  0.2589
 9741TIP3    H129187   5.377   2.290   5.324  0.2181 -1.6696 -0.2194
 9741TIP3    H229188   5.247   2.253   5.256 -0.9282  0.9026  0.4473
 9742TIP3   OH229189   5.716   1.268   2.937 -0.7533  0.7049  0.8692
 9742TIP3    H129190   5.661   1.344   2.955 -0.4450  0.9913  0.6199
 9742TIP3    H229191   5.662   1.193   2.963 -0.9045  1.0225  1.4959
 9743TIP3   OH229192   6.931   4.222   5.185  0.0583 -0.0961  0.1422
 9743TIP3    H129193   6.897   4.154   5.126  2.4120 -1.7556  0.5238
 9743TIP3    H229194   7.026   4.216   5.175  0.4039  1.8007  1.7137
 9744TIP3   OH229195   2.688   2.191   2.549 -0.1298 -0.5206 -0.4461
 9744TIP3    H129196   2.669   2.160   2.638 -0.0469  0.2243 -0.1525
 9744TIP3    H229197   2.778   2.225   2.555  0.0581 -0.9350 -0.9474
 9745TIP3   OH229198   0.400   4.790   1.897 -0.6610 -0.2112 -0.5059
 9745TIP3    H129199   0.416   4.706   1.939 -2.5366 -0.4768 -0.2378
 9745TIP3    H229200   0.385   4.769   1.805  1.8156  0.2026 -1.0870
 9746TIP3   OH229201   6.487   1.703   1.448 -0.1455  0.4410  0.1768
 9746TIP3    H129202   6.444   1.779   1.488 -0.0167  0.7359 -0.2298
 9746TIP3    H229203   6.446   1.696   1.362 -0.7733 -0.4877  0.5370
 9747TIP3   OH229204   6.805   4.076   4.973  0.2464  0.2160 -0.2481
 9747TIP3    H129205   6.874   4.053   4.911 -0.8990  0.4383 -1.6573
 9747TIP3    H229206   6.725   4.041   4.934 -0.3383 -0.9916  1.8806
 9748TIP3   OH229207   6.113   5.507   3.125  0.1245  0.1071 -0.0505
 9748TIP3    H129208   6.188   5.510   3.185  0.0831 -0.1922  0.0204
 9748TIP3    H229209   6.148   5.468   3.045 -0.2082 -1.1002  0.3722
 9749TIP3   OH229210   2.472   2.384   5.286 -0.4181  0.0618 -0.2218
 9749TIP3    H129211   2.434   2.425   5.208 -2.1697  0.4575  0.7808
 9749TIP3    H229212   2.530   2.451   5.322  0.7631 -0.2904 -1.3998
   7.21066   6.79827   5.88747   0.00000   0.00000  -2.40355   0.00000  -2.40355  -3.39913
